 Gaussian 16, Revision A.03,
 Gaussian 16:  EM64L-G16RevA.03 25-Dec-2016

 -------------
 #p 6-31g* mp2
 -------------

 ------------------------------------------------------
 Input file generated by CHIRIPA (05-May-2021 14:53:15)
 ------------------------------------------------------
 Symbolic Z-matrix:
 Charge =  0 Multiplicity = 1

                         Standard orientation:
 ---------------------------------------------------------------------
 Center     Atomic      Atomic             Coordinates (Angstroms)
 Number     Number       Type             X           Y           Z
 ---------------------------------------------------------------------
      1          6           0       -4.317551   -0.095183   -0.229656
      2          6           0       -4.521000   -1.339146    0.635879
      3          6           0       -5.567985   -2.294075    0.061660
      4          1           0       -5.276317    0.430565   -0.335960
      5          1           0       -4.017364   -0.405227   -1.240179
      6          1           0       -4.819371   -1.026798    1.644853
      7          1           0       -3.561598   -1.861890    0.740293
      8          1           0       -5.273100   -2.634078   -0.936359
      9          1           0       -6.538020   -1.794241   -0.026659
     10          1           0       -5.697500   -3.176410    0.696145
     11          6           0       -3.273893    0.869090    0.331310
     12          6           0       -3.070443    2.113053   -0.534225
     13          6           0       -2.023458    3.067982    0.039993
     14          1           0       -3.574079    1.179134    1.341833
     15          1           0       -2.315126    0.343342    0.437614
     16          1           0       -4.029845    2.635797   -0.638639
     17          1           0       -2.772072    1.800705   -1.543200
     18          1           0       -1.053423    2.568148    0.128313
     19          1           0       -2.318343    3.407985    1.038013
     20          1           0       -1.893943    3.950317   -0.594492
     21          6           0        3.339507    2.185016    0.158272
     22          6           0        2.086368    1.693716   -0.222238
     23          6           0        1.867695    0.317496   -0.335162
     24          6           0        2.929241   -0.542773   -0.058849
     25          6           0        4.189172   -0.084003    0.322455
     26          6           0        4.385067    1.296155    0.428927
     27          1           0        3.500529    3.255626    0.243488
     28          1           0        1.272539    2.381674   -0.433048
     29          1           0        0.907615   -0.089962   -0.627806
     30          1           0        4.981114   -0.794474    0.526117
     31          1           0        5.359324    1.674865    0.724639
     32          7           0        2.709800   -2.001800   -0.174981
     33          8           0        3.661337   -2.738860    0.073927
     34          8           0        1.590420   -2.380696   -0.512713
 ---------------------------------------------------------------------

 SCF Done:  E(RHF) =  -669.535583203     A.U. after   15 cycles
 E2 =    -0.2091146929D+01 EUMP2 =    -0.67162673013208D+03

 The electronic state is 1-A.
 Alpha  occ. eigenvalues --  -20.60779 -20.60774 -15.85832 -11.31191 -11.27762
 Alpha  occ. eigenvalues --  -11.27757 -11.27490 -11.26770 -11.26734 -11.22143
 Alpha  occ. eigenvalues --  -11.21925 -11.21724 -11.21555 -11.21484 -11.20956
 Alpha  occ. eigenvalues --   -1.59854  -1.39408  -1.19360  -1.08755  -1.08695
 Alpha  occ. eigenvalues --   -1.04765  -1.03817  -0.96291  -0.95592  -0.87317
 Alpha  occ. eigenvalues --   -0.86159  -0.82428  -0.79900  -0.78448  -0.77477
 Alpha  occ. eigenvalues --   -0.72051  -0.71177  -0.70468  -0.65346  -0.65011
 Alpha  occ. eigenvalues --   -0.64775  -0.62162  -0.61181  -0.59687  -0.57866
 Alpha  occ. eigenvalues --   -0.55624  -0.55244  -0.53096  -0.53040  -0.52895
 Alpha  occ. eigenvalues --   -0.52615  -0.50225  -0.48808  -0.48806  -0.48200
 Alpha  occ. eigenvalues --   -0.46923  -0.46002  -0.45888  -0.44816  -0.44054
 Alpha  occ. eigenvalues --   -0.37336  -0.36362
 Alpha virt. eigenvalues --    0.05049   0.11270   0.16486   0.19487   0.22841
 Alpha virt. eigenvalues --    0.23948   0.25567   0.26275   0.27050   0.28453
 Alpha virt. eigenvalues --    0.29281   0.30237   0.31279   0.31666   0.31998

 Mulliken charges:
               1
     1  C   -0.298671
     2  C   -0.301178
     3  C   -0.476025
     4  H    0.149512
     5  H    0.151149
     6  H    0.151189
     7  H    0.157445
     8  H    0.156884
     9  H    0.153832
    10  H    0.161925
    11  C   -0.299123
    12  C   -0.300176
    13  C   -0.480396
    14  H    0.150905
    15  H    0.148933
    16  H    0.155245
    17  H    0.151999
    18  H    0.146671
    19  H    0.160073
    20  H    0.160243
    21  C   -0.171296
    22  C   -0.223663
    23  C   -0.173341
    24  C    0.158643
    25  C   -0.170897
    26  C   -0.218479
    27  H    0.226208
    28  H    0.231198
    29  H    0.275241
    30  H    0.275606
    31  H    0.223445
    32  N    0.488150
    33  O   -0.460318
    34  O   -0.460932
 Sum of Mulliken charges =  -0.00000

 Dipole moment (field-independent basis, Debye):
    X=              0.6543    Y=              5.1011    Z=              0.4325  Tot=              5.1611
 Quadrupole moment (field-independent basis, Debye-Ang):
   XX=            -85.1402   YY=           -101.1353   ZZ=            -95.0967
   XY=             13.0759   XZ=              2.0569   YZ=             -0.6968

 Normal termination of Gaussian 16 at Wed May  5 21:55:51 2021.
