 Gaussian 16, Revision A.03,
 Gaussian 16:  EM64L-G16RevA.03 25-Dec-2016

 -------------
 #p 6-31g* mp2
 -------------

 ------------------------------------------------------
 Input file generated by CHIRIPA (05-May-2021 14:53:12)
 ------------------------------------------------------
 Symbolic Z-matrix:
 Charge =  0 Multiplicity = 1

                         Standard orientation:
 ---------------------------------------------------------------------
 Center     Atomic      Atomic             Coordinates (Angstroms)
 Number     Number       Type             X           Y           Z
 ---------------------------------------------------------------------
      1          6           0       -3.883516    0.904347   -0.232313
      2          6           0       -2.605795    1.659059    0.136230
      3          6           0       -2.775314    3.177081    0.067926
      4          1           0       -4.194125    1.194829   -1.245272
      5          1           0       -4.692290    1.214692    0.443680
      6          1           0       -1.799324    1.346358   -0.539372
      7          1           0       -2.298086    1.366602    1.148357
      8          1           0       -3.561010    3.508260    0.754660
      9          1           0       -3.059414    3.487901   -0.942658
     10          1           0       -1.849934    3.696808    0.335163
     11          6           0       -3.729864   -0.614229   -0.168690
     12          6           0       -5.007585   -1.368941   -0.537233
     13          6           0       -4.838066   -2.886964   -0.468929
     14          1           0       -2.921091   -0.924574   -0.844683
     15          1           0       -3.419255   -0.904711    0.844269
     16          1           0       -5.315295   -1.076484   -1.549360
     17          1           0       -5.814057   -1.056241    0.138369
     18          1           0       -4.553966   -3.197784    0.541655
     19          1           0       -4.052370   -3.218142   -1.155663
     20          1           0       -5.763446   -3.406690   -0.736166
     21          6           0        0.812341    0.209573    1.417193
     22          6           0        1.685578   -0.821911    1.777774
     23          6           0        2.886018   -1.010159    1.086360
     24          6           0        3.182955   -0.144543    0.034776
     25          6           0        2.333568    0.892306   -0.348331
     26          6           0        1.138548    1.061887    0.357160
     27          1           0       -0.118084    0.348558    1.959768
     28          1           0        1.434837   -1.485350    2.600589
     29          1           0        3.580260   -1.800621    1.344464
     30          1           0        2.610875    1.537640   -1.172990
     31          1           0        0.462290    1.863799    0.074923
     32          7           0        4.450939   -0.333952   -0.704645
     33          8           0        4.689445    0.442177   -1.627344
     34          8           0        5.182268   -1.254953   -0.347501
 ---------------------------------------------------------------------

 SCF Done:  E(RHF) =  -669.534856683     A.U. after   15 cycles
 E2 =    -0.2092364453D+01 EUMP2 =    -0.67162722113620D+03

 The electronic state is 1-A.
 Alpha  occ. eigenvalues --  -20.60710 -20.60705 -15.85763 -11.31109 -11.27682
 Alpha  occ. eigenvalues --  -11.27669 -11.27379 -11.26683 -11.26626 -11.22863
 Alpha  occ. eigenvalues --  -11.22315 -11.22234 -11.22200 -11.22159 -11.21594
 Alpha  occ. eigenvalues --   -1.59786  -1.39340  -1.19278  -1.09339  -1.08668
 Alpha  occ. eigenvalues --   -1.04690  -1.04421  -0.96839  -0.95511  -0.87854
 Alpha  occ. eigenvalues --   -0.86083  -0.82347  -0.80555  -0.79130  -0.77394
 Alpha  occ. eigenvalues --   -0.71981  -0.71110  -0.70383  -0.65972  -0.64926
 Alpha  occ. eigenvalues --   -0.64713  -0.62113  -0.61776  -0.60209  -0.58446
 Alpha  occ. eigenvalues --   -0.56102  -0.55185  -0.53554  -0.53268  -0.53005
 Alpha  occ. eigenvalues --   -0.52764  -0.50763  -0.48835  -0.48740  -0.48720
 Alpha  occ. eigenvalues --   -0.47547  -0.46651  -0.46540  -0.44751  -0.44664
 Alpha  occ. eigenvalues --   -0.37235  -0.36279
 Alpha virt. eigenvalues --    0.05132   0.11274   0.16603   0.19503   0.22416
 Alpha virt. eigenvalues --    0.23456   0.24500   0.25841   0.26378   0.28355
 Alpha virt. eigenvalues --    0.29180   0.29752   0.30861   0.31597   0.31785

 Mulliken charges:
               1
     1  C   -0.297801
     2  C   -0.308581
     3  C   -0.478099
     4  H    0.153737
     5  H    0.151973
     6  H    0.153000
     7  H    0.145264
     8  H    0.160331
     9  H    0.160783
    10  H    0.156643
    11  C   -0.299077
    12  C   -0.300359
    13  C   -0.476221
    14  H    0.152671
    15  H    0.145424
    16  H    0.154079
    17  H    0.152764
    18  H    0.154387
    19  H    0.156954
    20  H    0.162568
    21  C   -0.172321
    22  C   -0.219086
    23  C   -0.170973
    24  C    0.158433
    25  C   -0.172446
    26  C   -0.223357
    27  H    0.228685
    28  H    0.223087
    29  H    0.275231
    30  H    0.275318
    31  H    0.230356
    32  N    0.488059
    33  O   -0.460730
    34  O   -0.460698
 Sum of Mulliken charges =  -0.00000

 Dipole moment (field-independent basis, Debye):
    X=             -4.7238    Y=              0.6585    Z=              2.5227  Tot=              5.3955
 Quadrupole moment (field-independent basis, Debye-Ang):
   XX=           -122.8408   YY=            -93.2573   ZZ=            -92.3923
   XY=              1.6320   XZ=              8.9355   YZ=             -3.0504

 Normal termination of Gaussian 16 at Wed May  5 23:21:01 2021.
