 Gaussian 16, Revision A.03,
 Gaussian 16:  EM64L-G16RevA.03 25-Dec-2016

 -------------
 #p 6-31g* mp2
 -------------

 ------------------------------------------------------
 Input file generated by CHIRIPA (05-May-2021 14:51:09)
 ------------------------------------------------------
 Symbolic Z-matrix:
 Charge =  0 Multiplicity = 1

                         Standard orientation:
 ---------------------------------------------------------------------
 Center     Atomic      Atomic             Coordinates (Angstroms)
 Number     Number       Type             X           Y           Z
 ---------------------------------------------------------------------
      1          6           0       -4.186994   -0.069544   -0.306699
      2          6           0       -5.375416    0.813335    0.075615
      3          6           0       -6.466236    0.832692   -0.995613
      4          1           0       -3.764249    0.286583   -1.256122
      5          1           0       -4.542870   -1.093295   -0.487483
      6          1           0       -5.017198    1.834807    0.256971
      7          1           0       -5.795262    0.455181    1.024336
      8          1           0       -6.851405   -0.176917   -1.171499
      9          1           0       -6.068919    1.210547   -1.943224
     10          1           0       -7.306212    1.469844   -0.701780
     11          6           0       -3.088220   -0.099122    0.754219
     12          6           0       -1.899799   -0.982001    0.371905
     13          6           0       -0.808978   -1.001358    1.443133
     14          1           0       -2.732344    0.924629    0.935003
     15          1           0       -3.510965   -0.455249    1.703642
     16          1           0       -1.479952   -0.623847   -0.576816
     17          1           0       -2.258016   -2.003473    0.190549
     18          1           0       -1.206295   -1.379214    2.390744
     19          1           0       -0.423810    0.008251    1.619019
     20          1           0        0.030998   -1.638510    1.149300
     21          6           0        3.455621    0.812194   -0.367047
     22          6           0        4.413521    1.814856    0.277220
     23          6           0        4.036289    3.266765   -0.018502
     24          1           0        3.441005    0.974747   -1.453467
     25          1           0        2.435620    1.007405   -0.008042
     26          1           0        5.431619    1.616929   -0.081830
     27          1           0        4.426003    1.649772    1.362212
     28          1           0        3.031151    3.487403    0.355151
     29          1           0        4.042479    3.454373   -1.097096
     30          1           0        4.734194    3.966618    0.451595
     31          6           0        3.819594   -0.643527   -0.080472
     32          6           0        2.861693   -1.646190   -0.724740
     33          6           0        3.238926   -3.098099   -0.429019
     34          1           0        4.839596   -0.838739   -0.439479
     35          1           0        3.834209   -0.806081    1.005947
     36          1           0        2.849211   -1.481106   -1.809733
     37          1           0        1.843595   -1.448264   -0.365690
     38          1           0        3.232734   -3.285708    0.649576
     39          1           0        4.244064   -3.318738   -0.802671
     40          1           0        2.541020   -3.797953   -0.899115
 ---------------------------------------------------------------------

 SCF Done:  E(RHF) =  -470.733312579     A.U. after   11 cycles
 E2 =    -0.1582638527D+01 EUMP2 =    -0.47231595110603D+03

 The electronic state is 1-A.
 Alpha  occ. eigenvalues --  -11.21644 -11.21616 -11.21590 -11.21553 -11.21431
 Alpha  occ. eigenvalues --  -11.21384 -11.21370 -11.21324 -11.21132 -11.21081
 Alpha  occ. eigenvalues --  -11.21071 -11.21065  -1.08460  -1.08409  -1.03573
 Alpha  occ. eigenvalues --   -1.03508  -0.96020  -0.95965  -0.87042  -0.86977
 Alpha  occ. eigenvalues --   -0.79640  -0.79565  -0.78268  -0.78225  -0.65113
 Alpha  occ. eigenvalues --   -0.65030  -0.61007  -0.60919  -0.59440  -0.59268
 Alpha  occ. eigenvalues --   -0.57668  -0.57532  -0.55304  -0.55253  -0.52745
 Alpha  occ. eigenvalues --   -0.52651  -0.52458  -0.52374  -0.49959  -0.49901
 Alpha  occ. eigenvalues --   -0.48004  -0.47840  -0.46657  -0.46590  -0.45812
 Alpha  occ. eigenvalues --   -0.45760  -0.45734  -0.45676  -0.43801  -0.43752
 Alpha virt. eigenvalues --    0.20791   0.23104   0.23721   0.24544   0.26301
 Alpha virt. eigenvalues --    0.26765   0.27233   0.27349   0.27876   0.29470
 Alpha virt. eigenvalues --    0.30267   0.31431   0.31640   0.31752   0.32080

 Mulliken charges:
               1
     1  C   -0.298352
     2  C   -0.299693
     3  C   -0.475732
     4  H    0.149841
     5  H    0.149600
     6  H    0.151969
     7  H    0.151948
     8  H    0.155208
     9  H    0.155250
    10  H    0.160306
    11  C   -0.298292
    12  C   -0.300536
    13  C   -0.481104
    14  H    0.149503
    15  H    0.149785
    16  H    0.152957
    17  H    0.152243
    18  H    0.155737
    19  H    0.154740
    20  H    0.165115
    21  C   -0.298968
    22  C   -0.299684
    23  C   -0.475639
    24  H    0.149413
    25  H    0.150098
    26  H    0.151928
    27  H    0.152114
    28  H    0.154890
    29  H    0.155095
    30  H    0.160271
    31  C   -0.297655
    32  C   -0.307661
    33  C   -0.475921
    34  H    0.149401
    35  H    0.149849
    36  H    0.151798
    37  H    0.159580
    38  H    0.155105
    39  H    0.155420
    40  H    0.160072
 Sum of Mulliken charges =  -0.00000

 Dipole moment (field-independent basis, Debye):
    X=             -0.0222    Y=             -0.0058    Z=              0.0043  Tot=              0.0233
 Quadrupole moment (field-independent basis, Debye-Ang):
   XX=            -85.0385   YY=            -85.3845   ZZ=            -84.3595
   XY=              0.6373   XZ=             -1.2907   YZ=             -0.1532

 Normal termination of Gaussian 16 at Thu May  6 05:18:13 2021.
