 Gaussian 16, Revision A.03,
 Gaussian 16:  EM64L-G16RevA.03 25-Dec-2016

 -------------
 #p 6-31g* mp2
 -------------

 ------------------------------------------------------
 Input file generated by CHIRIPA (05-May-2021 14:57:21)
 ------------------------------------------------------
 Symbolic Z-matrix:
 Charge =  0 Multiplicity = 1

                         Standard orientation:
 ---------------------------------------------------------------------
 Center     Atomic      Atomic             Coordinates (Angstroms)
 Number     Number       Type             X           Y           Z
 ---------------------------------------------------------------------
      1          6           0        1.819411   -1.865492    1.245013
      2          6           0        2.740362   -2.322117    0.296402
      3          6           0        3.587117   -1.424393   -0.360597
      4          6           0        3.485560   -0.070806   -0.043141
      5          6           0        2.578327    0.414950    0.897210
      6          6           0        1.741470   -0.500822    1.541866
      7          1           0        1.165477   -2.569875    1.750592
      8          1           0        2.803103   -3.381376    0.063855
      9          1           0        4.309203   -1.750712   -1.099193
     10          1           0        2.539078    1.476785    1.107882
     11          1           0        1.027204   -0.143351    2.278129
     12          7           0        4.376742    0.889127   -0.732143
     13          8           0        4.267603    2.076647   -0.434615
     14          8           0        5.167513    0.435827   -1.556664
     15          6           0       -2.497723    2.510170    0.604151
     16          6           0       -3.690897    2.388652   -0.115633
     17          6           0       -4.166372    1.129765   -0.494678
     18          6           0       -3.419982    0.008481   -0.135629
     19          6           0       -2.227630    0.096904    0.581145
     20          6           0       -1.771179    1.365925    0.949633
     21          1           0       -2.135751    3.492040    0.894503
     22          1           0       -4.257224    3.275553   -0.385311
     23          1           0       -5.086942    1.006882   -1.052232
     24          1           0       -1.685029   -0.805482    0.835514
     25          1           0       -0.844213    1.457278    1.508594
     26          7           0       -3.913278   -1.329611   -0.531320
     27          8           0       -3.237184   -2.302033   -0.202791
     28          8           0       -4.966675   -1.380650   -1.162498
 ---------------------------------------------------------------------

 SCF Done:  E(RHF) =  -868.337290515     A.U. after   16 cycles
 E2 =    -0.2600337937D+01 EUMP2 =    -0.87093762845283D+03

 The electronic state is 1-A.
 Alpha  occ. eigenvalues --  -20.61232 -20.61208 -20.61191 -20.61172 -15.86279
 Alpha  occ. eigenvalues --  -15.86244 -11.31689 -11.31638 -11.28379 -11.28277
 Alpha  occ. eigenvalues --  -11.28225 -11.28178 -11.28021 -11.27941 -11.27444
 Alpha  occ. eigenvalues --  -11.27303 -11.27198 -11.27169  -1.60295  -1.60257
 Alpha  occ. eigenvalues --   -1.39851  -1.39810  -1.19883  -1.19813  -1.09252
 Alpha  occ. eigenvalues --   -1.09203  -1.05339  -1.05212  -0.96072  -0.96038
 Alpha  occ. eigenvalues --   -0.86712  -0.86627  -0.82962  -0.82845  -0.78041
 Alpha  occ. eigenvalues --   -0.77862  -0.72500  -0.72460  -0.71615  -0.71580
 Alpha  occ. eigenvalues --   -0.70977  -0.70900  -0.65559  -0.65520  -0.65408
 Alpha  occ. eigenvalues --   -0.65162  -0.62841  -0.62412  -0.55772  -0.55707
 Alpha  occ. eigenvalues --   -0.53635  -0.53518  -0.53499  -0.53237  -0.49260
 Alpha  occ. eigenvalues --   -0.49248  -0.49224  -0.49209  -0.45258  -0.45198
 Alpha  occ. eigenvalues --   -0.37843  -0.37775  -0.37013  -0.36715
 Alpha virt. eigenvalues --    0.04566   0.04637   0.10609   0.10844   0.15903
 Alpha virt. eigenvalues --    0.16162   0.18523   0.22239   0.24863   0.26209
 Alpha virt. eigenvalues --    0.28241   0.29498   0.29586   0.31498   0.32675

 Mulliken charges:
               1
     1  C   -0.171024
     2  C   -0.217252
     3  C   -0.168927
     4  C    0.158932
     5  C   -0.169690
     6  C   -0.224434
     7  H    0.231317
     8  H    0.228689
     9  H    0.278373
    10  H    0.272183
    11  H    0.216279
    12  N    0.488278
    13  O   -0.461566
    14  O   -0.457757
    15  C   -0.169872
    16  C   -0.218220
    17  C   -0.169812
    18  C    0.158786
    19  C   -0.169263
    20  C   -0.217260
    21  H    0.228247
    22  H    0.225888
    23  H    0.277173
    24  H    0.268785
    25  H    0.215231
    26  N    0.488556
    27  O   -0.463593
    28  O   -0.458049
 Sum of Mulliken charges =  -0.00000

 Dipole moment (field-independent basis, Debye):
    X=             -1.3373    Y=              1.2438    Z=              3.6343  Tot=              4.0674
 Quadrupole moment (field-independent basis, Debye-Ang):
   XX=           -134.3599   YY=           -100.6608   ZZ=           -104.5696
   XY=            -32.3582   XZ=              4.3803   YZ=              0.4049

 Normal termination of Gaussian 16 at Thu May  6 03:18:05 2021.
