 Gaussian 16, Revision A.03,
 Gaussian 16:  EM64L-G16RevA.03 25-Dec-2016

 -------------
 #p 6-31g* mp2
 -------------

 ------------------------------------------------------
 Input file generated by CHIRIPA (05-May-2021 14:57:27)
 ------------------------------------------------------
 Symbolic Z-matrix:
 Charge =  0 Multiplicity = 1

                         Standard orientation:
 ---------------------------------------------------------------------
 Center     Atomic      Atomic             Coordinates (Angstroms)
 Number     Number       Type             X           Y           Z
 ---------------------------------------------------------------------
      1          6           0       -0.842169    2.424694    0.289650
      2          6           0       -0.495092    1.370835   -0.562077
      3          6           0       -1.391520    0.324408   -0.798625
      4          6           0       -2.632118    0.363991   -0.164086
      5          6           0       -3.007175    1.400041    0.689860
      6          6           0       -2.094895    2.435914    0.911803
      7          1           0       -0.139645    3.233485    0.467734
      8          1           0        0.477095    1.359494   -1.046606
      9          1           0       -1.148639   -0.503752   -1.453284
     10          1           0       -3.983631    1.383663    1.158563
     11          1           0       -2.367145    3.253066    1.573760
     12          7           0       -3.589517   -0.738228   -0.406779
     13          8           0       -4.676296   -0.679983    0.164323
     14          8           0       -3.235020   -1.639521   -1.163508
     15          6           0        3.971245    1.236538   -0.850061
     16          6           0        3.840634    1.113484    0.537138
     17          6           0        3.014036    0.129681    1.087967
     18          6           0        2.329610   -0.717945    0.218265
     19          6           0        2.439007   -0.620469   -1.168033
     20          6           0        3.271249    0.370695   -1.696726
     21          1           0        4.615558    2.003639   -1.269360
     22          1           0        4.383059    1.784518    1.197087
     23          1           0        2.894628    0.012247    2.158186
     24          1           0        1.885625   -1.304041   -1.800420
     25          1           0        3.370764    0.463936   -2.774431
     26          7           0        1.451541   -1.763352    0.789686
     27          8           0        0.859256   -2.497740    0.001963
     28          8           0        1.372221   -1.828556    2.014468
 ---------------------------------------------------------------------

 SCF Done:  E(RHF) =  -868.335879467     A.U. after   16 cycles
 E2 =    -0.2604657597D+01 EUMP2 =    -0.87094053706384D+03

 The electronic state is 1-A.
 Alpha  occ. eigenvalues --  -20.61321 -20.61312 -20.60177 -20.60138 -15.86360
 Alpha  occ. eigenvalues --  -15.85219 -11.32019 -11.30735 -11.28627 -11.28609
 Alpha  occ. eigenvalues --  -11.28436 -11.27739 -11.27701 -11.27339 -11.27283
 Alpha  occ. eigenvalues --  -11.27147 -11.26415 -11.26290  -1.60373  -1.59229
 Alpha  occ. eigenvalues --   -1.39924  -1.38778  -1.20278  -1.18929  -1.09581
 Alpha  occ. eigenvalues --   -1.08306  -1.05716  -1.04367  -0.96360  -0.95116
 Alpha  occ. eigenvalues --   -0.87064  -0.85753  -0.83180  -0.81961  -0.78185
 Alpha  occ. eigenvalues --   -0.76972  -0.72571  -0.71718  -0.71440  -0.71319
 Alpha  occ. eigenvalues --   -0.70542  -0.70059  -0.65884  -0.65661  -0.64589
 Alpha  occ. eigenvalues --   -0.64431  -0.63016  -0.61745  -0.56148  -0.54961
 Alpha  occ. eigenvalues --   -0.54155  -0.53750  -0.52668  -0.52217  -0.49353
 Alpha  occ. eigenvalues --   -0.49321  -0.48213  -0.48180  -0.45257  -0.44149
 Alpha  occ. eigenvalues --   -0.38358  -0.37347  -0.36889  -0.35877
 Alpha virt. eigenvalues --    0.04286   0.05570   0.10237   0.11674   0.15729
 Alpha virt. eigenvalues --    0.17041   0.20413   0.21937   0.25975   0.27067
 Alpha virt. eigenvalues --    0.28150   0.28635   0.30300   0.31176   0.31816

 Mulliken charges:
               1
     1  C   -0.173000
     2  C   -0.228054
     3  C   -0.174072
     4  C    0.160835
     5  C   -0.170260
     6  C   -0.218016
     7  H    0.220607
     8  H    0.227348
     9  H    0.279234
    10  H    0.275230
    11  H    0.221102
    12  N    0.488577
    13  O   -0.462731
    14  O   -0.455605
    15  C   -0.173344
    16  C   -0.220477
    17  C   -0.170764
    18  C    0.168377
    19  C   -0.189059
    20  C   -0.222320
    21  H    0.228621
    22  H    0.226124
    23  H    0.279026
    24  H    0.278574
    25  H    0.227511
    26  N    0.489023
    27  O   -0.456379
    28  O   -0.456105
 Sum of Mulliken charges =  -0.00000

 Dipole moment (field-independent basis, Debye):
    X=              6.6094    Y=              7.2808    Z=             -1.0458  Tot=              9.8887
 Quadrupole moment (field-independent basis, Debye-Ang):
   XX=           -106.2792   YY=           -107.1367   ZZ=           -100.3303
   XY=             -3.5804   XZ=             -7.7892   YZ=              5.1512

 Normal termination of Gaussian 16 at Thu May  6 18:11:40 2021.
