 Gaussian 16, Revision A.03,
 Gaussian 16:  EM64L-G16RevA.03 25-Dec-2016

 -------------
 #p 6-31g* mp2
 -------------

 ------------------------------------------------------
 Input file generated by CHIRIPA (05-May-2021 14:51:08)
 ------------------------------------------------------
 Symbolic Z-matrix:
 Charge =  0 Multiplicity = 1

                         Standard orientation:
 ---------------------------------------------------------------------
 Center     Atomic      Atomic             Coordinates (Angstroms)
 Number     Number       Type             X           Y           Z
 ---------------------------------------------------------------------
      1          6           0        2.748619    1.003091   -0.085705
      2          6           0        3.723014    2.105427    0.330703
      3          6           0        3.100916    3.500535    0.263917
      4          1           0        2.396432    1.200547   -1.107429
      5          1           0        1.862770    1.042010    0.563257
      6          1           0        4.607378    2.063558   -0.317960
      7          1           0        4.073070    1.905220    1.351484
      8          1           0        2.230341    3.566161    0.924518
      9          1           0        2.767685    3.725398   -0.754412
     10          1           0        3.814798    4.273301    0.565689
     11          6           0        3.355931   -0.397306   -0.024153
     12          6           0        2.381536   -1.499642   -0.440561
     13          6           0        3.003634   -2.894750   -0.373775
     14          1           0        4.241780   -0.436225   -0.673115
     15          1           0        3.708117   -0.594762    0.997571
     16          1           0        2.031480   -1.299435   -1.461342
     17          1           0        1.497172   -1.457773    0.208102
     18          1           0        3.336865   -3.119613    0.644554
     19          1           0        3.874209   -2.960376   -1.034376
     20          1           0        2.289752   -3.667516   -0.675547
     21          6           0       -2.926572   -0.964143    0.416009
     22          6           0       -1.725775   -1.735740   -0.132359
     23          6           0       -1.487113   -3.056415    0.600207
     24          1           0       -2.771276   -0.768771    1.485895
     25          1           0       -3.823851   -1.593866    0.340284
     26          1           0       -0.831280   -1.104234   -0.056897
     27          1           0       -1.883860   -1.929131   -1.201108
     28          1           0       -2.362434   -3.708339    0.514135
     29          1           0       -1.303873   -2.878755    1.664848
     30          1           0       -0.624052   -3.591611    0.192099
     31          6           0       -3.177977    0.358358   -0.306151
     32          6           0       -4.378775    1.129955    0.242217
     33          6           0       -4.617437    2.450630   -0.490349
     34          1           0       -2.280698    0.988081   -0.230426
     35          1           0       -3.333274    0.162986   -1.376038
     36          1           0       -4.220689    1.323346    1.310967
     37          1           0       -5.273270    0.498449    0.166755
     38          1           0       -4.800676    2.272970   -1.554990
     39          1           0       -3.742115    3.102554   -0.404277
     40          1           0       -5.480499    2.985826   -0.082241
 ---------------------------------------------------------------------

 SCF Done:  E(RHF) =  -470.733109234     A.U. after   11 cycles
 E2 =    -0.1583220757D+01 EUMP2 =    -0.47231632999089D+03

 The electronic state is 1-A.
 Alpha  occ. eigenvalues --  -11.21632 -11.21587 -11.21580 -11.21533 -11.21435
 Alpha  occ. eigenvalues --  -11.21381 -11.21370 -11.21321 -11.21100 -11.21087
 Alpha  occ. eigenvalues --  -11.21061 -11.21057  -1.08463  -1.08399  -1.03576
 Alpha  occ. eigenvalues --   -1.03483  -0.96015  -0.95949  -0.87024  -0.86971
 Alpha  occ. eigenvalues --   -0.79692  -0.79506  -0.78336  -0.78147  -0.65157
 Alpha  occ. eigenvalues --   -0.64981  -0.61080  -0.60803  -0.59522  -0.59194
 Alpha  occ. eigenvalues --   -0.57730  -0.57429  -0.55314  -0.55224  -0.52745
 Alpha  occ. eigenvalues --   -0.52613  -0.52451  -0.52345  -0.49959  -0.49895
 Alpha  occ. eigenvalues --   -0.48112  -0.47765  -0.46814  -0.46495  -0.45985
 Alpha  occ. eigenvalues --   -0.45767  -0.45728  -0.45344  -0.43827  -0.43734
 Alpha virt. eigenvalues --    0.21005   0.23095   0.23302   0.24746   0.25610
 Alpha virt. eigenvalues --    0.26695   0.26808   0.27078   0.28472   0.29077
 Alpha virt. eigenvalues --    0.30166   0.31097   0.31567   0.31616   0.32529

 Mulliken charges:
               1
     1  C   -0.298617
     2  C   -0.299601
     3  C   -0.475717
     4  H    0.149992
     5  H    0.148443
     6  H    0.152213
     7  H    0.151994
     8  H    0.154884
     9  H    0.155330
    10  H    0.160420
    11  C   -0.297932
    12  C   -0.306220
    13  C   -0.476297
    14  H    0.149597
    15  H    0.149478
    16  H    0.152242
    17  H    0.159729
    18  H    0.155286
    19  H    0.155191
    20  H    0.160619
    21  C   -0.297740
    22  C   -0.304952
    23  C   -0.477749
    24  H    0.149010
    25  H    0.149310
    26  H    0.157494
    27  H    0.151708
    28  H    0.155286
    29  H    0.154420
    30  H    0.162201
    31  C   -0.298382
    32  C   -0.299593
    33  C   -0.475717
    34  H    0.149781
    35  H    0.149634
    36  H    0.151753
    37  H    0.151892
    38  H    0.155148
    39  H    0.155286
    40  H    0.160176
 Sum of Mulliken charges =  -0.00000

 Dipole moment (field-independent basis, Debye):
    X=              0.0249    Y=              0.0013    Z=             -0.0113  Tot=              0.0274
 Quadrupole moment (field-independent basis, Debye-Ang):
   XX=            -84.5578   YY=            -86.6909   ZZ=            -83.5693
   XY=              0.9472   XZ=             -0.0024   YZ=              0.6594

 Normal termination of Gaussian 16 at Wed May  5 22:55:55 2021.
