 Gaussian 16, Revision A.03,
 Gaussian 16:  EM64L-G16RevA.03 25-Dec-2016

 -------------
 #p 6-31g* mp2
 -------------

 ------------------------------------------------------
 Input file generated by CHIRIPA (05-May-2021 14:57:25)
 ------------------------------------------------------
 Symbolic Z-matrix:
 Charge =  0 Multiplicity = 1

                         Standard orientation:
 ---------------------------------------------------------------------
 Center     Atomic      Atomic             Coordinates (Angstroms)
 Number     Number       Type             X           Y           Z
 ---------------------------------------------------------------------
      1          6           0        2.399063    2.319078    0.148768
      2          6           0        3.482743    2.297357   -0.735363
      3          6           0        4.320685    1.180365   -0.804140
      4          6           0        4.044476    0.097670    0.029388
      5          6           0        2.972616    0.089150    0.920643
      6          6           0        2.147901    1.216849    0.972497
      7          1           0        1.753266    3.190943    0.195622
      8          1           0        3.680200    3.151930   -1.376268
      9          1           0        5.166550    1.136936   -1.479451
     10          1           0        2.801092   -0.777820    1.547029
     11          1           0        1.307026    1.230928    1.660084
     12          7           0        4.924566   -1.090506   -0.034465
     13          8           0        4.659857   -2.031623    0.710428
     14          8           0        5.862426   -1.058184   -0.828197
     15          6           0       -1.769781   -1.645533    0.010430
     16          6           0       -1.742588   -0.284444    0.331708
     17          6           0       -2.916467    0.474469    0.307137
     18          6           0       -4.105312   -0.162786   -0.044779
     19          6           0       -4.164797   -1.517032   -0.369998
     20          6           0       -2.978668   -2.256406   -0.338782
     21          1           0       -0.853126   -2.227485    0.032098
     22          1           0       -0.805193    0.192616    0.603280
     23          1           0       -2.923995    1.529801    0.551341
     24          1           0       -5.114439   -1.964690   -0.636829
     25          1           0       -3.002783   -3.313275   -0.588765
     26          7           0       -5.354529    0.630299   -0.074309
     27          8           0       -6.389069    0.045322   -0.387628
     28          8           0       -5.275474    1.821879    0.216423
 ---------------------------------------------------------------------

 SCF Done:  E(RHF) =  -868.337365467     A.U. after   16 cycles
 E2 =    -0.2599775846D+01 EUMP2 =    -0.87093714131286D+03

 The electronic state is 1-A.
 Alpha  occ. eigenvalues --  -20.61495 -20.61478 -20.61115 -20.61102 -15.86550
 Alpha  occ. eigenvalues --  -15.86168 -11.32025 -11.31566 -11.28696 -11.28583
 Alpha  occ. eigenvalues --  -11.28383 -11.28198 -11.28110 -11.27868 -11.27745
 Alpha  occ. eigenvalues --  -11.27568 -11.27214 -11.27104  -1.60564  -1.60186
 Alpha  occ. eigenvalues --   -1.40115  -1.39739  -1.20225  -1.19744  -1.09590
 Alpha  occ. eigenvalues --   -1.09124  -1.05657  -1.05164  -0.96401  -0.95954
 Alpha  occ. eigenvalues --   -0.87049  -0.86552  -0.83241  -0.82796  -0.78280
 Alpha  occ. eigenvalues --   -0.77841  -0.72763  -0.72385  -0.71892  -0.71510
 Alpha  occ. eigenvalues --   -0.71306  -0.70836  -0.65876  -0.65755  -0.65398
 Alpha  occ. eigenvalues --   -0.65122  -0.63025  -0.62483  -0.56121  -0.55634
 Alpha  occ. eigenvalues --   -0.53987  -0.53785  -0.53476  -0.53183  -0.49531
 Alpha  occ. eigenvalues --   -0.49512  -0.49146  -0.49137  -0.45496  -0.45138
 Alpha  occ. eigenvalues --   -0.38191  -0.37708  -0.37262  -0.36769
 Alpha virt. eigenvalues --    0.04276   0.04709   0.10236   0.10883   0.15622
 Alpha virt. eigenvalues --    0.16190   0.19183   0.21879   0.25100   0.27158
 Alpha virt. eigenvalues --    0.28044   0.28614   0.29436   0.31250   0.32016

 Mulliken charges:
               1
     1  C   -0.170285
     2  C   -0.218199
     3  C   -0.168756
     4  C    0.158973
     5  C   -0.173328
     6  C   -0.224244
     7  H    0.228831
     8  H    0.227544
     9  H    0.278705
    10  H    0.274977
    11  H    0.219915
    12  N    0.488036
    13  O   -0.460797
    14  O   -0.457363
    15  C   -0.172214
    16  C   -0.221310
    17  C   -0.172362
    18  C    0.159039
    19  C   -0.170402
    20  C   -0.218298
    21  H    0.229042
    22  H    0.218766
    23  H    0.272583
    24  H    0.277054
    25  H    0.226214
    26  N    0.488171
    27  O   -0.458795
    28  O   -0.461498
 Sum of Mulliken charges =  -0.00000

 Dipole moment (field-independent basis, Debye):
    X=              1.4830    Y=              1.3730    Z=              0.1814  Tot=              2.0291
 Quadrupole moment (field-independent basis, Debye-Ang):
   XX=           -162.9409   YY=            -98.9638   ZZ=           -103.2002
   XY=             31.9531   XZ=             -1.4292   YZ=             -0.3428

 Normal termination of Gaussian 16 at Wed May  5 19:30:57 2021.
