 Gaussian 16, Revision A.03,
 Gaussian 16:  EM64L-G16RevA.03 25-Dec-2016

 -------------
 #p 6-31g* mp2
 -------------

 ------------------------------------------------------
 Input file generated by CHIRIPA (05-May-2021 14:53:12)
 ------------------------------------------------------
 Symbolic Z-matrix:
 Charge =  0 Multiplicity = 1

                         Standard orientation:
 ---------------------------------------------------------------------
 Center     Atomic      Atomic             Coordinates (Angstroms)
 Number     Number       Type             X           Y           Z
 ---------------------------------------------------------------------
      1          6           0        2.224204    0.949615   -0.752725
      2          6           0        2.308790    2.335703   -0.112733
      3          6           0        1.424454    3.366234   -0.815406
      4          1           0        2.513167    1.022718   -1.810128
      5          1           0        1.179543    0.609275   -0.736985
      6          1           0        3.353193    2.672738   -0.128426
      7          1           0        2.019777    2.259258    0.943318
      8          1           0        0.374866    3.056087   -0.787580
      9          1           0        1.715858    3.471916   -1.865413
     10          1           0        1.500212    4.349934   -0.341639
     11          6           0        3.102731   -0.091510   -0.061367
     12          6           0        3.018145   -1.477598   -0.701359
     13          6           0        3.902481   -2.508129    0.001314
     14          1           0        4.147392    0.248831   -0.077106
     15          1           0        2.813768   -0.164613    0.996036
     16          1           0        3.307158   -1.401153   -1.757410
     17          1           0        1.973742   -1.814632   -0.685665
     18          1           0        3.611077   -2.613810    1.051322
     19          1           0        4.952069   -2.197982   -0.026512
     20          1           0        3.826723   -3.491829   -0.472453
     21          6           0       -3.843117   -0.453186   -1.483761
     22          6           0       -2.701113   -1.256472   -1.567902
     23          6           0       -1.718187   -1.199381   -0.575357
     24          6           0       -1.910463   -0.323791    0.492193
     25          6           0       -3.037286    0.489230    0.604258
     26          6           0       -4.007269    0.415569   -0.399862
     27          1           0       -4.601651   -0.503973   -2.259290
     28          1           0       -2.570973   -1.932087   -2.408529
     29          1           0       -0.824394   -1.810064   -0.615583
     30          1           0       -3.139019    1.152943    1.454288
     31          1           0       -4.893149    1.040585   -0.331907
     32          7           0       -0.876734   -0.254580    1.549082
     33          8           0       -1.069767    0.525066    2.479419
     34          8           0        0.106961   -0.981289    1.427122
 ---------------------------------------------------------------------

 SCF Done:  E(RHF) =  -669.536171043     A.U. after   15 cycles
 E2 =    -0.2094258675D+01 EUMP2 =    -0.67163042971755D+03

 The electronic state is 1-A.
 Alpha  occ. eigenvalues --  -20.61117 -20.61112 -15.86118 -11.31385 -11.27931
 Alpha  occ. eigenvalues --  -11.27926 -11.27650 -11.26920 -11.26909 -11.20818
 Alpha  occ. eigenvalues --  -11.20717 -11.20570 -11.20551 -11.20235 -11.20188
 Alpha  occ. eigenvalues --   -1.60166  -1.39726  -1.19540  -1.08957  -1.07512
 Alpha  occ. eigenvalues --   -1.04922  -1.02728  -0.95812  -0.95179  -0.86329
 Alpha  occ. eigenvalues --   -0.86207  -0.82648  -0.78806  -0.77736  -0.77317
 Alpha  occ. eigenvalues --   -0.72377  -0.71504  -0.70644  -0.65216  -0.64925
 Alpha  occ. eigenvalues --   -0.64039  -0.62270  -0.60100  -0.58571  -0.56811
 Alpha  occ. eigenvalues --   -0.55428  -0.54464  -0.53256  -0.53015  -0.51930
 Alpha  occ. eigenvalues --   -0.51632  -0.49178  -0.49150  -0.49040  -0.47139
 Alpha  occ. eigenvalues --   -0.45863  -0.45297  -0.44709  -0.44616  -0.42942
 Alpha  occ. eigenvalues --   -0.37503  -0.36509
 Alpha virt. eigenvalues --    0.04781   0.11048   0.16256   0.20713   0.23532
 Alpha virt. eigenvalues --    0.24529   0.25824   0.27474   0.28144   0.28732
 Alpha virt. eigenvalues --    0.28916   0.30713   0.31395   0.32334   0.32684

 Mulliken charges:
               1
     1  C   -0.297208
     2  C   -0.303009
     3  C   -0.473989
     4  H    0.142621
     5  H    0.143349
     6  H    0.149940
     7  H    0.162167
     8  H    0.150436
     9  H    0.151835
    10  H    0.159191
    11  C   -0.298659
    12  C   -0.300565
    13  C   -0.476462
    14  H    0.142848
    15  H    0.172025
    16  H    0.143420
    17  H    0.153999
    18  H    0.163330
    19  H    0.152157
    20  H    0.153816
    21  C   -0.169986
    22  C   -0.219848
    23  C   -0.172284
    24  C    0.155985
    25  C   -0.170442
    26  C   -0.218580
    27  H    0.226514
    28  H    0.224861
    29  H    0.280768
    30  H    0.276095
    31  H    0.224283
    32  N    0.490495
    33  O   -0.457769
    34  O   -0.461333
 Sum of Mulliken charges =  -0.00000

 Dipole moment (field-independent basis, Debye):
    X=             -3.8713    Y=             -0.3001    Z=             -3.4284  Tot=              5.1798
 Quadrupole moment (field-independent basis, Debye-Ang):
   XX=            -79.8655   YY=            -93.8516   ZZ=            -97.6396
   XY=              0.2848   XZ=              4.1151   YZ=              3.3519

 Normal termination of Gaussian 16 at Thu May  6 04:07:58 2021.
