 Gaussian 16, Revision A.03,
 Gaussian 16:  EM64L-G16RevA.03 25-Dec-2016

 -------------
 #p 6-31g* mp2
 -------------

 ------------------------------------------------------
 Input file generated by CHIRIPA (05-May-2021 14:57:23)
 ------------------------------------------------------
 Symbolic Z-matrix:
 Charge =  0 Multiplicity = 1

                         Standard orientation:
 ---------------------------------------------------------------------
 Center     Atomic      Atomic             Coordinates (Angstroms)
 Number     Number       Type             X           Y           Z
 ---------------------------------------------------------------------
      1          6           0        6.514927    0.668678    0.188927
      2          6           0        5.496545    1.593045    0.443805
      3          6           0        4.155444    1.237178    0.272474
      4          6           0        3.867382   -0.057408   -0.156897
      5          6           0        4.859557   -1.000890   -0.419042
      6          6           0        6.193749   -0.623063   -0.240925
      7          1           0        7.554043    0.953654    0.324657
      8          1           0        5.743022    2.596930    0.777736
      9          1           0        3.347224    1.932928    0.462553
     10          1           0        4.582733   -1.994213   -0.750850
     11          1           0        6.982560   -1.343021   -0.439626
     12          7           0        2.451275   -0.445773   -0.341869
     13          8           0        2.223769   -1.592552   -0.721048
     14          8           0        1.595652    0.403959   -0.104169
     15          6           0       -6.395349    0.803987   -0.539769
     16          6           0       -6.195638   -0.541465   -0.213585
     17          6           0       -4.928577   -1.001702    0.156937
     18          6           0       -3.878942   -0.084964    0.190815
     19          6           0       -4.046132    1.261633   -0.128585
     20          6           0       -5.321851    1.699663   -0.496305
     21          1           0       -7.382995    1.152885   -0.826510
     22          1           0       -7.027488   -1.239310   -0.246468
     23          1           0       -4.745919   -2.037933    0.414386
     24          1           0       -3.197491    1.933544   -0.086618
     25          1           0       -5.474010    2.745121   -0.749107
     26          7           0       -2.532979   -0.560442    0.581586
     27          8           0       -1.624638    0.267245    0.603677
     28          8           0       -2.411839   -1.751806    0.858381
 ---------------------------------------------------------------------

 SCF Done:  E(RHF) =  -868.334372782     A.U. after   16 cycles
 E2 =    -0.2600593949D+01 EUMP2 =    -0.87093496673032D+03

 The electronic state is 1-A.
 Alpha  occ. eigenvalues --  -20.59545 -20.59478 -20.59457 -20.59365 -15.84586
 Alpha  occ. eigenvalues --  -15.84480 -11.30366 -11.30283 -11.26989 -11.26983
 Alpha  occ. eigenvalues --  -11.26911 -11.26898 -11.26816 -11.26744 -11.26103
 Alpha  occ. eigenvalues --  -11.26093 -11.26030 -11.26020  -1.58585  -1.58483
 Alpha  occ. eigenvalues --   -1.38132  -1.38026  -1.18581  -1.18501  -1.07900
 Alpha  occ. eigenvalues --   -1.07815  -1.04047  -1.03970  -0.94670  -0.94562
 Alpha  occ. eigenvalues --   -0.85426  -0.85348  -0.81511  -0.81386  -0.76476
 Alpha  occ. eigenvalues --   -0.76375  -0.70915  -0.70533  -0.69940  -0.69833
 Alpha  occ. eigenvalues --   -0.69691  -0.69610  -0.64227  -0.64138  -0.64055
 Alpha  occ. eigenvalues --   -0.63980  -0.61391  -0.61313  -0.54541  -0.54465
 Alpha  occ. eigenvalues --   -0.52354  -0.52276  -0.52147  -0.52071  -0.47771
 Alpha  occ. eigenvalues --   -0.47547  -0.47445  -0.47166  -0.43442  -0.43325
 Alpha  occ. eigenvalues --   -0.36588  -0.36509  -0.35670  -0.35594
 Alpha virt. eigenvalues --    0.06074   0.06168   0.11978   0.12054   0.17491
 Alpha virt. eigenvalues --    0.17579   0.22051   0.22122   0.27932   0.27999
 Alpha virt. eigenvalues --    0.28979   0.29060   0.31569   0.31637   0.33246

 Mulliken charges:
               1
     1  C   -0.172237
     2  C   -0.218573
     3  C   -0.171577
     4  C    0.159499
     5  C   -0.171565
     6  C   -0.218541
     7  H    0.222572
     8  H    0.220639
     9  H    0.275683
    10  H    0.275106
    11  H    0.220912
    12  N    0.486823
    13  O   -0.461282
    14  O   -0.447346
    15  C   -0.172320
    16  C   -0.218578
    17  C   -0.171579
    18  C    0.159646
    19  C   -0.171445
    20  C   -0.218634
    21  H    0.222249
    22  H    0.220597
    23  H    0.274870
    24  H    0.276301
    25  H    0.220385
    26  N    0.487128
    27  O   -0.445900
    28  O   -0.462835
 Sum of Mulliken charges =  -0.00000

 Dipole moment (field-independent basis, Debye):
    X=              0.2762    Y=              3.0577    Z=             -0.6861  Tot=              3.1459
 Quadrupole moment (field-independent basis, Debye-Ang):
   XX=            -33.1745   YY=            -97.2562   ZZ=           -106.9045
   XY=             -0.7059   XZ=              5.5873   YZ=              1.0952

 Normal termination of Gaussian 16 at Thu May  6 09:45:08 2021.
