 Gaussian 16, Revision A.03,
 Gaussian 16:  EM64L-G16RevA.03 25-Dec-2016

 -------------
 #p 6-31g* mp2
 -------------

 ------------------------------------------------------
 Input file generated by CHIRIPA (05-May-2021 14:51:09)
 ------------------------------------------------------
 Symbolic Z-matrix:
 Charge =  0 Multiplicity = 1

                         Standard orientation:
 ---------------------------------------------------------------------
 Center     Atomic      Atomic             Coordinates (Angstroms)
 Number     Number       Type             X           Y           Z
 ---------------------------------------------------------------------
      1          6           0        2.375312   -0.763458    0.567820
      2          6           0        1.888607   -2.094828   -0.005378
      3          6           0        1.766566   -3.186870    1.057798
      4          1           0        3.349017   -0.914720    1.053582
      5          1           0        1.681423   -0.435152    1.354032
      6          1           0        2.582453   -2.419838   -0.791229
      7          1           0        0.916037   -1.940340   -0.489999
      8          1           0        1.058919   -2.887788    1.837790
      9          1           0        2.734803   -3.370010    1.534848
     10          1           0        1.417171   -4.130040    0.626273
     11          6           0        2.502380    0.338203   -0.482858
     12          6           0        2.989086    1.669573    0.090340
     13          6           0        3.111127    2.761615   -0.972836
     14          1           0        3.196269    0.009896   -1.269070
     15          1           0        1.528676    0.489464   -0.968620
     16          1           0        3.961655    1.515085    0.574961
     17          1           0        2.295239    1.994583    0.876191
     18          1           0        2.142889    2.944755   -1.449886
     19          1           0        3.818773    2.462532   -1.752828
     20          1           0        3.460521    3.704785   -0.541311
     21          6           0       -2.348606    0.766380    0.475831
     22          6           0       -2.590775    2.167822   -0.085683
     23          6           0       -2.406457    3.264915    0.963223
     24          1           0       -3.034491    0.591347    1.315992
     25          1           0       -1.330970    0.714525    0.887078
     26          1           0       -3.607170    2.216601   -0.496995
     27          1           0       -1.904365    2.339466   -0.924728
     28          1           0       -1.388930    3.245039    1.366765
     29          1           0       -3.101411    3.121474    1.796929
     30          1           0       -2.584374    4.258595    0.540371
     31          6           0       -2.529087   -0.341124   -0.560793
     32          6           0       -2.286917   -1.742567    0.000722
     33          6           0       -2.471235   -2.839659   -1.048186
     34          1           0       -3.546722   -0.289270   -0.972040
     35          1           0       -1.843202   -0.166092   -1.400954
     36          1           0       -2.973328   -1.914212    0.839766
     37          1           0       -1.270522   -1.791345    0.412033
     38          1           0       -1.776281   -2.696220   -1.881891
     39          1           0       -3.488762   -2.819783   -1.451727
     40          1           0       -2.293319   -3.833340   -0.625333
 ---------------------------------------------------------------------

 SCF Done:  E(RHF) =  -470.733281872     A.U. after   11 cycles
 E2 =    -0.1584147414D+01 EUMP2 =    -0.47231742928656D+03

 The electronic state is 1-A.
 Alpha  occ. eigenvalues --  -11.21662 -11.21661 -11.21629 -11.21613 -11.21473
 Alpha  occ. eigenvalues --  -11.21470 -11.21413 -11.21410 -11.21118 -11.21116
 Alpha  occ. eigenvalues --  -11.21105 -11.21099  -1.08528  -1.08453  -1.03627
 Alpha  occ. eigenvalues --   -1.03532  -0.96052  -0.96002  -0.87048  -0.87036
 Alpha  occ. eigenvalues --   -0.79681  -0.79603  -0.78313  -0.78294  -0.65449
 Alpha  occ. eigenvalues --   -0.64833  -0.61309  -0.60673  -0.59411  -0.59365
 Alpha  occ. eigenvalues --   -0.57654  -0.57616  -0.55456  -0.55175  -0.52727
 Alpha  occ. eigenvalues --   -0.52703  -0.52477  -0.52421  -0.49982  -0.49959
 Alpha  occ. eigenvalues --   -0.48076  -0.47859  -0.46818  -0.46542  -0.46017
 Alpha  occ. eigenvalues --   -0.45827  -0.45723  -0.45578  -0.43847  -0.43819
 Alpha virt. eigenvalues --    0.18504   0.22061   0.23508   0.24940   0.25600
 Alpha virt. eigenvalues --    0.26519   0.26762   0.28090   0.28801   0.29963
 Alpha virt. eigenvalues --    0.31031   0.31476   0.31637   0.31831   0.32195

 Mulliken charges:
               1
     1  C   -0.299573
     2  C   -0.305522
     3  C   -0.476685
     4  H    0.150306
     5  H    0.149819
     6  H    0.152655
     7  H    0.156857
     8  H    0.155892
     9  H    0.155499
    10  H    0.160833
    11  C   -0.299043
    12  C   -0.299683
    13  C   -0.475692
    14  H    0.149972
    15  H    0.149486
    16  H    0.152353
    17  H    0.151481
    18  H    0.155006
    19  H    0.155355
    20  H    0.160620
    21  C   -0.299635
    22  C   -0.299618
    23  C   -0.475716
    24  H    0.150088
    25  H    0.149731
    26  H    0.152350
    27  H    0.151536
    28  H    0.154925
    29  H    0.155372
    30  H    0.160626
    31  C   -0.299006
    32  C   -0.306732
    33  C   -0.476319
    34  H    0.150127
    35  H    0.149466
    36  H    0.152425
    37  H    0.158717
    38  H    0.155512
    39  H    0.155439
    40  H    0.160772
 Sum of Mulliken charges =  -0.00000

 Dipole moment (field-independent basis, Debye):
    X=              0.0026    Y=             -0.0131    Z=              0.0024  Tot=              0.0136
 Quadrupole moment (field-independent basis, Debye-Ang):
   XX=            -82.7409   YY=            -86.2346   ZZ=            -85.5453
   XY=             -0.4236   XZ=             -0.3946   YZ=              0.0245

 Normal termination of Gaussian 16 at Wed May  5 23:00:32 2021.
