 Gaussian 16, Revision A.03,
 Gaussian 16:  EM64L-G16RevA.03 25-Dec-2016

 -------------
 #p 6-31g* mp2
 -------------

 ------------------------------------------------------
 Input file generated by CHIRIPA (05-May-2021 14:55:22)
 ------------------------------------------------------
 Symbolic Z-matrix:
 Charge =  0 Multiplicity = 1

                         Standard orientation:
 ---------------------------------------------------------------------
 Center     Atomic      Atomic             Coordinates (Angstroms)
 Number     Number       Type             X           Y           Z
 ---------------------------------------------------------------------
      1          6           0        1.001667    0.513697    2.015559
      2          6           0        2.132428    1.322111    1.859460
      3          6           0        3.074839    1.040569    0.865909
      4          6           0        2.853954   -0.062260    0.042339
      5          6           0        1.737383   -0.886581    0.172931
      6          6           0        0.808095   -0.586130    1.173281
      7          1           0        0.274676    0.739750    2.790014
      8          1           0        2.285351    2.176903    2.512139
      9          1           0        3.959091    1.649758    0.723062
     10          1           0        1.612254   -1.731815   -0.492907
     11          1           0       -0.069141   -1.215701    1.292204
     12          7           0        3.844696   -0.370325   -1.013088
     13          8           0        3.627037   -1.347714   -1.725809
     14          8           0        4.820140    0.371436   -1.107625
     15          6           0       -3.270177   -0.575285    0.176046
     16          6           0       -3.717625   -1.924553   -0.387207
     17          6           0       -3.362703   -3.095130    0.530165
     18          1           0       -2.184449   -0.596467    0.342458
     19          1           0       -3.734408   -0.424654    1.160523
     20          1           0       -3.253781   -2.071975   -1.370941
     21          1           0       -4.802384   -1.900091   -0.552477
     22          1           0       -3.837748   -2.975085    1.509206
     23          1           0       -2.280345   -3.147944    0.686092
     24          1           0       -3.691671   -4.049918    0.108241
     25          6           0       -3.617932    0.604692   -0.729738
     26          6           0       -3.170483    1.953959   -0.166484
     27          6           0       -3.525405    3.124537   -1.083857
     28          1           0       -3.153700    0.454061   -1.714216
     29          1           0       -4.703658    0.625873   -0.896150
     30          1           0       -2.085724    1.929498   -0.001215
     31          1           0       -3.634327    2.101382    0.817249
     32          1           0       -4.607763    3.177352   -1.239785
     33          1           0       -3.050360    3.004492   -2.062899
     34          1           0       -3.196437    4.079325   -0.661933
 ---------------------------------------------------------------------

 SCF Done:  E(RHF) =  -669.535581198     A.U. after   15 cycles
 E2 =    -0.2091915298D+01 EUMP2 =    -0.67162749649643D+03

 The electronic state is 1-A.
 Alpha  occ. eigenvalues --  -20.60793 -20.60788 -15.85847 -11.31226 -11.27800
 Alpha  occ. eigenvalues --  -11.27796 -11.27540 -11.26807 -11.26789 -11.22292
 Alpha  occ. eigenvalues --  -11.22165 -11.22139 -11.21945 -11.21882 -11.21482
 Alpha  occ. eigenvalues --   -1.59868  -1.39421  -1.19402  -1.09091  -1.08789
 Alpha  occ. eigenvalues --   -1.04808  -1.04154  -0.96610  -0.95622  -0.87623
 Alpha  occ. eigenvalues --   -0.86204  -0.82457  -0.80221  -0.78927  -0.77498
 Alpha  occ. eigenvalues --   -0.72065  -0.71192  -0.70497  -0.65778  -0.65051
 Alpha  occ. eigenvalues --   -0.64774  -0.62173  -0.61525  -0.59977  -0.58221
 Alpha  occ. eigenvalues --   -0.55912  -0.55293  -0.53287  -0.53144  -0.53050
 Alpha  occ. eigenvalues --   -0.52885  -0.50552  -0.48835  -0.48819  -0.48528
 Alpha  occ. eigenvalues --   -0.47246  -0.46439  -0.46350  -0.44824  -0.44412
 Alpha  occ. eigenvalues --   -0.37366  -0.36395
 Alpha virt. eigenvalues --    0.05029   0.11107   0.16465   0.19479   0.22720
 Alpha virt. eigenvalues --    0.23330   0.25274   0.26521   0.27063   0.28255
 Alpha virt. eigenvalues --    0.29067   0.29872   0.31173   0.31459   0.32187

 Mulliken charges:
               1
     1  C   -0.172225
     2  C   -0.218670
     3  C   -0.170647
     4  C    0.158598
     5  C   -0.172685
     6  C   -0.221514
     7  H    0.227195
     8  H    0.223727
     9  H    0.275822
    10  H    0.275619
    11  H    0.229352
    12  N    0.488104
    13  O   -0.460352
    14  O   -0.460312
    15  C   -0.303852
    16  C   -0.300593
    17  C   -0.476504
    18  H    0.145207
    19  H    0.148458
    20  H    0.154976
    21  H    0.155520
    22  H    0.156158
    23  H    0.147447
    24  H    0.165456
    25  C   -0.297875
    26  C   -0.301769
    27  C   -0.475945
    28  H    0.152871
    29  H    0.151826
    30  H    0.152372
    31  H    0.149646
    32  H    0.156178
    33  H    0.157906
    34  H    0.160503
 Sum of Mulliken charges =  -0.00000

 Dipole moment (field-independent basis, Debye):
    X=             -3.5900    Y=              1.1126    Z=              3.6505  Tot=              5.2395
 Quadrupole moment (field-independent basis, Debye-Ang):
   XX=           -112.4170   YY=            -92.7803   ZZ=            -94.6952
   XY=              6.0917   XZ=             11.1913   YZ=              1.7606

 Normal termination of Gaussian 16 at Thu May  6 20:48:08 2021.
