 Gaussian 16, Revision A.03,
 Gaussian 16:  EM64L-G16RevA.03 25-Dec-2016

 -------------
 #p 6-31g* mp2
 -------------

 ------------------------------------------------------
 Input file generated by CHIRIPA (05-May-2021 14:51:10)
 ------------------------------------------------------
 Symbolic Z-matrix:
 Charge =  0 Multiplicity = 1

                         Standard orientation:
 ---------------------------------------------------------------------
 Center     Atomic      Atomic             Coordinates (Angstroms)
 Number     Number       Type             X           Y           Z
 ---------------------------------------------------------------------
      1          6           0       -3.574175   -0.627403   -0.202606
      2          6           0       -5.055768   -0.819872    0.122698
      3          6           0       -5.386687   -2.250902    0.547481
      4          1           0       -3.287282   -1.324307   -1.001957
      5          1           0       -2.974563   -0.897511    0.677678
      6          1           0       -5.652479   -0.548160   -0.757486
      7          1           0       -5.339215   -0.122295    0.921235
      8          1           0       -4.816551   -2.529528    1.439621
      9          1           0       -5.131596   -2.957813   -0.248638
     10          1           0       -6.450961   -2.366111    0.775311
     11          6           0       -3.227733    0.798079   -0.628878
     12          6           0       -1.746140    0.990548   -0.954183
     13          6           0       -1.415222    2.421578   -1.378965
     14          1           0       -3.827345    1.068187   -1.509163
     15          1           0       -3.514627    1.494983    0.170472
     16          1           0       -1.462694    0.292971   -1.752719
     17          1           0       -1.149429    0.718836   -0.073998
     18          1           0       -1.670313    3.128489   -0.582846
     19          1           0       -1.985357    2.700204   -2.271105
     20          1           0       -0.350947    2.536787   -1.606795
     21          6           0        3.101140    0.530005    0.754705
     22          6           0        1.688777    0.298170    1.292728
     23          6           0        1.102471    1.538327    1.968041
     24          1           0        3.754490    0.842961    1.580621
     25          1           0        3.081111    1.363491    0.038956
     26          1           0        1.711216   -0.535531    2.006209
     27          1           0        1.038757   -0.014456    0.465469
     28          1           0        1.051050    2.373451    1.261979
     29          1           0        1.727329    1.849415    2.811473
     30          1           0        0.092423    1.350341    2.345302
     31          6           0        3.700769   -0.700681    0.076780
     32          6           0        5.113131   -0.468846   -0.461243
     33          6           0        5.699438   -1.709004   -1.136557
     34          1           0        3.720797   -1.534166    0.792529
     35          1           0        3.047419   -1.013636   -0.749137
     36          1           0        5.763152   -0.156222    0.366015
     37          1           0        5.090692    0.364854   -1.174725
     38          1           0        5.074579   -2.020091   -1.979988
     39          1           0        5.750859   -2.544128   -0.430494
     40          1           0        6.709485   -1.521017   -1.513818
 ---------------------------------------------------------------------

 SCF Done:  E(RHF) =  -470.733024097     A.U. after   11 cycles
 E2 =    -0.1583367485D+01 EUMP2 =    -0.47231639158260D+03

 The electronic state is 1-A.
 Alpha  occ. eigenvalues --  -11.21603 -11.21601 -11.21580 -11.21565 -11.21405
 Alpha  occ. eigenvalues --  -11.21404 -11.21346 -11.21344 -11.21094 -11.21089
 Alpha  occ. eigenvalues --  -11.21071 -11.21071  -1.08457  -1.08407  -1.03592
 Alpha  occ. eigenvalues --   -1.03479  -0.96024  -0.95949  -0.87011  -0.86991
 Alpha  occ. eigenvalues --   -0.79675  -0.79533  -0.78310  -0.78179  -0.65191
 Alpha  occ. eigenvalues --   -0.64961  -0.61196  -0.60722  -0.59409  -0.59279
 Alpha  occ. eigenvalues --   -0.57647  -0.57545  -0.55396  -0.55127  -0.52691
 Alpha  occ. eigenvalues --   -0.52674  -0.52432  -0.52389  -0.49987  -0.49863
 Alpha  occ. eigenvalues --   -0.48020  -0.47851  -0.46818  -0.46472  -0.45926
 Alpha  occ. eigenvalues --   -0.45752  -0.45743  -0.45438  -0.43792  -0.43782
 Alpha virt. eigenvalues --    0.20696   0.23018   0.23614   0.25316   0.26161
 Alpha virt. eigenvalues --    0.26309   0.26785   0.27757   0.28007   0.29149
 Alpha virt. eigenvalues --    0.30793   0.31039   0.31448   0.31901   0.32603

 Mulliken charges:
               1
     1  C   -0.298351
     2  C   -0.299639
     3  C   -0.475711
     4  H    0.149592
     5  H    0.149321
     6  H    0.151966
     7  H    0.151939
     8  H    0.155202
     9  H    0.155179
    10  H    0.160258
    11  C   -0.297618
    12  C   -0.309182
    13  C   -0.475365
    14  H    0.149379
    15  H    0.149580
    16  H    0.150799
    17  H    0.163205
    18  H    0.155789
    19  H    0.155126
    20  H    0.159154
    21  C   -0.297672
    22  C   -0.306036
    23  C   -0.477750
    24  H    0.149590
    25  H    0.149231
    26  H    0.151734
    27  H    0.157799
    28  H    0.157705
    29  H    0.155716
    30  H    0.158951
    31  C   -0.298445
    32  C   -0.299659
    33  C   -0.475710
    34  H    0.149547
    35  H    0.149915
    36  H    0.151940
    37  H    0.151895
    38  H    0.155183
    39  H    0.155190
    40  H    0.160251
 Sum of Mulliken charges =  -0.00000

 Dipole moment (field-independent basis, Debye):
    X=              0.0026    Y=              0.0009    Z=              0.0063  Tot=              0.0069
 Quadrupole moment (field-independent basis, Debye-Ang):
   XX=            -85.1289   YY=            -86.2786   ZZ=            -83.4375
   XY=             -0.0146   XZ=              0.9310   YZ=             -0.1060

 Normal termination of Gaussian 16 at Thu May  6 00:36:57 2021.
