 Gaussian 16, Revision A.03,
 Gaussian 16:  EM64L-G16RevA.03 25-Dec-2016

 -------------
 #p 6-31g* mp2
 -------------

 ------------------------------------------------------
 Input file generated by CHIRIPA (05-May-2021 14:53:13)
 ------------------------------------------------------
 Symbolic Z-matrix:
 Charge =  0 Multiplicity = 1

                         Standard orientation:
 ---------------------------------------------------------------------
 Center     Atomic      Atomic             Coordinates (Angstroms)
 Number     Number       Type             X           Y           Z
 ---------------------------------------------------------------------
      1          6           0        3.622128   -0.472631    0.341181
      2          6           0        2.276809    0.236994    0.497809
      3          6           0        1.126084   -0.731504    0.772834
      4          1           0        3.551540   -1.202246   -0.477125
      5          1           0        3.834663   -1.046275    1.253955
      6          1           0        2.067525    0.810239   -0.414444
      7          1           0        2.350664    0.965140    1.315711
      8          1           0        1.308442   -1.294854    1.693694
      9          1           0        1.023693   -1.450635   -0.046292
     10          1           0        0.173816   -0.203045    0.881360
     11          6           0        4.782315    0.482289    0.065822
     12          6           0        6.127635   -0.227336   -0.090806
     13          6           0        7.278359    0.741162   -0.365832
     14          1           0        4.569780    1.055933   -0.846952
     15          1           0        4.852903    1.211904    0.884128
     16          1           0        6.053779   -0.955482   -0.908708
     17          1           0        6.336918   -0.800582    0.821447
     18          1           0        7.380750    1.460293    0.453294
     19          1           0        7.096002    1.304512   -1.286691
     20          1           0        8.230627    0.212703   -0.474357
     21          6           0       -4.035802    2.393591    0.068692
     22          6           0       -2.815228    2.098692   -0.547547
     23          6           0       -2.388077    0.774017   -0.679181
     24          6           0       -3.210206   -0.235541   -0.180996
     25          6           0       -4.431557    0.026234    0.437927
     26          6           0       -4.838657    1.358246    0.558599
     27          1           0       -4.359836    3.425480    0.166691
     28          1           0       -2.189666    2.900722   -0.928948
     29          1           0       -1.447792    0.517445   -1.151888
     30          1           0       -5.033488   -0.794691    0.808303
     31          1           0       -5.787058    1.584305    1.037637
     32          7           0       -2.768615   -1.641799   -0.314549
     33          8           0       -3.511198   -2.513134    0.132644
     34          8           0       -1.688274   -1.846060   -0.863893
 ---------------------------------------------------------------------

 SCF Done:  E(RHF) =  -669.535309239     A.U. after   15 cycles
 E2 =    -0.2092161961D+01 EUMP2 =    -0.67162747119986D+03

 The electronic state is 1-A.
 Alpha  occ. eigenvalues --  -20.60825 -20.60800 -15.85850 -11.31230 -11.27791
 Alpha  occ. eigenvalues --  -11.27781 -11.27537 -11.26814 -11.26803 -11.21418
 Alpha  occ. eigenvalues --  -11.21290 -11.21189 -11.21061 -11.20944 -11.20318
 Alpha  occ. eigenvalues --   -1.59879  -1.39434  -1.19401  -1.08793  -1.08166
 Alpha  occ. eigenvalues --   -1.04803  -1.03225  -0.95699  -0.95572  -0.86654
 Alpha  occ. eigenvalues --   -0.86195  -0.82463  -0.79297  -0.77988  -0.77498
 Alpha  occ. eigenvalues --   -0.72086  -0.71198  -0.70507  -0.65057  -0.64827
 Alpha  occ. eigenvalues --   -0.64776  -0.62164  -0.60611  -0.59044  -0.57280
 Alpha  occ. eigenvalues --   -0.55303  -0.54902  -0.53154  -0.52910  -0.52314
 Alpha  occ. eigenvalues --   -0.52038  -0.49579  -0.48842  -0.48805  -0.47596
 Alpha  occ. eigenvalues --   -0.46343  -0.45524  -0.45467  -0.44782  -0.43434
 Alpha  occ. eigenvalues --   -0.37375  -0.36394
 Alpha virt. eigenvalues --    0.05010   0.11147   0.16488   0.21085   0.23070
 Alpha virt. eigenvalues --    0.24290   0.26703   0.27252   0.27780   0.27898
 Alpha virt. eigenvalues --    0.28997   0.31026   0.31694   0.31796   0.32103

 Mulliken charges:
               1
     1  C   -0.298172
     2  C   -0.300569
     3  C   -0.477362
     4  H    0.152380
     5  H    0.150316
     6  H    0.143818
     7  H    0.147862
     8  H    0.153813
     9  H    0.175836
    10  H    0.150668
    11  C   -0.297705
    12  C   -0.299597
    13  C   -0.475507
    14  H    0.147557
    15  H    0.148097
    16  H    0.152811
    17  H    0.152257
    18  H    0.154360
    19  H    0.154350
    20  H    0.160146
    21  C   -0.170729
    22  C   -0.219510
    23  C   -0.172032
    24  C    0.158345
    25  C   -0.170903
    26  C   -0.218355
    27  H    0.225798
    28  H    0.224004
    29  H    0.278629
    30  H    0.275755
    31  H    0.223640
    32  N    0.489502
    33  O   -0.460092
    34  O   -0.459411
 Sum of Mulliken charges =  -0.00000

 Dipole moment (field-independent basis, Debye):
    X=             -1.6788    Y=              4.8069    Z=              0.4191  Tot=              5.1089
 Quadrupole moment (field-independent basis, Debye-Ang):
   XX=            -82.5736   YY=            -97.3793   ZZ=            -93.7060
   XY=            -15.1445   XZ=             -3.1878   YZ=             -1.6094

 Normal termination of Gaussian 16 at Wed May  5 18:34:40 2021.
