 Gaussian 16, Revision A.03,
 Gaussian 16:  EM64L-G16RevA.03 25-Dec-2016

 -------------
 #p 6-31g* mp2
 -------------

 ------------------------------------------------------
 Input file generated by CHIRIPA (05-May-2021 14:57:26)
 ------------------------------------------------------
 Symbolic Z-matrix:
 Charge =  0 Multiplicity = 1

                         Standard orientation:
 ---------------------------------------------------------------------
 Center     Atomic      Atomic             Coordinates (Angstroms)
 Number     Number       Type             X           Y           Z
 ---------------------------------------------------------------------
      1          6           0       -2.010100    2.110526    0.978575
      2          6           0       -1.437211    0.853490    1.198073
      3          6           0       -2.082187   -0.306993    0.760085
      4          6           0       -3.304330   -0.173044    0.103036
      5          6           0       -3.900641    1.065140   -0.130640
      6          6           0       -3.237822    2.212160    0.316087
      7          1           0       -1.502137    3.006787    1.322209
      8          1           0       -0.483845    0.771536    1.712292
      9          1           0       -1.661200   -1.292707    0.916790
     10          1           0       -4.852043    1.114978   -0.646168
     11          1           0       -3.685096    3.187074    0.144236
     12          7           0       -3.996582   -1.394469   -0.365268
     13          8           0       -5.072414   -1.249562   -0.941657
     14          8           0       -3.450229   -2.473600   -0.147068
     15          6           0        2.360875    2.285932   -0.748186
     16          6           0        3.713848    2.078278   -0.460322
     17          6           0        4.184513    0.800322   -0.144329
     18          6           0        3.270419   -0.251990   -0.125310
     19          6           0        1.916509   -0.077073   -0.407485
     20          6           0        1.468098    1.209491   -0.720897
     21          1           0        2.003895    3.282022   -0.992654
     22          1           0        4.409466    2.912390   -0.480760
     23          1           0        5.226726    0.611350    0.082609
     24          1           0        1.247055   -0.928218   -0.379150
     25          1           0        0.416815    1.367800   -0.944026
     26          7           0        3.756912   -1.609461    0.207852
     27          8           0        2.931354   -2.519951    0.217887
     28          8           0        4.954569   -1.737254    0.452639
 ---------------------------------------------------------------------

 SCF Done:  E(RHF) =  -868.336456592     A.U. after   16 cycles
 E2 =    -0.2602406617D+01 EUMP2 =    -0.87093886320816D+03

 The electronic state is 1-A.
 Alpha  occ. eigenvalues --  -20.61237 -20.61222 -20.61161 -20.61156 -15.86291
 Alpha  occ. eigenvalues --  -15.86215 -11.31894 -11.31714 -11.28436 -11.28428
 Alpha  occ. eigenvalues --  -11.28259 -11.28239 -11.28239 -11.28012 -11.27539
 Alpha  occ. eigenvalues --  -11.27479 -11.27310 -11.27202  -1.60305  -1.60235
 Alpha  occ. eigenvalues --   -1.39850  -1.39785  -1.20092  -1.19875  -1.09448
 Alpha  occ. eigenvalues --   -1.09245  -1.05548  -1.05244  -0.96229  -0.96066
 Alpha  occ. eigenvalues --   -0.86914  -0.86637  -0.83074  -0.82853  -0.78100
 Alpha  occ. eigenvalues --   -0.77864  -0.72499  -0.72424  -0.71636  -0.71565
 Alpha  occ. eigenvalues --   -0.71173  -0.70974  -0.65727  -0.65580  -0.65463
 Alpha  occ. eigenvalues --   -0.65202  -0.62906  -0.62531  -0.55991  -0.55795
 Alpha  occ. eigenvalues --   -0.54053  -0.53729  -0.53418  -0.53146  -0.49279
 Alpha  occ. eigenvalues --   -0.49244  -0.49195  -0.49180  -0.45203  -0.45161
 Alpha  occ. eigenvalues --   -0.38205  -0.37837  -0.37356  -0.36562
 Alpha virt. eigenvalues --    0.04363   0.04627   0.10151   0.11066   0.15682
 Alpha virt. eigenvalues --    0.16216   0.20220   0.21390   0.25492   0.27086
 Alpha virt. eigenvalues --    0.27196   0.28716   0.30372   0.30725   0.31402

 Mulliken charges:
               1
     1  C   -0.178064
     2  C   -0.225784
     3  C   -0.179239
     4  C    0.160433
     5  C   -0.171152
     6  C   -0.218183
     7  H    0.226054
     8  H    0.231838
     9  H    0.281362
    10  H    0.278120
    11  H    0.225310
    12  N    0.487643
    13  O   -0.458678
    14  O   -0.456033
    15  C   -0.175001
    16  C   -0.217642
    17  C   -0.171470
    18  C    0.160283
    19  C   -0.179823
    20  C   -0.224654
    21  H    0.224076
    22  H    0.224627
    23  H    0.277190
    24  H    0.275868
    25  H    0.232518
    26  N    0.487690
    27  O   -0.458628
    28  O   -0.458662
 Sum of Mulliken charges =  -0.00000

 Dipole moment (field-independent basis, Debye):
    X=              0.6236    Y=              8.9866    Z=              0.4849  Tot=              9.0213
 Quadrupole moment (field-independent basis, Debye-Ang):
   XX=           -124.4979   YY=           -107.3558   ZZ=           -104.9085
   XY=              1.0028   XZ=             -6.8123   YZ=             -1.1058

 Normal termination of Gaussian 16 at Thu May  6 03:37:17 2021.
