 Gaussian 16, Revision A.03,
 Gaussian 16:  EM64L-G16RevA.03 25-Dec-2016

 -------------
 #p 6-31g* mp2
 -------------

 ------------------------------------------------------
 Input file generated by CHIRIPA (05-May-2021 14:53:13)
 ------------------------------------------------------
 Symbolic Z-matrix:
 Charge =  0 Multiplicity = 1

                         Standard orientation:
 ---------------------------------------------------------------------
 Center     Atomic      Atomic             Coordinates (Angstroms)
 Number     Number       Type             X           Y           Z
 ---------------------------------------------------------------------
      1          6           0        2.864913    0.828607   -0.652792
      2          6           0        2.817344    2.012809    0.313328
      3          6           0        2.342784    3.303041   -0.355916
      4          1           0        3.530362    1.074453   -1.491649
      5          1           0        1.865197    0.673982   -1.081808
      6          1           0        3.816539    2.164286    0.741442
      7          1           0        2.152081    1.764041    1.150081
      8          1           0        1.336456    3.175747   -0.767865
      9          1           0        3.010371    3.578265   -1.178825
     10          1           0        2.316317    4.136659    0.352773
     11          6           0        3.337444   -0.468442    0.001506
     12          6           0        3.385013   -1.652644   -0.964614
     13          6           0        3.859574   -2.942876   -0.295370
     14          1           0        4.337160   -0.313817    0.430522
     15          1           0        2.671995   -0.714288    0.840364
     16          1           0        4.050276   -1.403876   -1.801367
     17          1           0        2.385818   -1.804121   -1.392728
     18          1           0        3.191986   -3.218100    0.527540
     19          1           0        4.865901   -2.815582    0.116579
     20          1           0        3.886040   -3.776494   -1.004059
     21          6           0       -0.243504   -0.140174    1.525869
     22          6           0       -0.927499   -1.340974    1.309651
     23          6           0       -2.135798   -1.353158    0.606507
     24          6           0       -2.633481   -0.140739    0.131488
     25          6           0       -1.975477    1.071952    0.330731
     26          6           0       -0.768750    1.060341    1.036581
     27          1           0        0.694521   -0.139952    2.073139
     28          1           0       -0.521957   -2.274820    1.688485
     29          1           0       -2.686039   -2.268391    0.424842
     30          1           0       -2.404721    1.986954   -0.059064
     31          1           0       -0.239721    1.994406    1.203002
     32          7           0       -3.911822   -0.141041   -0.614331
     33          8           0       -4.329191    0.940525   -1.022562
     34          8           0       -4.472210   -1.222840   -0.776551
 ---------------------------------------------------------------------

 SCF Done:  E(RHF) =  -669.534093921     A.U. after   15 cycles
 E2 =    -0.2094655613D+01 EUMP2 =    -0.67162874953442D+03

 The electronic state is 1-A.
 Alpha  occ. eigenvalues --  -20.60805 -20.60800 -15.85859 -11.31245 -11.27820
 Alpha  occ. eigenvalues --  -11.27813 -11.27538 -11.26838 -11.26793 -11.22664
 Alpha  occ. eigenvalues --  -11.22293 -11.22235 -11.22137 -11.22021 -11.21754
 Alpha  occ. eigenvalues --   -1.59880  -1.39433  -1.19426  -1.09313  -1.08795
 Alpha  occ. eigenvalues --   -1.04839  -1.04375  -0.96817  -0.95650  -0.87830
 Alpha  occ. eigenvalues --   -0.86231  -0.82481  -0.80453  -0.79107  -0.77521
 Alpha  occ. eigenvalues --   -0.72079  -0.71204  -0.70597  -0.66080  -0.65073
 Alpha  occ. eigenvalues --   -0.64731  -0.62358  -0.61563  -0.60180  -0.58428
 Alpha  occ. eigenvalues --   -0.56217  -0.55256  -0.53502  -0.53240  -0.53126
 Alpha  occ. eigenvalues --   -0.52891  -0.50774  -0.48857  -0.48832  -0.48734
 Alpha  occ. eigenvalues --   -0.47501  -0.46630  -0.46505  -0.44834  -0.44616
 Alpha  occ. eigenvalues --   -0.37363  -0.36421
 Alpha virt. eigenvalues --    0.04977   0.11104   0.16334   0.19391   0.22655
 Alpha virt. eigenvalues --    0.23194   0.25006   0.26197   0.26746   0.27788
 Alpha virt. eigenvalues --    0.30050   0.30381   0.30903   0.31382   0.31559

 Mulliken charges:
               1
     1  C   -0.301492
     2  C   -0.301332
     3  C   -0.479788
     4  H    0.153836
     5  H    0.156714
     6  H    0.156379
     7  H    0.138112
     8  H    0.154470
     9  H    0.161926
    10  H    0.160874
    11  C   -0.298274
    12  C   -0.301176
    13  C   -0.475112
    14  H    0.151250
    15  H    0.139176
    16  H    0.155127
    17  H    0.155487
    18  H    0.149710
    19  H    0.156629
    20  H    0.163650
    21  C   -0.170290
    22  C   -0.220148
    23  C   -0.170800
    24  C    0.158593
    25  C   -0.172823
    26  C   -0.221981
    27  H    0.228239
    28  H    0.223682
    29  H    0.275922
    30  H    0.275976
    31  H    0.229838
    32  N    0.488053
    33  O   -0.460176
    34  O   -0.460249
 Sum of Mulliken charges =  -0.00000

 Dipole moment (field-independent basis, Debye):
    X=              4.5988    Y=              0.0071    Z=              2.4648  Tot=              5.2177
 Quadrupole moment (field-independent basis, Debye-Ang):
   XX=           -117.9444   YY=            -90.5991   ZZ=            -94.8008
   XY=              0.3702   XZ=             -7.2375   YZ=             -0.8084

 Normal termination of Gaussian 16 at Thu May  6 17:02:54 2021.
