 Gaussian 16, Revision A.03,
 Gaussian 16:  EM64L-G16RevA.03 25-Dec-2016

 -------------
 #p 6-31g* mp2
 -------------

 ------------------------------------------------------
 Input file generated by CHIRIPA (05-May-2021 14:55:20)
 ------------------------------------------------------
 Symbolic Z-matrix:
 Charge =  0 Multiplicity = 1

                         Standard orientation:
 ---------------------------------------------------------------------
 Center     Atomic      Atomic             Coordinates (Angstroms)
 Number     Number       Type             X           Y           Z
 ---------------------------------------------------------------------
      1          6           0        1.130343    2.741313    0.203468
      2          6           0        1.761793    2.370607   -0.988324
      3          6           0        2.474860    1.170897   -1.070659
      4          6           0        2.536275    0.362245    0.063184
      5          6           0        1.917843    0.704006    1.264862
      6          6           0        1.210242    1.908297    1.324282
      7          1           0        0.578538    3.675056    0.258527
      8          1           0        1.701425    3.015567   -1.860349
      9          1           0        2.973147    0.859571   -1.980716
     10          1           0        1.995749    0.040317    2.117427
     11          1           0        0.720838    2.193641    2.251162
     12          7           0        3.288273   -0.910260   -0.011850
     13          8           0        3.327413   -1.605156    1.001177
     14          8           0        3.824311   -1.188658   -1.082269
     15          6           0       -3.810443   -0.626154    0.126851
     16          6           0       -4.419958    0.677583   -0.389624
     17          6           0       -5.866016    0.875345    0.066011
     18          1           0       -4.423226   -1.471069   -0.216020
     19          1           0       -3.854184   -0.633552    1.224771
     20          1           0       -4.373822    0.683126   -1.486190
     21          1           0       -3.805545    1.519478   -0.045644
     22          1           0       -5.926135    0.896037    1.158969
     23          1           0       -6.497642    0.054934   -0.289763
     24          1           0       -6.282099    1.813410   -0.314471
     25          6           0       -2.365139   -0.838086   -0.320261
     26          6           0       -1.755623   -2.141823    0.196215
     27          6           0       -0.309566   -2.339585   -0.259420
     28          1           0       -2.321397   -0.830688   -1.418180
     29          1           0       -1.752355    0.006828    0.022611
     30          1           0       -2.370037   -2.983719   -0.147766
     31          1           0       -1.801759   -2.147367    1.292781
     32          1           0        0.322061   -1.519175    0.096353
     33          1           0       -0.249446   -2.360278   -1.352379
     34          1           0        0.106518   -3.277651    0.121061
 ---------------------------------------------------------------------

 SCF Done:  E(RHF) =  -669.535091229     A.U. after   15 cycles
 E2 =    -0.2093375536D+01 EUMP2 =    -0.67162846676517D+03

 The electronic state is 1-A.
 Alpha  occ. eigenvalues --  -20.60791 -20.60785 -15.85831 -11.31228 -11.27818
 Alpha  occ. eigenvalues --  -11.27803 -11.27579 -11.26868 -11.26832 -11.21854
 Alpha  occ. eigenvalues --  -11.21520 -11.21483 -11.21385 -11.21313 -11.20693
 Alpha  occ. eigenvalues --   -1.59855  -1.39409  -1.19433  -1.08817  -1.08500
 Alpha  occ. eigenvalues --   -1.04838  -1.03555  -0.95988  -0.95639  -0.87008
 Alpha  occ. eigenvalues --   -0.86230  -0.82470  -0.79642  -0.78310  -0.77509
 Alpha  occ. eigenvalues --   -0.72058  -0.71190  -0.70529  -0.65146  -0.65076
 Alpha  occ. eigenvalues --   -0.64834  -0.62180  -0.60970  -0.59363  -0.57604
 Alpha  occ. eigenvalues --   -0.55369  -0.55279  -0.53229  -0.52924  -0.52643
 Alpha  occ. eigenvalues --   -0.52374  -0.49948  -0.48821  -0.48810  -0.47938
 Alpha  occ. eigenvalues --   -0.46698  -0.45837  -0.45777  -0.44767  -0.43792
 Alpha  occ. eigenvalues --   -0.37361  -0.36422
 Alpha virt. eigenvalues --    0.05017   0.11141   0.16502   0.21335   0.22750
 Alpha virt. eigenvalues --    0.24288   0.26463   0.27260   0.27370   0.27830
 Alpha virt. eigenvalues --    0.28357   0.30774   0.31361   0.31730   0.32143

 Mulliken charges:
               1
     1  C   -0.171061
     2  C   -0.217708
     3  C   -0.170786
     4  C    0.158264
     5  C   -0.174827
     6  C   -0.217401
     7  H    0.226083
     8  H    0.223930
     9  H    0.276034
    10  H    0.276012
    11  H    0.223880
    12  N    0.492364
    13  O   -0.459840
    14  O   -0.459737
    15  C   -0.298001
    16  C   -0.298553
    17  C   -0.475556
    18  H    0.150961
    19  H    0.148135
    20  H    0.152130
    21  H    0.147272
    22  H    0.154701
    23  H    0.156663
    24  H    0.159317
    25  C   -0.299253
    26  C   -0.299634
    27  C   -0.479565
    28  H    0.149184
    29  H    0.147787
    30  H    0.152357
    31  H    0.149737
    32  H    0.152982
    33  H    0.155134
    34  H    0.168995
 Sum of Mulliken charges =  -0.00000

 Dipole moment (field-independent basis, Debye):
    X=             -2.5376    Y=              4.4450    Z=              0.2348  Tot=              5.1237
 Quadrupole moment (field-independent basis, Debye-Ang):
   XX=           -109.8581   YY=            -91.5353   ZZ=            -89.5598
   XY=             11.2232   XZ=             -0.2154   YZ=             -0.3395

 Normal termination of Gaussian 16 at Wed May  5 17:25:12 2021.
