 Gaussian 16, Revision A.03,
 Gaussian 16:  EM64L-G16RevA.03 25-Dec-2016

 -------------
 #p 6-31g* mp2
 -------------

 ------------------------------------------------------
 Input file generated by CHIRIPA (05-May-2021 14:57:24)
 ------------------------------------------------------
 Symbolic Z-matrix:
 Charge =  0 Multiplicity = 1

                         Standard orientation:
 ---------------------------------------------------------------------
 Center     Atomic      Atomic             Coordinates (Angstroms)
 Number     Number       Type             X           Y           Z
 ---------------------------------------------------------------------
      1          6           0        4.870705    1.429758   -0.468683
      2          6           0        5.191337    0.220122    0.156215
      3          6           0        4.219648   -0.770535    0.326406
      4          6           0        2.931573   -0.516942   -0.142469
      5          6           0        2.581178    0.677991   -0.769087
      6          6           0        3.568944    1.654435   -0.928529
      7          1           0        5.631782    2.193804   -0.596716
      8          1           0        6.201479    0.042884    0.514329
      9          1           0        4.440568   -1.716046    0.806637
     10          1           0        1.565542    0.825685   -1.115625
     11          1           0        3.317075    2.592906   -1.414204
     12          7           0        1.894379   -1.558183    0.032015
     13          8           0        0.766908   -1.310295   -0.389884
     14          8           0        2.228536   -2.602480    0.587371
     15          6           0       -1.602190    2.166594    1.064508
     16          6           0       -2.674856    2.491044    0.227465
     17          6           0       -3.512668    1.490132   -0.273328
     18          6           0       -3.247561    0.169260    0.084866
     19          6           0       -2.186824   -0.185790    0.916773
     20          6           0       -1.362021    0.831566    1.405889
     21          1           0       -0.956410    2.950514    1.449001
     22          1           0       -2.863763    3.526989   -0.039326
     23          1           0       -4.350137    1.713259   -0.923156
     24          1           0       -2.023677   -1.227483    1.165115
     25          1           0       -0.529713    0.576654    2.055756
     26          7           0       -4.127630   -0.899065   -0.439120
     27          8           0       -3.872824   -2.055146   -0.108683
     28          8           0       -5.055568   -0.560108   -1.170335
 ---------------------------------------------------------------------

 SCF Done:  E(RHF) =  -868.337972131     A.U. after   16 cycles
 E2 =    -0.2600589339D+01 EUMP2 =    -0.87093856147043D+03

 The electronic state is 1-A.
 Alpha  occ. eigenvalues --  -20.61383 -20.61374 -20.59992 -20.59951 -15.86404
 Alpha  occ. eigenvalues --  -15.85028 -11.31735 -11.30393 -11.28288 -11.28285
 Alpha  occ. eigenvalues --  -11.28026 -11.27303 -11.27279 -11.27086 -11.26899
 Alpha  occ. eigenvalues --  -11.26878 -11.26150 -11.26012  -1.60455  -1.59048
 Alpha  occ. eigenvalues --   -1.40005  -1.38599  -1.19905  -1.18620  -1.09308
 Alpha  occ. eigenvalues --   -1.08049  -1.05294  -1.04012  -0.96146  -0.94859
 Alpha  occ. eigenvalues --   -0.86691  -0.85438  -0.82977  -0.81679  -0.78029
 Alpha  occ. eigenvalues --   -0.76693  -0.72630  -0.71791  -0.71253  -0.70994
 Alpha  occ. eigenvalues --   -0.70365  -0.69777  -0.65552  -0.65288  -0.64285
 Alpha  occ. eigenvalues --   -0.64057  -0.62631  -0.61346  -0.55788  -0.54623
 Alpha  occ. eigenvalues --   -0.53639  -0.53377  -0.52367  -0.52130  -0.49389
 Alpha  occ. eigenvalues --   -0.49375  -0.48026  -0.47989  -0.45419  -0.44001
 Alpha  occ. eigenvalues --   -0.37892  -0.36917  -0.36677  -0.35529
 Alpha virt. eigenvalues --    0.04440   0.05872   0.10721   0.12049   0.15930
 Alpha virt. eigenvalues --    0.17325   0.20929   0.21994   0.26839   0.27741
 Alpha virt. eigenvalues --    0.27947   0.28947   0.30501   0.31467   0.32023

 Mulliken charges:
               1
     1  C   -0.170533
     2  C   -0.218682
     3  C   -0.170931
     4  C    0.155757
     5  C   -0.174141
     6  C   -0.219521
     7  H    0.226984
     8  H    0.225205
     9  H    0.276970
    10  H    0.278310
    11  H    0.223688
    12  N    0.487011
    13  O   -0.461163
    14  O   -0.457606
    15  C   -0.176997
    16  C   -0.220865
    17  C   -0.172140
    18  C    0.154205
    19  C   -0.152208
    20  C   -0.216536
    21  H    0.219015
    22  H    0.218299
    23  H    0.272904
    24  H    0.285373
    25  H    0.220231
    26  N    0.488240
    27  O   -0.455622
    28  O   -0.465247
 Sum of Mulliken charges =  -0.00000

 Dipole moment (field-independent basis, Debye):
    X=              6.9822    Y=              7.0864    Z=              1.2349  Tot=             10.0246
 Quadrupole moment (field-independent basis, Debye-Ang):
   XX=           -100.7839   YY=           -104.4113   ZZ=           -103.5330
   XY=             -6.4475   XZ=             -5.0374   YZ=             -3.2871

 Normal termination of Gaussian 16 at Fri May  7 06:30:18 2021.
