 Gaussian 16, Revision A.03,
 Gaussian 16:  EM64L-G16RevA.03 25-Dec-2016

 -------------
 #p 6-31g* mp2
 -------------

 ------------------------------------------------------
 Input file generated by CHIRIPA (05-May-2021 14:57:26)
 ------------------------------------------------------
 Symbolic Z-matrix:
 Charge =  0 Multiplicity = 1

                         Standard orientation:
 ---------------------------------------------------------------------
 Center     Atomic      Atomic             Coordinates (Angstroms)
 Number     Number       Type             X           Y           Z
 ---------------------------------------------------------------------
      1          6           0        4.307661    1.417741   -1.363559
      2          6           0        4.261572    1.596750    0.022931
      3          6           0        3.580086    0.684735    0.834320
      4          6           0        2.953007   -0.399901    0.223067
      5          6           0        2.980980   -0.605604   -1.155408
      6          6           0        3.668345    0.319072   -1.947274
      7          1           0        4.839339    2.131134   -1.986282
      8          1           0        4.757159    2.449066    0.478997
      9          1           0        3.528570    0.799183    1.910268
     10          1           0        2.477318   -1.464976   -1.581110
     11          1           0        3.702478    0.177522   -3.023770
     12          7           0        2.228436   -1.372112    1.071714
     13          8           0        1.684115   -2.319452    0.508778
     14          8           0        2.218559   -1.168382    2.283751
     15          6           0       -3.440660   -2.173187   -0.722303
     16          6           0       -4.531327   -1.304789   -0.608932
     17          6           0       -4.339113    0.034111   -0.255449
     18          6           0       -3.036825    0.472934   -0.021414
     19          6           0       -1.929816   -0.367791   -0.126298
     20          6           0       -2.145670   -1.702746   -0.481049
     21          1           0       -3.599159   -3.211745   -0.997390
     22          1           0       -5.538149   -1.667376   -0.795708
     23          1           0       -5.165511    0.727999   -0.160561
     24          1           0       -0.937914    0.022782    0.066060
     25          1           0       -1.296762   -2.374892   -0.568348
     26          7           0       -2.820824    1.888280    0.353475
     27          8           0       -1.663588    2.250292    0.554449
     28          8           0       -3.812847    2.608815    0.439238
 ---------------------------------------------------------------------

 SCF Done:  E(RHF) =  -868.339850970     A.U. after   16 cycles
 E2 =    -0.2599068917D+01 EUMP2 =    -0.87093891988693D+03

 The electronic state is 1-A.
 Alpha  occ. eigenvalues --  -20.61418 -20.61329 -20.60386 -20.60380 -15.86398
 Alpha  occ. eigenvalues --  -15.85430 -11.31475 -11.30632 -11.28059 -11.27953
 Alpha  occ. eigenvalues --  -11.27673 -11.27193 -11.27117 -11.26971 -11.26899
 Alpha  occ. eigenvalues --  -11.26848 -11.26203 -11.25976  -1.60441  -1.59462
 Alpha  occ. eigenvalues --   -1.40002  -1.39021  -1.19610  -1.18768  -1.09059
 Alpha  occ. eigenvalues --   -1.08195  -1.04966  -1.04124  -0.95942  -0.95066
 Alpha  occ. eigenvalues --   -0.86383  -0.85536  -0.82786  -0.81885  -0.77873
 Alpha  occ. eigenvalues --   -0.76958  -0.72620  -0.71767  -0.71650  -0.70779
 Alpha  occ. eigenvalues --   -0.70715  -0.69887  -0.65268  -0.64966  -0.64411
 Alpha  occ. eigenvalues --   -0.64097  -0.62324  -0.61462  -0.55472  -0.54650
 Alpha  occ. eigenvalues --   -0.53304  -0.53057  -0.52488  -0.52190  -0.49397
 Alpha  occ. eigenvalues --   -0.49339  -0.48419  -0.48395  -0.45455  -0.44462
 Alpha  occ. eigenvalues --   -0.37563  -0.36752  -0.36544  -0.35720
 Alpha virt. eigenvalues --    0.04605   0.05541   0.11098   0.11925   0.16138
 Alpha virt. eigenvalues --    0.17087   0.21157   0.22073   0.26963   0.27457
 Alpha virt. eigenvalues --    0.28379   0.28767   0.30880   0.31599   0.32490

 Mulliken charges:
               1
     1  C   -0.168710
     2  C   -0.216862
     3  C   -0.167149
     4  C    0.155707
     5  C   -0.172794
     6  C   -0.217388
     7  H    0.227822
     8  H    0.226593
     9  H    0.278198
    10  H    0.270985
    11  H    0.223996
    12  N    0.488091
    13  O   -0.472286
    14  O   -0.452520
    15  C   -0.171770
    16  C   -0.218435
    17  C   -0.172640
    18  C    0.158248
    19  C   -0.170432
    20  C   -0.222148
    21  H    0.224950
    22  H    0.221090
    23  H    0.273164
    24  H    0.271003
    25  H    0.240238
    26  N    0.488280
    27  O   -0.462890
    28  O   -0.462341
 Sum of Mulliken charges =  -0.00000

 Dipole moment (field-independent basis, Debye):
    X=              2.1556    Y=             -1.5026    Z=             -4.2336  Tot=              4.9827
 Quadrupole moment (field-independent basis, Debye-Ang):
   XX=            -80.3939   YY=           -111.9006   ZZ=           -103.5725
   XY=             24.8687   XZ=             -2.8198   YZ=              3.7869

 Normal termination of Gaussian 16 at Fri May  7 11:15:57 2021.
