 Gaussian 16, Revision A.03,
 Gaussian 16:  EM64L-G16RevA.03 25-Dec-2016

 -------------
 #p 6-31g* mp2
 -------------

 ------------------------------------------------------
 Input file generated by CHIRIPA (05-May-2021 14:51:09)
 ------------------------------------------------------
 Symbolic Z-matrix:
 Charge =  0 Multiplicity = 1

                         Standard orientation:
 ---------------------------------------------------------------------
 Center     Atomic      Atomic             Coordinates (Angstroms)
 Number     Number       Type             X           Y           Z
 ---------------------------------------------------------------------
      1          6           0       -2.963941   -0.489920   -0.265201
      2          6           0       -3.126962   -1.930318    0.221279
      3          6           0       -2.010179   -2.850824   -0.271932
      4          1           0       -2.937912   -0.481290   -1.363469
      5          1           0       -1.992649   -0.103587    0.073520
      6          1           0       -4.098255   -2.313353   -0.117084
      7          1           0       -3.152799   -1.935499    1.318513
      8          1           0       -1.035437   -2.495382    0.077552
      9          1           0       -1.986265   -2.875384   -1.366202
     10          1           0       -2.146430   -3.875565    0.087516
     11          6           0       -4.072731    0.442416    0.219633
     12          6           0       -3.909710    1.882814   -0.266848
     13          6           0       -5.026493    2.803320    0.226363
     14          1           0       -5.044024    0.056083   -0.119089
     15          1           0       -4.098760    0.433786    1.317901
     16          1           0       -3.883874    1.887995   -1.364081
     17          1           0       -2.938417    2.265849    0.071515
     18          1           0       -5.050407    2.827880    1.320633
     19          1           0       -6.001236    2.447878   -0.123120
     20          1           0       -4.890242    3.828061   -0.133084
     21          6           0        3.159879   -0.560751   -0.313811
     22          6           0        2.999996   -1.779110    0.596147
     23          6           0        2.281032   -2.940195   -0.091434
     24          1           0        2.168010   -0.230992   -0.652045
     25          1           0        3.715470   -0.855221   -1.214922
     26          1           0        2.446073   -1.482110    1.495911
     27          1           0        3.992347   -2.105890    0.932407
     28          1           0        2.834141   -3.264471   -0.978855
     29          1           0        1.279082   -2.637148   -0.412149
     30          1           0        2.177528   -3.800621    0.577009
     31          6           0        3.876794    0.608255    0.359379
     32          6           0        4.036677    1.826614   -0.550578
     33          6           0        4.755640    2.987699    0.137003
     34          1           0        3.321202    0.902724    1.260491
     35          1           0        4.868662    0.278497    0.697614
     36          1           0        3.044326    2.153394   -0.886839
     37          1           0        4.590600    1.529614   -1.450342
     38          1           0        5.757591    2.684652    0.457718
     39          1           0        4.202532    3.311975    1.024423
     40          1           0        4.859144    3.848124   -0.531441
 ---------------------------------------------------------------------

 SCF Done:  E(RHF) =  -470.733238593     A.U. after   11 cycles
 E2 =    -0.1582352439D+01 EUMP2 =    -0.47231559103185D+03

 The electronic state is 1-A.
 Alpha  occ. eigenvalues --  -11.21629 -11.21621 -11.21601 -11.21589 -11.21438
 Alpha  occ. eigenvalues --  -11.21403 -11.21378 -11.21343 -11.21092 -11.21072
 Alpha  occ. eigenvalues --  -11.21070 -11.21002  -1.08459  -1.08424  -1.03560
 Alpha  occ. eigenvalues --   -1.03512  -0.96024  -0.95945  -0.87059  -0.86944
 Alpha  occ. eigenvalues --   -0.79655  -0.79543  -0.78279  -0.78231  -0.65113
 Alpha  occ. eigenvalues --   -0.65038  -0.61050  -0.60838  -0.59372  -0.59328
 Alpha  occ. eigenvalues --   -0.57668  -0.57535  -0.55465  -0.55107  -0.52710
 Alpha  occ. eigenvalues --   -0.52646  -0.52531  -0.52287  -0.50122  -0.49731
 Alpha  occ. eigenvalues --   -0.48024  -0.47802  -0.46744  -0.46499  -0.45855
 Alpha  occ. eigenvalues --   -0.45767  -0.45737  -0.45631  -0.43811  -0.43771
 Alpha virt. eigenvalues --    0.21686   0.23094   0.23599   0.24825   0.26094
 Alpha virt. eigenvalues --    0.26827   0.27064   0.27432   0.27869   0.28910
 Alpha virt. eigenvalues --    0.30585   0.31649   0.31697   0.31813   0.32077

 Mulliken charges:
               1
     1  C   -0.298182
     2  C   -0.299536
     3  C   -0.480693
     4  H    0.149801
     5  H    0.148520
     6  H    0.152065
     7  H    0.151913
     8  H    0.160109
     9  H    0.155232
    10  H    0.160895
    11  C   -0.298289
    12  C   -0.299645
    13  C   -0.475726
    14  H    0.149734
    15  H    0.149686
    16  H    0.152031
    17  H    0.151670
    18  H    0.155202
    19  H    0.155284
    20  H    0.160325
    21  C   -0.298326
    22  C   -0.299728
    23  C   -0.481842
    24  H    0.149457
    25  H    0.149728
    26  H    0.151127
    27  H    0.152000
    28  H    0.155176
    29  H    0.162007
    30  H    0.160161
    31  C   -0.298241
    32  C   -0.299677
    33  C   -0.475690
    34  H    0.149211
    35  H    0.149711
    36  H    0.151979
    37  H    0.152006
    38  H    0.155193
    39  H    0.155071
    40  H    0.160281
 Sum of Mulliken charges =  -0.00000

 Dipole moment (field-independent basis, Debye):
    X=             -0.0164    Y=             -0.0131    Z=             -0.0105  Tot=              0.0235
 Quadrupole moment (field-independent basis, Debye-Ang):
   XX=            -84.4564   YY=            -86.0638   ZZ=            -84.1862
   XY=             -0.0735   XZ=              0.1678   YZ=             -0.2312

 Normal termination of Gaussian 16 at Thu May  6 06:54:29 2021.
