 Gaussian 16, Revision A.03,
 Gaussian 16:  EM64L-G16RevA.03 25-Dec-2016

 -------------
 #p 6-31g* mp2
 -------------

 ------------------------------------------------------
 Input file generated by CHIRIPA (05-May-2021 14:51:11)
 ------------------------------------------------------
 Symbolic Z-matrix:
 Charge =  0 Multiplicity = 1

                         Standard orientation:
 ---------------------------------------------------------------------
 Center     Atomic      Atomic             Coordinates (Angstroms)
 Number     Number       Type             X           Y           Z
 ---------------------------------------------------------------------
      1          6           0        3.788179    0.851784   -0.173419
      2          6           0        2.615601    1.785817   -0.474462
      3          6           0        2.960989    3.258663   -0.252589
      4          1           0        4.110601    1.001705    0.866058
      5          1           0        4.641089    1.129015   -0.808306
      6          1           0        1.764707    1.506024    0.159818
      7          1           0        2.295809    1.633518   -1.513285
      8          1           0        3.793648    3.560283   -0.896254
      9          1           0        3.259528    3.432065    0.786356
     10          1           0        2.108605    3.908617   -0.473638
     11          6           0        3.458387   -0.623958   -0.390562
     12          6           0        4.630965   -1.557991   -0.089519
     13          6           0        4.285577   -3.030837   -0.311392
     14          1           0        2.605476   -0.901189    0.244325
     15          1           0        3.135965   -0.773879   -1.430039
     16          1           0        4.950757   -1.405692    0.949304
     17          1           0        5.481859   -1.278198   -0.723799
     18          1           0        3.987038   -3.204239   -1.350337
     19          1           0        3.452918   -3.332458    0.332273
     20          1           0        5.137960   -3.680791   -0.090343
     21          6           0       -2.937205    0.217099    0.338215
     22          6           0       -2.079352   -0.353621    1.467971
     23          6           0       -0.709766    0.318743    1.567751
     24          1           0       -2.401109    0.103440   -0.613955
     25          1           0       -3.068281    1.296569    0.496201
     26          1           0       -1.951087   -1.431944    1.308649
     27          1           0       -2.617635   -0.238763    2.417537
     28          1           0       -0.820155    1.392501    1.750666
     29          1           0       -0.149820    0.192541    0.635477
     30          1           0       -0.113102   -0.104504    2.381823
     31          6           0       -4.309360   -0.444925    0.225767
     32          6           0       -5.167213    0.125795   -0.903990
     33          6           0       -6.536799   -0.546568   -1.003769
     34          1           0       -4.178285   -1.524395    0.067780
     35          1           0       -4.845456   -0.331265    1.177936
     36          1           0       -4.628931    0.010937   -1.853556
     37          1           0       -5.295479    1.204118   -0.744668
     38          1           0       -7.096746   -0.420366   -0.071496
     39          1           0       -6.426410   -1.620327   -1.186684
     40          1           0       -7.133463   -0.123321   -1.817842
 ---------------------------------------------------------------------

 SCF Done:  E(RHF) =  -470.733111703     A.U. after   11 cycles
 E2 =    -0.1582813920D+01 EUMP2 =    -0.47231592562251D+03

 The electronic state is 1-A.
 Alpha  occ. eigenvalues --  -11.21638 -11.21611 -11.21577 -11.21470 -11.21422
 Alpha  occ. eigenvalues --  -11.21363 -11.21356 -11.21291 -11.21121 -11.21079
 Alpha  occ. eigenvalues --  -11.21058 -11.21001  -1.08454  -1.08376  -1.03564
 Alpha  occ. eigenvalues --   -1.03471  -0.96015  -0.95930  -0.87045  -0.86939
 Alpha  occ. eigenvalues --   -0.79682  -0.79498  -0.78289  -0.78163  -0.65105
 Alpha  occ. eigenvalues --   -0.64991  -0.60985  -0.60854  -0.59381  -0.59303
 Alpha  occ. eigenvalues --   -0.57640  -0.57523  -0.55308  -0.55216  -0.52725
 Alpha  occ. eigenvalues --   -0.52633  -0.52469  -0.52333  -0.49990  -0.49861
 Alpha  occ. eigenvalues --   -0.48096  -0.47754  -0.46727  -0.46519  -0.45906
 Alpha  occ. eigenvalues --   -0.45740  -0.45707  -0.45398  -0.43809  -0.43729
 Alpha virt. eigenvalues --    0.21946   0.22978   0.23955   0.24373   0.25575
 Alpha virt. eigenvalues --    0.26649   0.27043   0.27578   0.27956   0.29367
 Alpha virt. eigenvalues --    0.31030   0.31482   0.31638   0.31813   0.32061

 Mulliken charges:
               1
     1  C   -0.297372
     2  C   -0.309229
     3  C   -0.475082
     4  H    0.149401
     5  H    0.149094
     6  H    0.163973
     7  H    0.150460
     8  H    0.154678
     9  H    0.154925
    10  H    0.159853
    11  C   -0.300786
    12  C   -0.299519
    13  C   -0.475690
    14  H    0.151699
    15  H    0.148968
    16  H    0.151946
    17  H    0.151957
    18  H    0.154979
    19  H    0.155077
    20  H    0.160184
    21  C   -0.298490
    22  C   -0.299953
    23  C   -0.481040
    24  H    0.150100
    25  H    0.149562
    26  H    0.152084
    27  H    0.151983
    28  H    0.155492
    29  H    0.160719
    30  H    0.159813
    31  C   -0.298332
    32  C   -0.299672
    33  C   -0.475724
    34  H    0.149609
    35  H    0.149660
    36  H    0.152025
    37  H    0.151946
    38  H    0.155182
    39  H    0.155220
    40  H    0.160297
 Sum of Mulliken charges =  -0.00000

 Dipole moment (field-independent basis, Debye):
    X=             -0.0396    Y=             -0.0040    Z=              0.0157  Tot=              0.0428
 Quadrupole moment (field-independent basis, Debye-Ang):
   XX=            -85.7444   YY=            -85.7480   ZZ=            -83.4933
   XY=             -0.7995   XZ=             -0.7059   YZ=              0.2140

 Normal termination of Gaussian 16 at Thu May  6 07:03:24 2021.
