 Gaussian 16, Revision A.03,
 Gaussian 16:  EM64L-G16RevA.03 25-Dec-2016

 -------------
 #p 6-31g* mp2
 -------------

 ------------------------------------------------------
 Input file generated by CHIRIPA (05-May-2021 14:51:12)
 ------------------------------------------------------
 Symbolic Z-matrix:
 Charge =  0 Multiplicity = 1

                         Standard orientation:
 ---------------------------------------------------------------------
 Center     Atomic      Atomic             Coordinates (Angstroms)
 Number     Number       Type             X           Y           Z
 ---------------------------------------------------------------------
      1          6           0        1.997912    0.723734   -0.185228
      2          6           0        2.621403    1.433695   -1.387393
      3          6           0        1.996594    2.803402   -1.654431
      4          1           0        0.918457    0.609242   -0.354386
      5          1           0        2.109233    1.358379    0.704844
      6          1           0        2.510166    0.797291   -2.274654
      7          1           0        3.699530    1.546339   -1.215438
      8          1           0        2.120260    3.459071   -0.786441
      9          1           0        0.924138    2.705767   -1.851676
     10          1           0        2.457154    3.293279   -2.518008
     11          6           0        2.612024   -0.646811    0.094414
     12          6           0        1.988532   -1.356771    1.296579
     13          6           0        2.613341   -2.726479    1.563617
     14          1           0        2.500703   -1.281456   -0.795658
     15          1           0        3.691478   -0.532318    0.263572
     16          1           0        0.910405   -1.469416    1.124624
     17          1           0        2.099769   -0.720368    2.183840
     18          1           0        3.685798   -2.628843    1.760862
     19          1           0        2.489676   -3.382147    0.695627
     20          1           0        2.152781   -3.216356    2.427194
     21          6           0       -2.506674    0.688692    0.163699
     22          6           0       -1.918455    1.280356    1.445072
     23          6           0       -2.330997    2.735676    1.667884
     24          1           0       -2.187680    1.297100   -0.693639
     25          1           0       -3.602512    0.757840    0.205567
     26          1           0       -0.824107    1.208853    1.401406
     27          1           0       -2.238730    0.670358    2.299439
     28          1           0       -3.420244    2.820959    1.737648
     29          1           0       -1.997584    3.362515    0.834512
     30          1           0       -1.899429    3.138716    2.589387
     31          6           0       -2.103261   -0.765616   -0.072885
     32          6           0       -2.691480   -1.357279   -1.354258
     33          6           0       -2.278939   -2.812599   -1.577070
     34          1           0       -1.007423   -0.834764   -0.114753
     35          1           0       -2.422256   -1.374023    0.784454
     36          1           0       -2.371205   -0.747281   -2.208625
     37          1           0       -3.785828   -1.285776   -1.310592
     38          1           0       -2.612351   -3.439438   -0.743697
     39          1           0       -1.189691   -2.897883   -1.646834
     40          1           0       -2.710506   -3.215639   -2.498573
 ---------------------------------------------------------------------

 SCF Done:  E(RHF) =  -470.732397827     A.U. after   11 cycles
 E2 =    -0.1585272808D+01 EUMP2 =    -0.47231767063500D+03

 The electronic state is 1-A.
 Alpha  occ. eigenvalues --  -11.21672 -11.21651 -11.21584 -11.21523 -11.21466
 Alpha  occ. eigenvalues --  -11.21426 -11.21405 -11.21367 -11.21145 -11.21128
 Alpha  occ. eigenvalues --  -11.21071 -11.21028  -1.08543  -1.08410  -1.03576
 Alpha  occ. eigenvalues --   -1.03530  -0.96032  -0.95992  -0.87052  -0.87001
 Alpha  occ. eigenvalues --   -0.79661  -0.79579  -0.78555  -0.78061  -0.65464
 Alpha  occ. eigenvalues --   -0.64789  -0.61031  -0.60886  -0.59396  -0.59358
 Alpha  occ. eigenvalues --   -0.57638  -0.57604  -0.55393  -0.55223  -0.52732
 Alpha  occ. eigenvalues --   -0.52667  -0.52477  -0.52401  -0.49991  -0.49930
 Alpha  occ. eigenvalues --   -0.48035  -0.47854  -0.46812  -0.46666  -0.46549
 Alpha  occ. eigenvalues --   -0.45777  -0.45755  -0.44802  -0.43829  -0.43784
 Alpha virt. eigenvalues --    0.20079   0.22511   0.24092   0.24350   0.25449
 Alpha virt. eigenvalues --    0.26245   0.26881   0.27721   0.28034   0.30754
 Alpha virt. eigenvalues --    0.31323   0.31474   0.31763   0.31929   0.32225

 Mulliken charges:
               1
     1  C   -0.307940
     2  C   -0.298981
     3  C   -0.476051
     4  H    0.157958
     5  H    0.150138
     6  H    0.151837
     7  H    0.152422
     8  H    0.155643
     9  H    0.154402
    10  H    0.160778
    11  C   -0.297647
    12  C   -0.307942
    13  C   -0.475124
    14  H    0.148675
    15  H    0.150060
    16  H    0.159957
    17  H    0.151955
    18  H    0.155034
    19  H    0.155004
    20  H    0.160514
    21  C   -0.297875
    22  C   -0.305872
    23  C   -0.475517
    24  H    0.148615
    25  H    0.149957
    26  H    0.159282
    27  H    0.151405
    28  H    0.154801
    29  H    0.155336
    30  H    0.160008
    31  C   -0.310051
    32  C   -0.298727
    33  C   -0.475754
    34  H    0.159563
    35  H    0.149915
    36  H    0.151402
    37  H    0.152398
    38  H    0.155540
    39  H    0.154263
    40  H    0.160618
 Sum of Mulliken charges =  -0.00000

 Dipole moment (field-independent basis, Debye):
    X=              0.0179    Y=             -0.0044    Z=              0.0075  Tot=              0.0199
 Quadrupole moment (field-independent basis, Debye-Ang):
   XX=            -83.8192   YY=            -86.6277   ZZ=            -84.3392
   XY=              1.2299   XZ=             -0.0456   YZ=              0.0929

 Normal termination of Gaussian 16 at Thu May  6 02:18:40 2021.
