 Gaussian 16, Revision A.03,
 Gaussian 16:  EM64L-G16RevA.03 25-Dec-2016

 -------------
 #p 6-31g* mp2
 -------------

 ------------------------------------------------------
 Input file generated by CHIRIPA (05-May-2021 14:53:11)
 ------------------------------------------------------
 Symbolic Z-matrix:
 Charge =  0 Multiplicity = 1

                         Standard orientation:
 ---------------------------------------------------------------------
 Center     Atomic      Atomic             Coordinates (Angstroms)
 Number     Number       Type             X           Y           Z
 ---------------------------------------------------------------------
      1          6           0       -5.231679   -0.124549   -0.132703
      2          6           0       -5.326763   -1.648134   -0.045340
      3          6           0       -6.760270   -2.160183   -0.189060
      4          1           0       -5.861888    0.321226    0.649004
      5          1           0       -5.645755    0.207129   -1.094954
      6          1           0       -4.911365   -1.976950    0.915878
      7          1           0       -4.696104   -2.090335   -0.827224
      8          1           0       -7.181455   -1.860496   -1.154147
      9          1           0       -7.397940   -1.746467    0.598860
     10          1           0       -6.805123   -3.251770   -0.123594
     11          6           0       -3.804873    0.402529    0.009213
     12          6           0       -3.709788    1.926114   -0.078151
     13          6           0       -2.276281    2.438164    0.065570
     14          1           0       -3.390797    0.070851    0.971463
     15          1           0       -3.174664   -0.043245   -0.772495
     16          1           0       -4.340447    2.368316    0.703734
     17          1           0       -4.125186    2.254931   -1.039369
     18          1           0       -1.638612    2.024448   -0.722350
     19          1           0       -1.855096    2.138477    1.030656
     20          1           0       -2.231429    3.529751    0.000104
     21          6           0        1.415654    1.235834    0.345574
     22          6           0        1.415782   -0.136971    0.613766
     23          6           0        2.581445   -0.891802    0.452492
     24          6           0        3.734301   -0.238560    0.019494
     25          6           0        3.765961    1.127634   -0.255827
     26          6           0        2.588675    1.862650   -0.087603
     27          1           0        0.505625    1.814508    0.473556
     28          1           0        0.506264   -0.626422    0.950307
     29          1           0        2.609592   -1.955963    0.652958
     30          1           0        4.688064    1.587544   -0.589930
     31          1           0        2.591516    2.928644   -0.296635
     32          7           0        4.974487   -1.027177   -0.154920
     33          8           0        5.977110   -0.428032   -0.537555
     34          8           0        4.920441   -2.229507    0.094314
 ---------------------------------------------------------------------

 SCF Done:  E(RHF) =  -669.535338760     A.U. after   15 cycles
 E2 =    -0.2091320934D+01 EUMP2 =    -0.67162665969385D+03

 The electronic state is 1-A.
 Alpha  occ. eigenvalues --  -20.60680 -20.60675 -15.85734 -11.31070 -11.27643
 Alpha  occ. eigenvalues --  -11.27639 -11.27259 -11.26630 -11.26619 -11.22655
 Alpha  occ. eigenvalues --  -11.22492 -11.22326 -11.22211 -11.22087 -11.21554
 Alpha  occ. eigenvalues --   -1.59757  -1.39311  -1.19236  -1.09285  -1.08625
 Alpha  occ. eigenvalues --   -1.04639  -1.04410  -0.96901  -0.95465  -0.87930
 Alpha  occ. eigenvalues --   -0.86031  -0.82312  -0.80506  -0.79061  -0.77366
 Alpha  occ. eigenvalues --   -0.71951  -0.71081  -0.70334  -0.65905  -0.64881
 Alpha  occ. eigenvalues --   -0.64645  -0.61992  -0.61798  -0.60271  -0.58514
 Alpha  occ. eigenvalues --   -0.56189  -0.55245  -0.53553  -0.53190  -0.52959
 Alpha  occ. eigenvalues --   -0.52725  -0.50838  -0.48800  -0.48708  -0.48678
 Alpha  occ. eigenvalues --   -0.47506  -0.46606  -0.46498  -0.44724  -0.44642
 Alpha  occ. eigenvalues --   -0.37195  -0.36255
 Alpha virt. eigenvalues --    0.05156   0.11398   0.16606   0.20580   0.22207
 Alpha virt. eigenvalues --    0.23671   0.25664   0.26036   0.26487   0.27723
 Alpha virt. eigenvalues --    0.29333   0.30421   0.30542   0.30850   0.31734

 Mulliken charges:
               1
     1  C   -0.298828
     2  C   -0.300376
     3  C   -0.476195
     4  H    0.151346
     5  H    0.151704
     6  H    0.151573
     7  H    0.152689
     8  H    0.156348
     9  H    0.156028
    10  H    0.162163
    11  C   -0.299762
    12  C   -0.299052
    13  C   -0.486459
    14  H    0.146627
    15  H    0.150132
    16  H    0.155859
    17  H    0.156532
    18  H    0.156159
    19  H    0.150045
    20  H    0.165411
    21  C   -0.178950
    22  C   -0.223182
    23  C   -0.170820
    24  C    0.157966
    25  C   -0.170728
    26  C   -0.221766
    27  H    0.242332
    28  H    0.223372
    29  H    0.275062
    30  H    0.275021
    31  H    0.223387
    32  N    0.488038
    33  O   -0.460814
    34  O   -0.460864
 Sum of Mulliken charges =  -0.00000

 Dipole moment (field-independent basis, Debye):
    X=             -4.6947    Y=              2.8134    Z=              0.5700  Tot=              5.5028
 Quadrupole moment (field-independent basis, Debye-Ang):
   XX=           -126.7599   YY=            -92.9378   ZZ=            -94.1328
   XY=             13.2020   XZ=              1.3291   YZ=             -1.5113

 Normal termination of Gaussian 16 at Wed May  5 20:04:01 2021.
