 Gaussian 16, Revision A.03,
 Gaussian 16:  EM64L-G16RevA.03 25-Dec-2016

 -------------
 #p 6-31g* mp2
 -------------

 ------------------------------------------------------
 Input file generated by CHIRIPA (05-May-2021 14:55:24)
 ------------------------------------------------------
 Symbolic Z-matrix:
 Charge =  0 Multiplicity = 1

                         Standard orientation:
 ---------------------------------------------------------------------
 Center     Atomic      Atomic             Coordinates (Angstroms)
 Number     Number       Type             X           Y           Z
 ---------------------------------------------------------------------
      1          6           0       -4.399366   -2.121309   -0.022793
      2          6           0       -3.103262   -2.001620    0.489369
      3          6           0       -2.408196   -0.792918    0.387031
      4          6           0       -3.042341    0.280591   -0.236451
      5          6           0       -4.332683    0.192647   -0.756616
      6          6           0       -5.008866   -1.025725   -0.643057
      7          1           0       -4.931975   -3.064013    0.061064
      8          1           0       -2.627430   -2.850795    0.971582
      9          1           0       -1.403915   -0.672636    0.774805
     10          1           0       -4.780815    1.056736   -1.231954
     11          1           0       -6.015345   -1.115782   -1.041723
     12          7           0       -2.316502    1.565308   -0.350731
     13          8           0       -2.897305    2.496221   -0.904541
     14          8           0       -1.180530    1.617030    0.115670
     15          6           0        3.637180    0.399061    0.700283
     16          6           0        2.464014   -0.263622    1.423136
     17          6           0        1.653037    0.723898    2.262727
     18          1           0        4.292623    0.877750    1.440686
     19          1           0        3.254900    1.202479    0.055477
     20          1           0        2.848260   -1.066462    2.065335
     21          1           0        1.811390   -0.740953    0.680942
     22          1           0        1.242295    1.519106    1.632222
     23          1           0        2.285057    1.191748    3.024481
     24          1           0        0.819430    0.229019    2.770716
     25          6           0        4.457457   -0.575327   -0.143186
     26          6           0        5.630624    0.087356   -0.866039
     27          6           0        6.441601   -0.900165   -1.705631
     28          1           0        4.839739   -1.378746    0.501619
     29          1           0        3.802015   -1.054017   -0.883589
     30          1           0        6.283248    0.564687   -0.123845
     31          1           0        5.246377    0.890196   -1.508238
     32          1           0        5.809581   -1.368015   -2.467385
     33          1           0        6.852343   -1.695373   -1.075126
     34          1           0        7.275208   -0.405285   -2.213619
 ---------------------------------------------------------------------

 SCF Done:  E(RHF) =  -669.535976439     A.U. after   15 cycles
 E2 =    -0.2091220253D+01 EUMP2 =    -0.67162719669207D+03

 The electronic state is 1-A.
 Alpha  occ. eigenvalues --  -20.60870 -20.60862 -15.85917 -11.31241 -11.27809
 Alpha  occ. eigenvalues --  -11.27796 -11.27549 -11.26819 -11.26807 -11.21268
 Alpha  occ. eigenvalues --  -11.21158 -11.21026 -11.20869 -11.20818 -11.20257
 Alpha  occ. eigenvalues --   -1.59939  -1.39494  -1.19412  -1.08816  -1.08002
 Alpha  occ. eigenvalues --   -1.04809  -1.03082  -0.95670  -0.95495  -0.86519
 Alpha  occ. eigenvalues --   -0.86209  -0.82492  -0.79160  -0.77823  -0.77539
 Alpha  occ. eigenvalues --   -0.72151  -0.71257  -0.70521  -0.65073  -0.64817
 Alpha  occ. eigenvalues --   -0.64615  -0.62160  -0.60451  -0.58913  -0.57147
 Alpha  occ. eigenvalues --   -0.55314  -0.54750  -0.53142  -0.52903  -0.52218
 Alpha  occ. eigenvalues --   -0.51930  -0.49432  -0.48895  -0.48853  -0.47471
 Alpha  occ. eigenvalues --   -0.46177  -0.45369  -0.45263  -0.44901  -0.43351
 Alpha  occ. eigenvalues --   -0.37394  -0.36412
 Alpha virt. eigenvalues --    0.04987   0.11237   0.16488   0.20438   0.23048
 Alpha virt. eigenvalues --    0.23926   0.26578   0.27325   0.27722   0.28072
 Alpha virt. eigenvalues --    0.29317   0.30889   0.31558   0.32106   0.32223

 Mulliken charges:
               1
     1  C   -0.170445
     2  C   -0.219506
     3  C   -0.174377
     4  C    0.157249
     5  C   -0.170458
     6  C   -0.218778
     7  H    0.225813
     8  H    0.224073
     9  H    0.281228
    10  H    0.275645
    11  H    0.223604
    12  N    0.493839
    13  O   -0.459690
    14  O   -0.466679
    15  C   -0.299155
    16  C   -0.299474
    17  C   -0.480902
    18  H    0.148845
    19  H    0.156666
    20  H    0.146490
    21  H    0.146721
    22  H    0.183180
    23  H    0.151117
    24  H    0.149083
    25  C   -0.297870
    26  C   -0.299681
    27  C   -0.475448
    28  H    0.147016
    29  H    0.148341
    30  H    0.151627
    31  H    0.153794
    32  H    0.154447
    33  H    0.153878
    34  H    0.159804
 Sum of Mulliken charges =  -0.00000

 Dipole moment (field-independent basis, Debye):
    X=             -2.6831    Y=             -4.3608    Z=              0.3292  Tot=              5.1307
 Quadrupole moment (field-independent basis, Debye-Ang):
   XX=            -76.7840   YY=            -97.2235   ZZ=            -94.7233
   XY=             12.1907   XZ=              2.3388   YZ=             -0.3355

 Normal termination of Gaussian 16 at Wed May  5 19:07:56 2021.
