 Gaussian 16, Revision A.03,
 Gaussian 16:  EM64L-G16RevA.03 25-Dec-2016

 -------------
 #p 6-31g* mp2
 -------------

 ------------------------------------------------------
 Input file generated by CHIRIPA (05-May-2021 14:55:24)
 ------------------------------------------------------
 Symbolic Z-matrix:
 Charge =  0 Multiplicity = 1

                         Standard orientation:
 ---------------------------------------------------------------------
 Center     Atomic      Atomic             Coordinates (Angstroms)
 Number     Number       Type             X           Y           Z
 ---------------------------------------------------------------------
      1          6           0       -1.812896    0.806961    0.118481
      2          6           0       -2.107350   -0.530390    0.403627
      3          6           0       -3.418675   -1.005147    0.305744
      4          6           0       -4.415482   -0.111030   -0.081839
      5          6           0       -4.153791    1.226988   -0.372556
      6          6           0       -2.835254    1.679844   -0.268019
      7          1           0       -0.791425    1.167257    0.197104
      8          1           0       -1.315390   -1.210543    0.704019
      9          1           0       -3.674588   -2.035555    0.520653
     10          1           0       -4.964497    1.881176   -0.669562
     11          1           0       -2.609506    2.718965   -0.490078
     12          7           0       -5.807540   -0.602040   -0.188986
     13          8           0       -6.667796    0.205790   -0.532507
     14          8           0       -6.012022   -1.785428    0.072583
     15          6           0        4.774135    0.029533    0.574369
     16          6           0        3.560122    0.822613    0.089414
     17          6           0        2.399968    0.795186    1.084948
     18          1           0        4.473867   -1.010615    0.761121
     19          1           0        5.107775    0.436540    1.538954
     20          1           0        3.229718    0.415118   -0.874639
     21          1           0        3.863358    1.860950   -0.096388
     22          1           0        2.706748    1.220819    2.045845
     23          1           0        2.069509   -0.233227    1.263173
     24          1           0        1.542667    1.368277    0.718261
     25          6           0        5.942162    0.047536   -0.410067
     26          6           0        7.156175   -0.745545    0.074887
     27          6           0        8.316328   -0.718116   -0.920646
     28          1           0        5.608522   -0.359471   -1.374652
     29          1           0        6.242429    1.087684   -0.596819
     30          1           0        6.852939   -1.783880    0.260689
     31          1           0        7.486577   -0.338050    1.038940
     32          1           0        8.646787    0.310297   -1.098871
     33          1           0        8.009548   -1.143750   -1.881544
     34          1           0        9.173630   -1.291208   -0.553960
 ---------------------------------------------------------------------

 SCF Done:  E(RHF) =  -669.535533854     A.U. after   15 cycles
 E2 =    -0.2090702094D+01 EUMP2 =    -0.67162623594782D+03

 The electronic state is 1-A.
 Alpha  occ. eigenvalues --  -20.60717 -20.60711 -15.85770 -11.31123 -11.27696
 Alpha  occ. eigenvalues --  -11.27692 -11.27399 -11.26702 -11.26690 -11.22574
 Alpha  occ. eigenvalues --  -11.22389 -11.22150 -11.22103 -11.21977 -11.21487
 Alpha  occ. eigenvalues --   -1.59793  -1.39346  -1.19294  -1.09161  -1.08688
 Alpha  occ. eigenvalues --   -1.04698  -1.04305  -0.96777  -0.95526  -0.87799
 Alpha  occ. eigenvalues --   -0.86093  -0.82363  -0.80374  -0.78924  -0.77412
 Alpha  occ. eigenvalues --   -0.71988  -0.71116  -0.70418  -0.65784  -0.64945
 Alpha  occ. eigenvalues --   -0.64704  -0.62049  -0.61690  -0.60223  -0.58374
 Alpha  occ. eigenvalues --   -0.56052  -0.55243  -0.53443  -0.53177  -0.53026
 Alpha  occ. eigenvalues --   -0.52789  -0.50700  -0.48754  -0.48744  -0.48677
 Alpha  occ. eigenvalues --   -0.47385  -0.46479  -0.46371  -0.44755  -0.44549
 Alpha  occ. eigenvalues --   -0.37268  -0.36306
 Alpha virt. eigenvalues --    0.05126   0.11350   0.16621   0.19634   0.22426
 Alpha virt. eigenvalues --    0.23827   0.25640   0.25905   0.26408   0.27245
 Alpha virt. eigenvalues --    0.28697   0.29764   0.30960   0.31436   0.32422

 Mulliken charges:
               1
     1  C   -0.176226
     2  C   -0.222320
     3  C   -0.170821
     4  C    0.158195
     5  C   -0.170671
     6  C   -0.221107
     7  H    0.236289
     8  H    0.223879
     9  H    0.275340
    10  H    0.275326
    11  H    0.223594
    12  N    0.488004
    13  O   -0.460622
    14  O   -0.460646
    15  C   -0.299294
    16  C   -0.299330
    17  C   -0.481020
    18  H    0.150224
    19  H    0.151303
    20  H    0.152819
    21  H    0.154577
    22  H    0.161842
    23  H    0.153815
    24  H    0.152431
    25  C   -0.298878
    26  C   -0.300179
    27  C   -0.476096
    28  H    0.150342
    29  H    0.150664
    30  H    0.152524
    31  H    0.152710
    32  H    0.155767
    33  H    0.155792
    34  H    0.161771
 Sum of Mulliken charges =  -0.00000

 Dipole moment (field-independent basis, Debye):
    X=              5.1905    Y=              1.7258    Z=              0.3919  Tot=              5.4839
 Quadrupole moment (field-independent basis, Debye-Ang):
   XX=           -137.9742   YY=            -90.3767   ZZ=            -95.3969
   XY=             -9.4123   XZ=             -0.8019   YZ=             -1.3106

 Normal termination of Gaussian 16 at Thu May  6 06:22:50 2021.
