 Gaussian 16, Revision A.03,
 Gaussian 16:  EM64L-G16RevA.03 25-Dec-2016

 -------------
 #p 6-31g* mp2
 -------------

 ------------------------------------------------------
 Input file generated by CHIRIPA (05-May-2021 14:53:11)
 ------------------------------------------------------
 Symbolic Z-matrix:
 Charge =  0 Multiplicity = 1

                         Standard orientation:
 ---------------------------------------------------------------------
 Center     Atomic      Atomic             Coordinates (Angstroms)
 Number     Number       Type             X           Y           Z
 ---------------------------------------------------------------------
      1          6           0       -3.976153    0.373652    0.076131
      2          6           0       -4.862125    0.157237   -1.151144
      3          6           0       -5.801706    1.333835   -1.416846
      4          1           0       -4.613165    0.541821    0.955266
      5          1           0       -3.386807    1.290579   -0.062834
      6          1           0       -5.448608   -0.759756   -1.010507
      7          1           0       -4.222932   -0.010627   -2.027425
      8          1           0       -5.230600    2.252965   -1.583096
      9          1           0       -6.463241    1.499580   -0.560399
     10          1           0       -6.425813    1.158038   -2.298576
     11          6           0       -3.031331   -0.794003    0.354739
     12          6           0       -2.145359   -0.577588    1.582013
     13          6           0       -1.205778   -1.754186    1.847716
     14          1           0       -3.620677   -1.710930    0.493703
     15          1           0       -2.394319   -0.962172   -0.524397
     16          1           0       -2.784553   -0.409724    2.458294
     17          1           0       -1.558877    0.339405    1.441376
     18          1           0       -0.544244   -1.919931    0.991269
     19          1           0       -1.776884   -2.673317    2.013965
     20          1           0       -0.581672   -1.578390    2.729445
     21          6           0        2.715049    2.479013    0.835221
     22          6           0        2.004216    1.442822    1.449669
     23          6           0        2.009439    0.156315    0.902475
     24          6           0        2.739450   -0.059588   -0.265326
     25          6           0        3.457661    0.952066   -0.900951
     26          6           0        3.438229    2.230764   -0.336063
     27          1           0        2.705472    3.475369    1.267166
     28          1           0        1.441708    1.632707    2.359379
     29          1           0        1.467950   -0.664159    1.357481
     30          1           0        4.009150    0.732145   -1.806994
     31          1           0        3.991195    3.033567   -0.815419
     32          7           0        2.752501   -1.417422   -0.853981
     33          8           0        3.403449   -1.581770   -1.883492
     34          8           0        2.111535   -2.291635   -0.274712
 ---------------------------------------------------------------------

 SCF Done:  E(RHF) =  -669.535687734     A.U. after   15 cycles
 E2 =    -0.2092419792D+01 EUMP2 =    -0.67162810752616D+03

 The electronic state is 1-A.
 Alpha  occ. eigenvalues --  -20.60868 -20.60859 -15.85898 -11.31196 -11.27787
 Alpha  occ. eigenvalues --  -11.27699 -11.27522 -11.26789 -11.26767 -11.21788
 Alpha  occ. eigenvalues --  -11.21610 -11.21454 -11.21383 -11.21109 -11.21097
 Alpha  occ. eigenvalues --   -1.59929  -1.39486  -1.19379  -1.08789  -1.08496
 Alpha  occ. eigenvalues --   -1.04775  -1.03613  -0.96064  -0.95620  -0.87075
 Alpha  occ. eigenvalues --   -0.86167  -0.82462  -0.79676  -0.78300  -0.77515
 Alpha  occ. eigenvalues --   -0.72122  -0.71245  -0.70499  -0.65159  -0.65033
 Alpha  occ. eigenvalues --   -0.64766  -0.62213  -0.60929  -0.59431  -0.57664
 Alpha  occ. eigenvalues --   -0.55454  -0.55149  -0.53104  -0.52952  -0.52659
 Alpha  occ. eigenvalues --   -0.52456  -0.49951  -0.48879  -0.48868  -0.47968
 Alpha  occ. eigenvalues --   -0.46689  -0.45839  -0.45762  -0.44874  -0.43868
 Alpha  occ. eigenvalues --   -0.37367  -0.36365
 Alpha virt. eigenvalues --    0.04962   0.11244   0.16414   0.20597   0.22960
 Alpha virt. eigenvalues --    0.24059   0.26340   0.26933   0.27242   0.28006
 Alpha virt. eigenvalues --    0.29516   0.30852   0.31435   0.31618   0.32075

 Mulliken charges:
               1
     1  C   -0.298203
     2  C   -0.299977
     3  C   -0.475669
     4  H    0.148731
     5  H    0.147597
     6  H    0.152949
     7  H    0.153614
     8  H    0.154143
     9  H    0.154682
    10  H    0.160950
    11  C   -0.298821
    12  C   -0.300644
    13  C   -0.492450
    14  H    0.151691
    15  H    0.154390
    16  H    0.151187
    17  H    0.144579
    18  H    0.176717
    19  H    0.161823
    20  H    0.150088
    21  C   -0.170462
    22  C   -0.222795
    23  C   -0.175686
    24  C    0.155938
    25  C   -0.170264
    26  C   -0.219072
    27  H    0.225727
    28  H    0.224387
    29  H    0.288708
    30  H    0.275501
    31  H    0.223473
    32  N    0.488667
    33  O   -0.459416
    34  O   -0.462082
 Sum of Mulliken charges =  -0.00000

 Dipole moment (field-independent basis, Debye):
    X=             -0.0468    Y=              4.6749    Z=              1.9682  Tot=              5.0726
 Quadrupole moment (field-independent basis, Debye-Ang):
   XX=            -93.7310   YY=            -95.5256   ZZ=            -93.5317
   XY=             15.5222   XZ=              2.6605   YZ=             -2.7284

 Normal termination of Gaussian 16 at Wed May  5 21:41:10 2021.
