 Gaussian 16, Revision A.03,
 Gaussian 16:  EM64L-G16RevA.03 25-Dec-2016

 -------------
 #p 6-31g* mp2
 -------------

 ------------------------------------------------------
 Input file generated by CHIRIPA (05-May-2021 14:53:13)
 ------------------------------------------------------
 Symbolic Z-matrix:
 Charge =  0 Multiplicity = 1

                         Standard orientation:
 ---------------------------------------------------------------------
 Center     Atomic      Atomic             Coordinates (Angstroms)
 Number     Number       Type             X           Y           Z
 ---------------------------------------------------------------------
      1          6           0        4.103180   -0.581665   -0.238074
      2          6           0        3.717925   -1.938319    0.352733
      3          6           0        4.345820   -3.111125   -0.400970
      4          1           0        3.796935   -0.547813   -1.292594
      5          1           0        5.197425   -0.482157   -0.227024
      6          1           0        2.624666   -2.034664    0.341845
      7          1           0        4.024951   -1.968873    1.406022
      8          1           0        5.438259   -3.042597   -0.379014
      9          1           0        4.030018   -3.108762   -1.449237
     10          1           0        4.057224   -4.071210    0.038131
     11          6           0        3.483212    0.600616    0.504612
     12          6           0        3.868468    1.957270   -0.086195
     13          6           0        3.240572    3.130075    0.667508
     14          1           0        2.388968    0.501108    0.493562
     15          1           0        3.789458    0.566764    1.559132
     16          1           0        3.561442    1.987824   -1.139484
     17          1           0        4.961727    2.053615   -0.075307
     18          1           0        3.556375    3.127713    1.715775
     19          1           0        2.148133    3.061548    0.645552
     20          1           0        3.529168    4.090161    0.228407
     21          6           0       -0.577857    0.618449   -0.636332
     22          6           0       -1.599028    1.562769   -0.784627
     23          6           0       -2.924402    1.227071   -0.492667
     24          6           0       -3.194063   -0.067908   -0.052663
     25          6           0       -2.198642   -1.030995    0.105103
     26          6           0       -0.880390   -0.673141   -0.192722
     27          1           0        0.448959    0.887832   -0.865411
     28          1           0       -1.367016    2.566586   -1.128957
     29          1           0       -3.734368    1.938509   -0.598633
     30          1           0       -2.460876   -2.023722    0.450275
     31          1           0       -0.089369   -1.408569   -0.076628
     32          7           0       -4.593408   -0.435023    0.259526
     33          8           0       -4.804848   -1.582595    0.645543
     34          8           0       -5.452276    0.431755    0.112292
 ---------------------------------------------------------------------

 SCF Done:  E(RHF) =  -669.535323592     A.U. after   15 cycles
 E2 =    -0.2092198400D+01 EUMP2 =    -0.67162752199199D+03

 The electronic state is 1-A.
 Alpha  occ. eigenvalues --  -20.60763 -20.60758 -15.85817 -11.31194 -11.27760
 Alpha  occ. eigenvalues --  -11.27756 -11.27486 -11.26781 -11.26771 -11.22665
 Alpha  occ. eigenvalues --  -11.22649 -11.22523 -11.22410 -11.22047 -11.21889
 Alpha  occ. eigenvalues --   -1.59838  -1.39391  -1.19365  -1.09508  -1.08758
 Alpha  occ. eigenvalues --   -1.04768  -1.04535  -0.96962  -0.95594  -0.87972
 Alpha  occ. eigenvalues --   -0.86167  -0.82427  -0.80594  -0.79318  -0.77468
 Alpha  occ. eigenvalues --   -0.72035  -0.71161  -0.70516  -0.66179  -0.65015
 Alpha  occ. eigenvalues --   -0.64747  -0.62139  -0.61929  -0.60325  -0.58568
 Alpha  occ. eigenvalues --   -0.56285  -0.55261  -0.53627  -0.53367  -0.53095
 Alpha  occ. eigenvalues --   -0.52863  -0.50905  -0.48903  -0.48789  -0.48785
 Alpha  occ. eigenvalues --   -0.47647  -0.46831  -0.46787  -0.44797  -0.44794
 Alpha  occ. eigenvalues --   -0.37335  -0.36369
 Alpha virt. eigenvalues --    0.05039   0.11238   0.16422   0.17861   0.21717
 Alpha virt. eigenvalues --    0.23212   0.24991   0.25787   0.26851   0.27533
 Alpha virt. eigenvalues --    0.29433   0.30679   0.30921   0.31086   0.32275

 Mulliken charges:
               1
     1  C   -0.299418
     2  C   -0.301423
     3  C   -0.476383
     4  H    0.147927
     5  H    0.154630
     6  H    0.144438
     7  H    0.156523
     8  H    0.158509
     9  H    0.155745
    10  H    0.163001
    11  C   -0.303355
    12  C   -0.301900
    13  C   -0.475915
    14  H    0.142257
    15  H    0.155805
    16  H    0.148507
    17  H    0.157286
    18  H    0.159937
    19  H    0.149994
    20  H    0.163496
    21  C   -0.175520
    22  C   -0.219452
    23  C   -0.170837
    24  C    0.158797
    25  C   -0.171494
    26  C   -0.223452
    27  H    0.231200
    28  H    0.223767
    29  H    0.275670
    30  H    0.276048
    31  H    0.228281
    32  N    0.488030
    33  O   -0.460323
    34  O   -0.460375
 Sum of Mulliken charges =  -0.00000

 Dipole moment (field-independent basis, Debye):
    X=              5.1779    Y=              1.2910    Z=             -1.0387  Tot=              5.4366
 Quadrupole moment (field-independent basis, Debye-Ang):
   XX=           -124.5514   YY=            -91.2746   ZZ=            -94.9242
   XY=             -5.7287   XZ=              4.6291   YZ=             -1.6429

 Normal termination of Gaussian 16 at Thu May  6 13:44:05 2021.
