 Gaussian 16, Revision A.03,
 Gaussian 16:  EM64L-G16RevA.03 25-Dec-2016

 -------------
 #p 6-31g* mp2
 -------------

 ------------------------------------------------------
 Input file generated by CHIRIPA (05-May-2021 14:51:10)
 ------------------------------------------------------
 Symbolic Z-matrix:
 Charge =  0 Multiplicity = 1

                         Standard orientation:
 ---------------------------------------------------------------------
 Center     Atomic      Atomic             Coordinates (Angstroms)
 Number     Number       Type             X           Y           Z
 ---------------------------------------------------------------------
      1          6           0       -4.364138   -0.345265    0.369780
      2          6           0       -5.473405   -0.323733   -0.682383
      3          6           0       -6.836985   -0.714860   -0.111889
      4          1           0       -4.304493   -1.350058    0.809981
      5          1           0       -4.630493    0.338857    1.187355
      6          1           0       -5.204386   -1.006648   -1.498393
      7          1           0       -5.530288    0.681075   -1.120266
      8          1           0       -7.131156   -0.028051    0.688335
      9          1           0       -6.803402   -1.725363    0.308059
     10          1           0       -7.615279   -0.692819   -0.881065
     11          6           0       -2.995017    0.043479   -0.185300
     12          6           0       -1.885750    0.021947    0.866864
     13          6           0       -0.522170    0.413074    0.296369
     14          1           0       -2.728662   -0.640643   -1.002874
     15          1           0       -3.054662    1.048272   -0.625501
     16          1           0       -1.828867   -0.982861    1.304746
     17          1           0       -2.154769    0.704862    1.682874
     18          1           0       -0.555753    1.423577   -0.123579
     19          1           0       -0.227999   -0.273735   -0.503855
     20          1           0        0.256124    0.391033    1.065546
     21          6           0        3.322619    0.715503   -0.462683
     22          6           0        3.016329    1.923475    0.423303
     23          6           0        2.302101    3.044678   -0.332062
     24          1           0        3.940182    1.038791   -1.311827
     25          1           0        2.383792    0.333092   -0.886667
     26          1           0        3.955304    2.302647    0.846591
     27          1           0        2.399583    1.597240    1.270539
     28          1           0        1.350910    2.688691   -0.740851
     29          1           0        2.915470    3.398107   -1.167208
     30          1           0        2.092808    3.898266    0.320198
     31          6           0        4.036536   -0.413717    0.278203
     32          6           0        4.342826   -1.621690   -0.607783
     33          6           0        5.057054   -2.742892    0.147582
     34          1           0        4.975363   -0.031306    0.702187
     35          1           0        3.418972   -0.737004    1.127347
     36          1           0        4.959573   -1.295453   -1.455020
     37          1           0        3.403851   -2.000861   -1.031071
     38          1           0        4.443686   -3.096321    0.982727
     39          1           0        6.008246   -2.386905    0.556370
     40          1           0        5.266347   -3.596480   -0.504678
 ---------------------------------------------------------------------

 SCF Done:  E(RHF) =  -470.732161436     A.U. after   11 cycles
 E2 =    -0.1584006029D+01 EUMP2 =    -0.47231616746450D+03

 The electronic state is 1-A.
 Alpha  occ. eigenvalues --  -11.21664 -11.21630 -11.21559 -11.21485 -11.21452
 Alpha  occ. eigenvalues --  -11.21391 -11.21320 -11.21224 -11.21156 -11.21094
 Alpha  occ. eigenvalues --  -11.21041 -11.20935  -1.08486  -1.08341  -1.03612
 Alpha  occ. eigenvalues --   -1.03430  -0.96054  -0.95893  -0.87074  -0.86920
 Alpha  occ. eigenvalues --   -0.79675  -0.79515  -0.78300  -0.78152  -0.65113
 Alpha  occ. eigenvalues --   -0.64999  -0.61094  -0.60830  -0.59358  -0.59269
 Alpha  occ. eigenvalues --   -0.57680  -0.57501  -0.55584  -0.54970  -0.52723
 Alpha  occ. eigenvalues --   -0.52605  -0.52500  -0.52323  -0.50166  -0.49637
 Alpha  occ. eigenvalues --   -0.48048  -0.47813  -0.46681  -0.46497  -0.45901
 Alpha  occ. eigenvalues --   -0.45752  -0.45698  -0.45483  -0.43803  -0.43698
 Alpha virt. eigenvalues --    0.21003   0.22974   0.23948   0.24737   0.25735
 Alpha virt. eigenvalues --    0.26063   0.26448   0.27711   0.27823   0.29340
 Alpha virt. eigenvalues --    0.30526   0.30928   0.31510   0.31854   0.32468

 Mulliken charges:
               1
     1  C   -0.298277
     2  C   -0.299674
     3  C   -0.475735
     4  H    0.149708
     5  H    0.149666
     6  H    0.151963
     7  H    0.152049
     8  H    0.155246
     9  H    0.155207
    10  H    0.160372
    11  C   -0.298805
    12  C   -0.300409
    13  C   -0.481358
    14  H    0.149530
    15  H    0.149851
    16  H    0.151892
    17  H    0.152279
    18  H    0.158728
    19  H    0.154952
    20  H    0.164222
    21  C   -0.303019
    22  C   -0.300125
    23  C   -0.479668
    24  H    0.148997
    25  H    0.156151
    26  H    0.151459
    27  H    0.152824
    28  H    0.160105
    29  H    0.154456
    30  H    0.159037
    31  C   -0.298202
    32  C   -0.299453
    33  C   -0.475642
    34  H    0.149259
    35  H    0.148871
    36  H    0.151884
    37  H    0.151501
    38  H    0.155009
    39  H    0.155144
    40  H    0.160008
 Sum of Mulliken charges =  -0.00000

 Dipole moment (field-independent basis, Debye):
    X=             -0.0612    Y=             -0.0052    Z=             -0.0063  Tot=              0.0618
 Quadrupole moment (field-independent basis, Debye-Ang):
   XX=            -85.5087   YY=            -84.6440   ZZ=            -84.9366
   XY=              0.2912   XZ=             -0.2195   YZ=              0.5505

 Normal termination of Gaussian 16 at Wed May  5 18:11:54 2021.
