 Gaussian 16, Revision A.03,
 Gaussian 16:  EM64L-G16RevA.03 25-Dec-2016

 -------------
 #p 6-31g* mp2
 -------------

 ------------------------------------------------------
 Input file generated by CHIRIPA (05-May-2021 14:53:17)
 ------------------------------------------------------
 Symbolic Z-matrix:
 Charge =  0 Multiplicity = 1

                         Standard orientation:
 ---------------------------------------------------------------------
 Center     Atomic      Atomic             Coordinates (Angstroms)
 Number     Number       Type             X           Y           Z
 ---------------------------------------------------------------------
      1          6           0       -3.714756    0.084821   -0.549566
      2          6           0       -4.050890   -1.338912   -0.104611
      3          6           0       -4.915492   -2.086951   -1.119842
      4          1           0       -4.647983    0.639530   -0.717879
      5          1           0       -3.195292    0.046141   -1.517065
      6          1           0       -4.568339   -1.297639    0.862425
      7          1           0       -3.116753   -1.890239    0.062847
      8          1           0       -4.402743   -2.157712   -2.084561
      9          1           0       -5.862576   -1.561745   -1.280440
     10          1           0       -5.143839   -3.102523   -0.781711
     11          6           0       -2.850935    0.845434    0.454928
     12          6           0       -2.514801    2.269167    0.009974
     13          6           0       -1.650199    3.017206    1.025205
     14          1           0       -3.370399    0.884114    1.422428
     15          1           0       -1.917708    0.290725    0.623242
     16          1           0       -3.448938    2.820494   -0.157485
     17          1           0       -1.997352    2.227894   -0.957063
     18          1           0       -0.703115    2.492000    1.185803
     19          1           0       -2.162948    3.087967    1.989924
     20          1           0       -1.421852    4.032777    0.687073
     21          6           0        1.700836   -2.534385    0.988998
     22          6           0        1.022749   -1.338299    1.246094
     23          6           0        1.492323   -0.129494    0.723754
     24          6           0        2.648241   -0.153496   -0.055071
     25          6           0        3.346035   -1.328792   -0.329030
     26          6           0        2.858273   -2.525829    0.203640
     27          1           0        1.328995   -3.468843    1.398777
     28          1           0        0.123615   -1.341935    1.855676
     29          1           0        0.986961    0.810942    0.907076
     30          1           0        4.239673   -1.293467   -0.940244
     31          1           0        3.386937   -3.453209    0.002329
     32          7           0        3.154984    1.119983   -0.613518
     33          8           0        4.175598    1.072074   -1.296663
     34          8           0        2.521960    2.141930   -0.357508
 ---------------------------------------------------------------------

 SCF Done:  E(RHF) =  -669.535487042     A.U. after   15 cycles
 E2 =    -0.2092221373D+01 EUMP2 =    -0.67162770841492D+03

 The electronic state is 1-A.
 Alpha  occ. eigenvalues --  -20.60788 -20.60783 -15.85840 -11.31213 -11.27790
 Alpha  occ. eigenvalues --  -11.27780 -11.27528 -11.26805 -11.26790 -11.22048
 Alpha  occ. eigenvalues --  -11.21855 -11.21760 -11.21720 -11.21429 -11.21218
 Alpha  occ. eigenvalues --   -1.59863  -1.39416  -1.19392  -1.08791  -1.08780
 Alpha  occ. eigenvalues --   -1.04798  -1.03831  -0.96278  -0.95617  -0.87293
 Alpha  occ. eigenvalues --   -0.86192  -0.82449  -0.79897  -0.78633  -0.77489
 Alpha  occ. eigenvalues --   -0.72059  -0.71186  -0.70509  -0.65434  -0.65039
 Alpha  occ. eigenvalues --   -0.64805  -0.62194  -0.61175  -0.59641  -0.57893
 Alpha  occ. eigenvalues --   -0.55599  -0.55280  -0.53126  -0.52951  -0.52932
 Alpha  occ. eigenvalues --   -0.52640  -0.50223  -0.48819  -0.48814  -0.48210
 Alpha  occ. eigenvalues --   -0.46927  -0.46170  -0.46063  -0.44819  -0.44093
 Alpha  occ. eigenvalues --   -0.37370  -0.36388
 Alpha virt. eigenvalues --    0.05011   0.11238   0.16394   0.19391   0.22924
 Alpha virt. eigenvalues --    0.23473   0.25066   0.26338   0.26886   0.28344
 Alpha virt. eigenvalues --    0.29415   0.30646   0.31385   0.31589   0.31793

 Mulliken charges:
               1
     1  C   -0.298219
     2  C   -0.299331
     3  C   -0.475866
     4  H    0.152070
     5  H    0.152498
     6  H    0.151471
     7  H    0.146899
     8  H    0.156624
     9  H    0.156948
    10  H    0.159625
    11  C   -0.300389
    12  C   -0.301645
    13  C   -0.478426
    14  H    0.149133
    15  H    0.140612
    16  H    0.153789
    17  H    0.158121
    18  H    0.152669
    19  H    0.153480
    20  H    0.169156
    21  C   -0.170694
    22  C   -0.224977
    23  C   -0.179937
    24  C    0.156495
    25  C   -0.169589
    26  C   -0.219111
    27  H    0.226000
    28  H    0.226179
    29  H    0.291795
    30  H    0.275828
    31  H    0.223656
    32  N    0.486347
    33  O   -0.460178
    34  O   -0.461033
 Sum of Mulliken charges =  -0.00000

 Dipole moment (field-independent basis, Debye):
    X=             -1.8423    Y=             -4.3792    Z=              1.8748  Tot=              5.1075
 Quadrupole moment (field-independent basis, Debye-Ang):
   XX=           -101.0523   YY=            -92.4318   ZZ=            -94.9546
   XY=            -14.8673   XZ=              2.9077   YZ=              0.7839

 Normal termination of Gaussian 16 at Thu May  6 20:29:42 2021.
