 Gaussian 16, Revision A.03,
 Gaussian 16:  EM64L-G16RevA.03 25-Dec-2016

 -------------
 #p 6-31g* mp2
 -------------

 ------------------------------------------------------
 Input file generated by CHIRIPA (05-May-2021 14:53:17)
 ------------------------------------------------------
 Symbolic Z-matrix:
 Charge =  0 Multiplicity = 1

                         Standard orientation:
 ---------------------------------------------------------------------
 Center     Atomic      Atomic             Coordinates (Angstroms)
 Number     Number       Type             X           Y           Z
 ---------------------------------------------------------------------
      1          6           0        3.651036   -0.170254    0.176628
      2          6           0        3.763393   -1.583883   -0.395224
      3          6           0        4.760454   -2.453910    0.370750
      4          1           0        4.641652    0.304493    0.161145
      5          1           0        3.350411   -0.231869    1.231721
      6          1           0        4.062373   -1.519571   -1.449307
      7          1           0        2.772358   -2.055251   -0.378556
      8          1           0        4.463083   -2.547769    1.420208
      9          1           0        5.760428   -2.009045    0.343373
     10          1           0        4.825025   -3.460160   -0.054868
     11          6           0        2.658095    0.711564   -0.578484
     12          6           0        2.545738    2.125193   -0.006632
     13          6           0        1.548677    2.995220   -0.772606
     14          1           0        2.958720    0.773180   -1.633578
     15          1           0        1.667479    0.236817   -0.563002
     16          1           0        3.536773    2.596561   -0.023300
     17          1           0        2.246758    2.060881    1.047451
     18          1           0        0.548704    2.550355   -0.745229
     19          1           0        1.846048    3.089079   -1.822064
     20          1           0        1.484106    4.001471   -0.346988
     21          6           0       -1.916616    2.199825    0.658471
     22          6           0       -3.082344    1.878471   -0.044617
     23          6           0       -3.395965    0.545865   -0.328077
     24          6           0       -2.517472   -0.444562    0.108492
     25          6           0       -1.348432   -0.156280    0.811008
     26          6           0       -1.054900    1.183215    1.083290
     27          1           0       -1.680790    3.237702    0.874328
     28          1           0       -3.753408    2.665908   -0.375769
     29          1           0       -4.291728    0.268945   -0.870610
     30          1           0       -0.698918   -0.963110    1.128142
     31          1           0       -0.148878    1.429834    1.629504
     32          7           0       -2.838855   -1.858980   -0.185678
     33          8           0       -2.048492   -2.713080    0.209893
     34          8           0       -3.875032   -2.086718   -0.806248
 ---------------------------------------------------------------------

 SCF Done:  E(RHF) =  -669.534115937     A.U. after   15 cycles
 E2 =    -0.2094311058D+01 EUMP2 =    -0.67162842699416D+03

 The electronic state is 1-A.
 Alpha  occ. eigenvalues --  -20.60836 -20.60831 -15.85891 -11.31287 -11.27850
 Alpha  occ. eigenvalues --  -11.27846 -11.27563 -11.26868 -11.26838 -11.22338
 Alpha  occ. eigenvalues --  -11.21867 -11.21801 -11.21744 -11.21633 -11.21180
 Alpha  occ. eigenvalues --   -1.59911  -1.39464  -1.19469  -1.08933  -1.08817
 Alpha  occ. eigenvalues --   -1.04879  -1.03954  -0.96407  -0.95674  -0.87422
 Alpha  occ. eigenvalues --   -0.86264  -0.82509  -0.80044  -0.78666  -0.77558
 Alpha  occ. eigenvalues --   -0.72109  -0.71235  -0.70558  -0.65689  -0.65117
 Alpha  occ. eigenvalues --   -0.64798  -0.62270  -0.61274  -0.59787  -0.57999
 Alpha  occ. eigenvalues --   -0.55739  -0.55350  -0.53274  -0.53088  -0.52947
 Alpha  occ. eigenvalues --   -0.52739  -0.50338  -0.48871  -0.48862  -0.48325
 Alpha  occ. eigenvalues --   -0.47091  -0.46201  -0.46129  -0.44863  -0.44213
 Alpha  occ. eigenvalues --   -0.37364  -0.36419
 Alpha virt. eigenvalues --    0.04924   0.11098   0.16298   0.19459   0.23049
 Alpha virt. eigenvalues --    0.24000   0.25402   0.26226   0.27103   0.28853
 Alpha virt. eigenvalues --    0.29400   0.29927   0.31175   0.31664   0.32094

 Mulliken charges:
               1
     1  C   -0.298153
     2  C   -0.301022
     3  C   -0.475851
     4  H    0.150919
     5  H    0.144808
     6  H    0.153543
     7  H    0.155692
     8  H    0.154847
     9  H    0.154673
    10  H    0.163404
    11  C   -0.302525
    12  C   -0.300260
    13  C   -0.487066
    14  H    0.153451
    15  H    0.151123
    16  H    0.156203
    17  H    0.140847
    18  H    0.164249
    19  H    0.159450
    20  H    0.154799
    21  C   -0.172165
    22  C   -0.218486
    23  C   -0.170870
    24  C    0.158469
    25  C   -0.172752
    26  C   -0.220393
    27  H    0.228563
    28  H    0.224278
    29  H    0.276097
    30  H    0.275817
    31  H    0.230506
    32  N    0.488157
    33  O   -0.460357
    34  O   -0.459996
 Sum of Mulliken charges =  -0.00000

 Dipole moment (field-independent basis, Debye):
    X=              1.0963    Y=              4.8997    Z=              0.9469  Tot=              5.1093
 Quadrupole moment (field-independent basis, Debye-Ang):
   XX=            -96.7042   YY=            -99.9468   ZZ=            -93.9039
   XY=            -14.2322   XZ=             -1.3096   YZ=             -0.5692

 Normal termination of Gaussian 16 at Wed May  5 15:43:13 2021.
