 Gaussian 16, Revision A.03,
 Gaussian 16:  EM64L-G16RevA.03 25-Dec-2016

 -------------
 #p 6-31g* mp2
 -------------

 ------------------------------------------------------
 Input file generated by CHIRIPA (05-May-2021 14:51:09)
 ------------------------------------------------------
 Symbolic Z-matrix:
 Charge =  0 Multiplicity = 1

                         Standard orientation:
 ---------------------------------------------------------------------
 Center     Atomic      Atomic             Coordinates (Angstroms)
 Number     Number       Type             X           Y           Z
 ---------------------------------------------------------------------
      1          6           0        2.612490   -1.023969   -0.104957
      2          6           0        1.320789   -0.960553    0.710808
      3          6           0        0.325197   -2.055863    0.327550
      4          1           0        2.368511   -0.942310   -1.173017
      5          1           0        3.078215   -2.009340    0.034828
      6          1           0        0.858356    0.024900    0.570619
      7          1           0        1.567888   -1.042181    1.777061
      8          1           0        0.763380   -3.046814    0.484433
      9          1           0        0.049816   -1.973670   -0.728864
     10          1           0       -0.590931   -1.991888    0.922929
     11          6           0        3.617763    0.064629    0.266671
     12          6           0        4.909464    0.001213   -0.549094
     13          6           0        5.905056    1.096523   -0.165836
     14          1           0        3.152038    1.050000    0.126886
     15          1           0        3.861742   -0.017031    1.334731
     16          1           0        4.662365    0.082841   -1.615347
     17          1           0        5.371898   -0.984240   -0.408905
     18          1           0        6.180437    1.014330    0.890578
     19          1           0        5.466873    2.087474   -0.322719
     20          1           0        6.821185    1.032547   -0.761215
     21          6           0       -3.335423    1.210885   -0.095919
     22          6           0       -2.182123    2.195764    0.098750
     23          6           0       -2.638694    3.654625    0.066172
     24          1           0       -3.830319    1.420386   -1.054111
     25          1           0       -4.087514    1.378261    0.687498
     26          1           0       -1.431782    2.025654   -0.683980
     27          1           0       -1.689796    1.983771    1.056501
     28          1           0       -3.370733    3.846942    0.857205
     29          1           0       -3.111254    3.889063   -0.893165
     30          1           0       -1.798384    4.341526    0.207272
     31          6           0       -2.894830   -0.251545   -0.065796
     32          6           0       -4.048130   -1.236424   -0.260464
     33          6           0       -3.591560   -2.695285   -0.227887
     34          1           0       -2.142739   -0.418921   -0.849212
     35          1           0       -2.399934   -0.461045    0.892396
     36          1           0       -4.540458   -1.024431   -1.218215
     37          1           0       -4.798472   -1.066314    0.522266
     38          1           0       -3.119000   -2.929722    0.731450
     39          1           0       -2.859520   -2.887601   -1.018920
     40          1           0       -4.431869   -3.382185   -0.368985
 ---------------------------------------------------------------------

 SCF Done:  E(RHF) =  -470.731979043     A.U. after   11 cycles
 E2 =    -0.1584266281D+01 EUMP2 =    -0.47231624532325D+03

 The electronic state is 1-A.
 Alpha  occ. eigenvalues --  -11.21635 -11.21582 -11.21578 -11.21510 -11.21385
 Alpha  occ. eigenvalues --  -11.21363 -11.21309 -11.21302 -11.21096 -11.21054
 Alpha  occ. eigenvalues --  -11.21025 -11.20890  -1.08451  -1.08362  -1.03554
 Alpha  occ. eigenvalues --   -1.03450  -0.95980  -0.95915  -0.87004  -0.86933
 Alpha  occ. eigenvalues --   -0.79693  -0.79451  -0.78249  -0.78194  -0.65092
 Alpha  occ. eigenvalues --   -0.64996  -0.60965  -0.60853  -0.59525  -0.59138
 Alpha  occ. eigenvalues --   -0.57630  -0.57498  -0.55270  -0.55211  -0.52737
 Alpha  occ. eigenvalues --   -0.52581  -0.52481  -0.52273  -0.49926  -0.49879
 Alpha  occ. eigenvalues --   -0.47990  -0.47786  -0.46658  -0.46525  -0.45820
 Alpha  occ. eigenvalues --   -0.45753  -0.45614  -0.45579  -0.43782  -0.43639
 Alpha virt. eigenvalues --    0.21206   0.23083   0.23486   0.24288   0.24995
 Alpha virt. eigenvalues --    0.26182   0.27164   0.27394   0.28051   0.29646
 Alpha virt. eigenvalues --    0.29937   0.31174   0.31764   0.32296   0.32427

 Mulliken charges:
               1
     1  C   -0.298085
     2  C   -0.303555
     3  C   -0.476704
     4  H    0.149038
     5  H    0.149465
     6  H    0.154627
     7  H    0.150996
     8  H    0.153397
     9  H    0.153675
    10  H    0.166013
    11  C   -0.298183
    12  C   -0.299573
    13  C   -0.475664
    14  H    0.149465
    15  H    0.149503
    16  H    0.151757
    17  H    0.151887
    18  H    0.155134
    19  H    0.155111
    20  H    0.160145
    21  C   -0.297780
    22  C   -0.300829
    23  C   -0.475693
    24  H    0.149377
    25  H    0.149307
    26  H    0.151531
    27  H    0.152808
    28  H    0.155405
    29  H    0.155252
    30  H    0.160215
    31  C   -0.300980
    32  C   -0.299833
    33  C   -0.476643
    34  H    0.152919
    35  H    0.151099
    36  H    0.151566
    37  H    0.151453
    38  H    0.155472
    39  H    0.157140
    40  H    0.159761
 Sum of Mulliken charges =  -0.00000

 Dipole moment (field-independent basis, Debye):
    X=             -0.0417    Y=             -0.0016    Z=              0.0001  Tot=              0.0418
 Quadrupole moment (field-independent basis, Debye-Ang):
   XX=            -85.4612   YY=            -86.2148   ZZ=            -83.2676
   XY=             -0.6069   XZ=              0.0049   YZ=             -0.5785

 Normal termination of Gaussian 16 at Thu May  6 02:08:22 2021.
