 Gaussian 16, Revision A.03,
 Gaussian 16:  EM64L-G16RevA.03 25-Dec-2016

 -------------
 #p 6-31g* mp2
 -------------

 ------------------------------------------------------
 Input file generated by CHIRIPA (05-May-2021 14:53:17)
 ------------------------------------------------------
 Symbolic Z-matrix:
 Charge =  0 Multiplicity = 1

                         Standard orientation:
 ---------------------------------------------------------------------
 Center     Atomic      Atomic             Coordinates (Angstroms)
 Number     Number       Type             X           Y           Z
 ---------------------------------------------------------------------
      1          6           0       -3.419364    0.741875   -0.402177
      2          6           0       -3.766780    2.082412    0.246088
      3          6           0       -3.298748    3.278875   -0.582896
      4          1           0       -2.332330    0.684299   -0.550458
      5          1           0       -3.873958    0.697032   -1.401542
      6          1           0       -3.312819    2.124146    1.244484
      7          1           0       -4.853094    2.136722    0.393018
      8          1           0       -3.761734    3.264972   -1.574890
      9          1           0       -2.212707    3.252324   -0.718586
     10          1           0       -3.557367    4.226930   -0.101058
     11          6           0       -3.880783   -0.463746    0.414707
     12          6           0       -3.533367   -1.804282   -0.233559
     13          6           0       -4.001400   -3.000746    0.595426
     14          1           0       -3.426189   -0.418903    1.414071
     15          1           0       -4.967817   -0.406170    0.562987
     16          1           0       -2.447053   -1.858593   -0.380488
     17          1           0       -3.987329   -1.846016   -1.231954
     18          1           0       -5.087441   -2.974194    0.731116
     19          1           0       -3.538414   -2.986843    1.587419
     20          1           0       -3.742781   -3.948800    0.113587
     21          6           0        5.320426    0.377606    0.180808
     22          6           0        4.386568    1.308763    0.647046
     23          6           0        3.016174    1.049903    0.549282
     24          6           0        2.612945   -0.155653   -0.022847
     25          6           0        3.518936   -1.103348   -0.496498
     26          6           0        4.884398   -0.823361   -0.388472
     27          1           0        6.383065    0.586900    0.260739
     28          1           0        4.722308    2.242282    1.089613
     29          1           0        2.271652    1.753161    0.902176
     30          1           0        3.153850   -2.025152   -0.932856
     31          1           0        5.607384   -1.548356   -0.751403
     32          7           0        1.164781   -0.440880   -0.131778
     33          8           0        0.835205   -1.510384   -0.639889
     34          8           0        0.386707    0.410464    0.293017
 ---------------------------------------------------------------------

 SCF Done:  E(RHF) =  -669.537202835     A.U. after   15 cycles
 E2 =    -0.2091798847D+01 EUMP2 =    -0.67162900168152D+03

 The electronic state is 1-A.
 Alpha  occ. eigenvalues --  -20.61223 -20.61210 -15.86208 -11.31442 -11.27988
 Alpha  occ. eigenvalues --  -11.27984 -11.27710 -11.26973 -11.26964 -11.20285
 Alpha  occ. eigenvalues --  -11.19993 -11.19909 -11.19804 -11.19764 -11.19580
 Alpha  occ. eigenvalues --   -1.60248  -1.39808  -1.19596  -1.09019  -1.06863
 Alpha  occ. eigenvalues --   -1.04977  -1.02122  -0.95874  -0.94596  -0.86382
 Alpha  occ. eigenvalues --   -0.85628  -0.82712  -0.78175  -0.77776  -0.76655
 Alpha  occ. eigenvalues --   -0.72424  -0.71547  -0.70704  -0.65254  -0.64981
 Alpha  occ. eigenvalues --   -0.63465  -0.62324  -0.59512  -0.57979  -0.56211
 Alpha  occ. eigenvalues --   -0.55487  -0.53884  -0.53314  -0.53067  -0.51359
 Alpha  occ. eigenvalues --   -0.51046  -0.49232  -0.49192  -0.48522  -0.46509
 Alpha  occ. eigenvalues --   -0.45277  -0.45128  -0.44243  -0.43947  -0.42327
 Alpha  occ. eigenvalues --   -0.37570  -0.36573
 Alpha virt. eigenvalues --    0.04740   0.11084   0.16256   0.21215   0.24419
 Alpha virt. eigenvalues --    0.25596   0.27154   0.27946   0.28322   0.29079
 Alpha virt. eigenvalues --    0.29481   0.30858   0.32256   0.32697   0.33109

 Mulliken charges:
               1
     1  C   -0.310136
     2  C   -0.296987
     3  C   -0.475619
     4  H    0.179410
     5  H    0.141197
     6  H    0.151251
     7  H    0.145740
     8  H    0.151834
     9  H    0.157677
    10  H    0.153850
    11  C   -0.294776
    12  C   -0.307324
    13  C   -0.474253
    14  H    0.149380
    15  H    0.141120
    16  H    0.174841
    17  H    0.145394
    18  H    0.149348
    19  H    0.153167
    20  H    0.156693
    21  C   -0.170229
    22  C   -0.218573
    23  C   -0.170583
    24  C    0.157713
    25  C   -0.170341
    26  C   -0.218616
    27  H    0.226576
    28  H    0.224408
    29  H    0.275989
    30  H    0.276220
    31  H    0.224367
    32  N    0.489958
    33  O   -0.458407
    34  O   -0.460288
 Sum of Mulliken charges =  -0.00000

 Dipole moment (field-independent basis, Debye):
    X=              5.6963    Y=              0.9429    Z=              0.3634  Tot=              5.7853
 Quadrupole moment (field-independent basis, Debye-Ang):
   XX=            -69.6495   YY=            -93.1610   ZZ=            -94.7688
   XY=              0.6651   XZ=              1.0196   YZ=              2.7947

 Normal termination of Gaussian 16 at Wed May  5 23:36:41 2021.
