 Gaussian 16, Revision A.03,
 Gaussian 16:  EM64L-G16RevA.03 25-Dec-2016

 -------------
 #p 6-31g* mp2
 -------------

 ------------------------------------------------------
 Input file generated by CHIRIPA (05-May-2021 14:57:26)
 ------------------------------------------------------
 Symbolic Z-matrix:
 Charge =  0 Multiplicity = 1

                         Standard orientation:
 ---------------------------------------------------------------------
 Center     Atomic      Atomic             Coordinates (Angstroms)
 Number     Number       Type             X           Y           Z
 ---------------------------------------------------------------------
      1          6           0       -3.751738    2.338868    0.575877
      2          6           0       -3.485488    1.346313    1.524806
      3          6           0       -3.020458    0.089523    1.126340
      4          6           0       -2.831982   -0.141480   -0.235425
      5          6           0       -3.088261    0.826904   -1.204880
      6          6           0       -3.552626    2.076458   -0.783541
      7          1           0       -4.112727    3.312362    0.894299
      8          1           0       -3.639205    1.547288    2.581227
      9          1           0       -2.806400   -0.696989    1.839780
     10          1           0       -2.925374    0.596894   -2.250816
     11          1           0       -3.758567    2.845392   -1.522712
     12          7           0       -2.340028   -1.468158   -0.669370
     13          8           0       -2.182131   -1.646625   -1.875129
     14          8           0       -2.121646   -2.304419    0.204479
     15          6           0        4.556927    1.499614   -0.921166
     16          6           0        4.397533    1.501980    0.468477
     17          6           0        3.489632    0.632665    1.080487
     18          6           0        2.754140   -0.229610    0.268806
     19          6           0        2.890397   -0.255708   -1.118292
     20          6           0        3.804178    0.622324   -1.708727
     21          1           0        5.264490    2.178304   -1.388209
     22          1           0        4.980788    2.182203    1.082606
     23          1           0        3.346335    0.613548    2.154041
     24          1           0        2.294857   -0.945279   -1.704160
     25          1           0        3.925879    0.618292   -2.788180
     26          7           0        1.789873   -1.154528    0.905293
     27          8           0        1.153827   -1.904492    0.167975
     28          8           0        1.688386   -1.112003    2.129437
 ---------------------------------------------------------------------

 SCF Done:  E(RHF) =  -868.336116311     A.U. after   16 cycles
 E2 =    -0.2600633755D+01 EUMP2 =    -0.87093675006568D+03

 The electronic state is 1-A.
 Alpha  occ. eigenvalues --  -20.60274 -20.60200 -20.59769 -20.59608 -15.85292
 Alpha  occ. eigenvalues --  -15.84748 -11.30856 -11.30470 -11.27482 -11.27403
 Alpha  occ. eigenvalues --  -11.27248 -11.27131 -11.27020 -11.26919 -11.26535
 Alpha  occ. eigenvalues --  -11.26490 -11.26223 -11.26152  -1.59323  -1.58740
 Alpha  occ. eigenvalues --   -1.38867  -1.38291  -1.19055  -1.18683  -1.08417
 Alpha  occ. eigenvalues --   -1.08015  -1.04482  -1.04136  -0.95212  -0.94787
 Alpha  occ. eigenvalues --   -0.85872  -0.85518  -0.82035  -0.81621  -0.77051
 Alpha  occ. eigenvalues --   -0.76600  -0.71524  -0.70971  -0.70718  -0.70164
 Alpha  occ. eigenvalues --   -0.69975  -0.69793  -0.64697  -0.64486  -0.64328
 Alpha  occ. eigenvalues --   -0.64147  -0.61818  -0.61473  -0.54985  -0.54643
 Alpha  occ. eigenvalues --   -0.52812  -0.52573  -0.52454  -0.52232  -0.48294
 Alpha  occ. eigenvalues --   -0.48237  -0.47750  -0.47701  -0.44295  -0.43516
 Alpha  occ. eigenvalues --   -0.37060  -0.36695  -0.36099  -0.35758
 Alpha virt. eigenvalues --    0.05463   0.05958   0.11551   0.11890   0.16917
 Alpha virt. eigenvalues --    0.17371   0.21679   0.21972   0.27583   0.27863
 Alpha virt. eigenvalues --    0.28605   0.28915   0.31208   0.31490   0.32903

 Mulliken charges:
               1
     1  C   -0.172443
     2  C   -0.219124
     3  C   -0.169636
     4  C    0.158519
     5  C   -0.173032
     6  C   -0.219083
     7  H    0.222326
     8  H    0.222347
     9  H    0.281456
    10  H    0.272487
    11  H    0.219617
    12  N    0.489980
    13  O   -0.469084
    14  O   -0.444480
    15  C   -0.171657
    16  C   -0.218891
    17  C   -0.171907
    18  C    0.157551
    19  C   -0.172543
    20  C   -0.219123
    21  H    0.223968
    22  H    0.221474
    23  H    0.273879
    24  H    0.281699
    25  H    0.223276
    26  N    0.485455
    27  O   -0.447618
    28  O   -0.465412
 Sum of Mulliken charges =  -0.00000

 Dipole moment (field-independent basis, Debye):
    X=              1.6948    Y=              7.5622    Z=             -0.6417  Tot=              7.7763
 Quadrupole moment (field-independent basis, Debye-Ang):
   XX=            -78.6315   YY=           -107.6898   ZZ=            -98.6398
   XY=             -3.9847   XZ=             -8.5051   YZ=              0.2107

 Normal termination of Gaussian 16 at Thu May  6 02:00:14 2021.
