 Gaussian 16, Revision A.03,
 Gaussian 16:  EM64L-G16RevA.03 25-Dec-2016

 -------------
 #p 6-31g* mp2
 -------------

 ------------------------------------------------------
 Input file generated by CHIRIPA (05-May-2021 14:55:25)
 ------------------------------------------------------
 Symbolic Z-matrix:
 Charge =  0 Multiplicity = 1

                         Standard orientation:
 ---------------------------------------------------------------------
 Center     Atomic      Atomic             Coordinates (Angstroms)
 Number     Number       Type             X           Y           Z
 ---------------------------------------------------------------------
      1          6           0        2.985827   -2.588967    0.521210
      2          6           0        1.731065   -2.017319    0.756391
      3          6           0        1.497972   -0.670600    0.462175
      4          6           0        2.546908    0.078559   -0.068660
      5          6           0        3.808086   -0.462182   -0.314259
      6          6           0        4.018512   -1.810946   -0.012424
      7          1           0        3.158095   -3.635925    0.752723
      8          1           0        0.927214   -2.619135    1.170740
      9          1           0        0.536307   -0.202630    0.634289
     10          1           0        4.589868    0.163081   -0.728120
     11          1           0        4.993997   -2.252231   -0.196113
     12          7           0        2.312141    1.505352   -0.384166
     13          8           0        3.252748    2.143966   -0.851142
     14          8           0        1.191968    1.958043   -0.158510
     15          6           0       -3.121600    0.908589   -0.194605
     16          6           0       -2.515543    1.745440    0.932498
     17          6           0       -2.144675    3.159657    0.485018
     18          1           0       -2.407724    0.855646   -1.027985
     19          1           0       -4.015304    1.418278   -0.580488
     20          1           0       -1.624037    1.233641    1.317071
     21          1           0       -3.230868    1.796236    1.763369
     22          1           0       -3.028737    3.692596    0.120311
     23          1           0       -1.412777    3.126804   -0.328522
     24          1           0       -1.713235    3.740415    1.306261
     25          6           0       -3.497535   -0.507708    0.237255
     26          6           0       -4.103594   -1.344558   -0.889848
     27          6           0       -4.474462   -2.758776   -0.442367
     28          1           0       -2.603832   -1.017397    0.623139
     29          1           0       -4.211413   -0.454765    1.070636
     30          1           0       -3.388268   -1.395356   -1.720718
     31          1           0       -4.995098   -0.832760   -1.274420
     32          1           0       -5.206359   -2.725923    0.371173
     33          1           0       -3.590399   -3.291715   -0.077660
     34          1           0       -4.905901   -3.339533   -1.263610
 ---------------------------------------------------------------------

 SCF Done:  E(RHF) =  -669.535855989     A.U. after   15 cycles
 E2 =    -0.2092179431D+01 EUMP2 =    -0.67162803541988D+03

 The electronic state is 1-A.
 Alpha  occ. eigenvalues --  -20.60925 -20.60912 -15.85962 -11.31281 -11.27845
 Alpha  occ. eigenvalues --  -11.27842 -11.27581 -11.26853 -11.26843 -11.21670
 Alpha  occ. eigenvalues --  -11.21438 -11.21254 -11.21083 -11.21022 -11.19922
 Alpha  occ. eigenvalues --   -1.59988  -1.39544  -1.19451  -1.08855  -1.08244
 Alpha  occ. eigenvalues --   -1.04848  -1.03202  -0.95721  -0.95612  -0.86649
 Alpha  occ. eigenvalues --   -0.86247  -0.82532  -0.79332  -0.78015  -0.77586
 Alpha  occ. eigenvalues --   -0.72200  -0.71303  -0.70562  -0.65121  -0.64949
 Alpha  occ. eigenvalues --   -0.64781  -0.62199  -0.60564  -0.59085  -0.57242
 Alpha  occ. eigenvalues --   -0.55351  -0.54905  -0.53179  -0.52944  -0.52301
 Alpha  occ. eigenvalues --   -0.52059  -0.49592  -0.48941  -0.48905  -0.47616
 Alpha  occ. eigenvalues --   -0.46384  -0.45554  -0.45443  -0.44934  -0.43487
 Alpha  occ. eigenvalues --   -0.37429  -0.36448
 Alpha virt. eigenvalues --    0.04932   0.11200   0.16430   0.19232   0.22899
 Alpha virt. eigenvalues --    0.24104   0.25520   0.27359   0.27840   0.28329
 Alpha virt. eigenvalues --    0.29774   0.30332   0.31550   0.31951   0.32653

 Mulliken charges:
               1
     1  C   -0.170232
     2  C   -0.221144
     3  C   -0.176017
     4  C    0.155931
     5  C   -0.169776
     6  C   -0.218965
     7  H    0.226074
     8  H    0.224282
     9  H    0.285133
    10  H    0.275822
    11  H    0.223809
    12  N    0.493069
    13  O   -0.458918
    14  O   -0.466953
    15  C   -0.300593
    16  C   -0.299784
    17  C   -0.477704
    18  H    0.153636
    19  H    0.150244
    20  H    0.148822
    21  H    0.147552
    22  H    0.147298
    23  H    0.178376
    24  H    0.159984
    25  C   -0.295447
    26  C   -0.299628
    27  C   -0.474642
    28  H    0.136681
    29  H    0.150382
    30  H    0.152058
    31  H    0.154144
    32  H    0.155798
    33  H    0.149918
    34  H    0.160792
 Sum of Mulliken charges =  -0.00000

 Dipole moment (field-independent basis, Debye):
    X=              0.9783    Y=             -4.8847    Z=              1.0047  Tot=              5.0820
 Quadrupole moment (field-independent basis, Debye-Ang):
   XX=            -85.5041   YY=            -96.9565   ZZ=            -95.2726
   XY=            -13.1800   XZ=              1.1338   YZ=              0.3478

 Normal termination of Gaussian 16 at Thu May  6 12:45:44 2021.
