 Gaussian 16, Revision A.03,
 Gaussian 16:  EM64L-G16RevA.03 25-Dec-2016

 -------------
 #p 6-31g* mp2
 -------------

 ------------------------------------------------------
 Input file generated by CHIRIPA (05-May-2021 14:57:26)
 ------------------------------------------------------
 Symbolic Z-matrix:
 Charge =  0 Multiplicity = 1

                         Standard orientation:
 ---------------------------------------------------------------------
 Center     Atomic      Atomic             Coordinates (Angstroms)
 Number     Number       Type             X           Y           Z
 ---------------------------------------------------------------------
      1          6           0        1.964694    2.005462   -0.376481
      2          6           0        3.190400    2.114268    0.288596
      3          6           0        4.043280    1.011199    0.390497
      4          6           0        3.637019   -0.190824   -0.186896
      5          6           0        2.422096   -0.330820   -0.855964
      6          6           0        1.585123    0.785417   -0.945635
      7          1           0        1.308335    2.867467   -0.450890
      8          1           0        3.487778    3.060519    0.731564
      9          1           0        4.997719    1.067558    0.899699
     10          1           0        2.153026   -1.287284   -1.287468
     11          1           0        0.633805    0.697996   -1.462738
     12          7           0        4.531505   -1.365564   -0.085491
     13          8           0        4.150481   -2.413409   -0.602676
     14          8           0        5.596689   -1.216236    0.509253
     15          6           0       -1.354390    1.133285    0.922049
     16          6           0       -1.778366   -0.032828    1.567763
     17          6           0       -2.959783   -0.670741    1.178060
     18          6           0       -3.696022   -0.112618    0.134153
     19          6           0       -3.299950    1.047968   -0.528763
     20          6           0       -2.115195    1.669017   -0.122312
     21          1           0       -0.435341    1.622280    1.231285
     22          1           0       -1.189529   -0.451137    2.379141
     23          1           0       -3.311257   -1.574601    1.660679
     24          1           0       -3.908147    1.441220   -1.334286
     25          1           0       -1.788367    2.574521   -0.625592
     26          7           0       -4.948502   -0.779021   -0.287274
     27          8           0       -5.579217   -0.267272   -1.209742
     28          8           0       -5.275764   -1.800478    0.312860
 ---------------------------------------------------------------------

 SCF Done:  E(RHF) =  -868.335864280     A.U. after   16 cycles
 E2 =    -0.2602458800D+01 EUMP2 =    -0.87093832308002D+03

 The electronic state is 1-A.
 Alpha  occ. eigenvalues --  -20.61401 -20.61394 -20.61265 -20.61254 -15.86454
 Alpha  occ. eigenvalues --  -15.86326 -11.32010 -11.31824 -11.28546 -11.28510
 Alpha  occ. eigenvalues --  -11.28500 -11.28417 -11.28408 -11.28182 -11.27691
 Alpha  occ. eigenvalues --  -11.27582 -11.27572 -11.27378  -1.60471  -1.60337
 Alpha  occ. eigenvalues --   -1.40018  -1.39886  -1.20201  -1.20045  -1.09632
 Alpha  occ. eigenvalues --   -1.09384  -1.05590  -1.05473  -0.96427  -0.96182
 Alpha  occ. eigenvalues --   -0.87027  -0.86841  -0.83192  -0.83038  -0.78183
 Alpha  occ. eigenvalues --   -0.78060  -0.72671  -0.72539  -0.71799  -0.71667
 Alpha  occ. eigenvalues --   -0.71545  -0.70985  -0.65864  -0.65735  -0.65601
 Alpha  occ. eigenvalues --   -0.65398  -0.62918  -0.62794  -0.56284  -0.55970
 Alpha  occ. eigenvalues --   -0.54097  -0.53767  -0.53559  -0.53455  -0.49442
 Alpha  occ. eigenvalues --   -0.49413  -0.49310  -0.49284  -0.45381  -0.45262
 Alpha  occ. eigenvalues --   -0.38578  -0.37880  -0.37105  -0.36954
 Alpha virt. eigenvalues --    0.04253   0.04462   0.10327   0.10546   0.15518
 Alpha virt. eigenvalues --    0.16011   0.19035   0.21782   0.25162   0.26635
 Alpha virt. eigenvalues --    0.27498   0.29124   0.30151   0.30633   0.31758

 Mulliken charges:
               1
     1  C   -0.184689
     2  C   -0.218649
     3  C   -0.171632
     4  C    0.159788
     5  C   -0.173000
     6  C   -0.216254
     7  H    0.220092
     8  H    0.225413
     9  H    0.277999
    10  H    0.279437
    11  H    0.230662
    12  N    0.487632
    13  O   -0.457474
    14  O   -0.458429
    15  C   -0.170147
    16  C   -0.221018
    17  C   -0.169244
    18  C    0.157696
    19  C   -0.169928
    20  C   -0.229908
    21  H    0.229499
    22  H    0.228176
    23  H    0.278970
    24  H    0.277174
    25  H    0.217241
    26  N    0.488089
    27  O   -0.459658
    28  O   -0.457838
 Sum of Mulliken charges =  -0.00000

 Dipole moment (field-independent basis, Debye):
    X=              1.3148    Y=              6.2189    Z=              1.1856  Tot=              6.4660
 Quadrupole moment (field-independent basis, Debye-Ang):
   XX=           -158.0843   YY=           -104.0509   ZZ=           -101.3830
   XY=              8.1270   XZ=             -3.3152   YZ=             -1.7590

 Normal termination of Gaussian 16 at Thu May  6 19:46:39 2021.
