 Gaussian 16, Revision A.03,
 Gaussian 16:  EM64L-G16RevA.03 25-Dec-2016

 -------------
 #p 6-31g* mp2
 -------------

 ------------------------------------------------------
 Input file generated by CHIRIPA (05-May-2021 14:55:25)
 ------------------------------------------------------
 Symbolic Z-matrix:
 Charge =  0 Multiplicity = 1

                         Standard orientation:
 ---------------------------------------------------------------------
 Center     Atomic      Atomic             Coordinates (Angstroms)
 Number     Number       Type             X           Y           Z
 ---------------------------------------------------------------------
      1          6           0        3.049955    2.490269    0.837054
      2          6           0        3.528730    2.181635   -0.440460
      3          6           0        3.345038    0.904232   -0.978090
      4          6           0        2.675130   -0.044563   -0.207179
      5          6           0        2.186472    0.232376    1.068676
      6          6           0        2.381532    1.516371    1.586224
      7          1           0        3.197067    3.485147    1.246897
      8          1           0        4.048200    2.935986   -1.024540
      9          1           0        3.705416    0.638332   -1.964417
     10          1           0        1.672479   -0.540575    1.627046
     11          1           0        2.008632    1.753234    2.578638
     12          7           0        2.474646   -1.400382   -0.765714
     13          8           0        1.881214   -2.218562   -0.066387
     14          8           0        2.914734   -1.619221   -1.892243
     15          6           0       -3.729855    0.477610    0.025777
     16          6           0       -5.089095    0.506005   -0.673971
     17          6           0       -5.602787    1.926599   -0.910244
     18          1           0       -3.807919    1.005292    0.986195
     19          1           0       -3.002038    1.035794   -0.579292
     20          1           0       -5.813803   -0.053240   -0.068447
     21          1           0       -5.007834   -0.021973   -1.632748
     22          1           0       -4.901676    2.491102   -1.533446
     23          1           0       -5.712224    2.459657    0.039742
     24          1           0       -6.575682    1.923514   -1.411567
     25          6           0       -3.203066   -0.935575    0.268946
     26          6           0       -1.843827   -0.963968    0.968694
     27          6           0       -1.330135   -2.384563    1.204967
     28          1           0       -3.930884   -1.493758    0.874014
     29          1           0       -3.125003   -1.463257   -0.691472
     30          1           0       -1.925088   -0.435991    1.927471
     31          1           0       -1.119119   -0.404724    0.363169
     32          1           0       -1.220698   -2.917621    0.254980
     33          1           0       -2.031246   -2.949066    1.828169
     34          1           0       -0.357240   -2.381478    1.706289
 ---------------------------------------------------------------------

 SCF Done:  E(RHF) =  -669.535607306     A.U. after   15 cycles
 E2 =    -0.2092272685D+01 EUMP2 =    -0.67162787999098D+03

 The electronic state is 1-A.
 Alpha  occ. eigenvalues --  -20.60870 -20.60859 -15.85899 -11.31247 -11.27809
 Alpha  occ. eigenvalues --  -11.27805 -11.27546 -11.26822 -11.26809 -11.21463
 Alpha  occ. eigenvalues --  -11.21256 -11.21220 -11.21066 -11.21004 -11.20240
 Alpha  occ. eigenvalues --   -1.59933  -1.39488  -1.19416  -1.08815  -1.08176
 Alpha  occ. eigenvalues --   -1.04813  -1.03218  -0.95710  -0.95574  -0.86638
 Alpha  occ. eigenvalues --   -0.86213  -0.82486  -0.79297  -0.78003  -0.77540
 Alpha  occ. eigenvalues --   -0.72131  -0.71252  -0.70522  -0.65075  -0.64837
 Alpha  occ. eigenvalues --   -0.64784  -0.62178  -0.60602  -0.59019  -0.57261
 Alpha  occ. eigenvalues --   -0.55314  -0.54898  -0.53144  -0.52915  -0.52291
 Alpha  occ. eigenvalues --   -0.52054  -0.49561  -0.48883  -0.48866  -0.47595
 Alpha  occ. eigenvalues --   -0.46340  -0.45535  -0.45464  -0.44864  -0.43459
 Alpha  occ. eigenvalues --   -0.37391  -0.36403
 Alpha virt. eigenvalues --    0.04973   0.11175   0.16465   0.20854   0.23092
 Alpha virt. eigenvalues --    0.24055   0.26460   0.26845   0.27650   0.27769
 Alpha virt. eigenvalues --    0.29211   0.30530   0.31580   0.31650   0.31990

 Mulliken charges:
               1
     1  C   -0.170480
     2  C   -0.218641
     3  C   -0.170730
     4  C    0.156161
     5  C   -0.170136
     6  C   -0.220020
     7  H    0.225895
     8  H    0.223636
     9  H    0.275634
    10  H    0.280103
    11  H    0.224267
    12  N    0.489736
    13  O   -0.461606
    14  O   -0.459981
    15  C   -0.297721
    16  C   -0.299556
    17  C   -0.475452
    18  H    0.146784
    19  H    0.148400
    20  H    0.151906
    21  H    0.153181
    22  H    0.154378
    23  H    0.153815
    24  H    0.160165
    25  C   -0.297942
    26  C   -0.303077
    27  C   -0.473181
    28  H    0.149123
    29  H    0.152875
    30  H    0.143344
    31  H    0.149376
    32  H    0.166819
    33  H    0.148122
    34  H    0.164802
 Sum of Mulliken charges =  -0.00000

 Dipole moment (field-independent basis, Debye):
    X=              0.8479    Y=              4.6732    Z=              1.8837  Tot=              5.1094
 Quadrupole moment (field-independent basis, Debye-Ang):
   XX=            -90.8752   YY=            -96.0341   ZZ=            -91.6995
   XY=             14.3586   XZ=              2.5665   YZ=             -1.9999

 Normal termination of Gaussian 16 at Thu May  6 08:00:38 2021.
