 Gaussian 16, Revision A.03,
 Gaussian 16:  EM64L-G16RevA.03 25-Dec-2016

 -------------
 #p 6-31g* mp2
 -------------

 ------------------------------------------------------
 Input file generated by CHIRIPA (05-May-2021 14:51:12)
 ------------------------------------------------------
 Symbolic Z-matrix:
 Charge =  0 Multiplicity = 1

                         Standard orientation:
 ---------------------------------------------------------------------
 Center     Atomic      Atomic             Coordinates (Angstroms)
 Number     Number       Type             X           Y           Z
 ---------------------------------------------------------------------
      1          6           0       -4.447684   -0.355892   -0.348277
      2          6           0       -5.796589   -0.630172    0.317464
      3          6           0       -6.836437   -1.181158   -0.658715
      4          1           0       -4.591048    0.355119   -1.173416
      5          1           0       -4.073008   -1.285641   -0.798365
      6          1           0       -6.167955    0.299505    0.767357
      7          1           0       -5.649967   -1.340465    1.141236
      8          1           0       -6.491030   -2.122186   -1.098898
      9          1           0       -7.011961   -0.472898   -1.474901
     10          1           0       -7.793135   -1.370051   -0.161815
     11          6           0       -3.397728    0.195300    0.614795
     12          6           0       -2.048823    0.469580   -0.050945
     13          6           0       -1.008975    1.020566    0.925234
     14          1           0       -3.772404    1.125049    1.064884
     15          1           0       -3.254364   -0.515711    1.439935
     16          1           0       -2.195445    1.179873   -0.874717
     17          1           0       -1.677457   -0.460097   -0.500838
     18          1           0       -0.833451    0.312306    1.741420
     19          1           0       -1.354383    1.961594    1.365417
     20          1           0       -0.052278    1.209459    0.428334
     21          6           0        3.540368    0.591786   -0.552339
     22          6           0        3.048139    1.792247    0.256728
     23          6           0        2.285061    2.806716   -0.595539
     24          1           0        4.185455    0.946833   -1.367660
     25          1           0        2.679574    0.100108   -1.026343
     26          1           0        3.909457    2.280695    0.730187
     27          1           0        2.404303    1.434285    1.070334
     28          1           0        1.408197    2.340566   -1.056425
     29          1           0        2.921903    3.191786   -1.398503
     30          1           0        1.942321    3.656652    0.002791
     31          6           0        4.305044   -0.431194    0.285820
     32          6           0        4.797274   -1.631655   -0.523247
     33          6           0        5.560352   -2.646123    0.329020
     34          1           0        5.165840    0.060484    0.759824
     35          1           0        3.659957   -0.786240    1.101142
     36          1           0        5.441110   -1.273693   -1.336853
     37          1           0        3.935955   -2.120103   -0.996707
     38          1           0        4.923509   -3.031193    1.131985
     39          1           0        6.437216   -2.179974    0.789906
     40          1           0        5.903091   -3.496060   -0.269310
 ---------------------------------------------------------------------

 SCF Done:  E(RHF) =  -470.732844410     A.U. after   11 cycles
 E2 =    -0.1582985010D+01 EUMP2 =    -0.47231582941955D+03

 The electronic state is 1-A.
 Alpha  occ. eigenvalues --  -11.21624 -11.21609 -11.21598 -11.21578 -11.21416
 Alpha  occ. eigenvalues --  -11.21401 -11.21356 -11.21342 -11.21077 -11.21069
 Alpha  occ. eigenvalues --  -11.21065 -11.21037  -1.08451  -1.08420  -1.03582
 Alpha  occ. eigenvalues --   -1.03494  -0.96048  -0.95925  -0.87043  -0.86962
 Alpha  occ. eigenvalues --   -0.79610  -0.79585  -0.78259  -0.78234  -0.65094
 Alpha  occ. eigenvalues --   -0.65071  -0.61093  -0.60935  -0.59351  -0.59277
 Alpha  occ. eigenvalues --   -0.57617  -0.57572  -0.55326  -0.55236  -0.52680
 Alpha  occ. eigenvalues --   -0.52633  -0.52453  -0.52327  -0.49979  -0.49867
 Alpha  occ. eigenvalues --   -0.47978  -0.47832  -0.46664  -0.46600  -0.45797
 Alpha  occ. eigenvalues --   -0.45778  -0.45724  -0.45701  -0.43803  -0.43740
 Alpha virt. eigenvalues --    0.21084   0.23055   0.23676   0.25162   0.26475
 Alpha virt. eigenvalues --    0.26630   0.27030   0.27708   0.27794   0.28933
 Alpha virt. eigenvalues --    0.30802   0.31230   0.31433   0.31696   0.32126

 Mulliken charges:
               1
     1  C   -0.298249
     2  C   -0.299647
     3  C   -0.475710
     4  H    0.149716
     5  H    0.149427
     6  H    0.151978
     7  H    0.151918
     8  H    0.155163
     9  H    0.155218
    10  H    0.160281
    11  C   -0.298385
    12  C   -0.299573
    13  C   -0.485037
    14  H    0.149678
    15  H    0.149621
    16  H    0.152007
    17  H    0.151280
    18  H    0.154239
    19  H    0.155433
    20  H    0.171448
    21  C   -0.298527
    22  C   -0.304102
    23  C   -0.478053
    24  H    0.149806
    25  H    0.149175
    26  H    0.152694
    27  H    0.155320
    28  H    0.155709
    29  H    0.155814
    30  H    0.161126
    31  C   -0.298302
    32  C   -0.299654
    33  C   -0.475702
    34  H    0.149553
    35  H    0.149964
    36  H    0.151927
    37  H    0.151872
    38  H    0.155156
    39  H    0.155204
    40  H    0.160215
 Sum of Mulliken charges =  -0.00000

 Dipole moment (field-independent basis, Debye):
    X=              0.0098    Y=              0.0169    Z=              0.0042  Tot=              0.0200
 Quadrupole moment (field-independent basis, Debye-Ang):
   XX=            -85.0019   YY=            -84.4381   ZZ=            -85.3048
   XY=              0.2750   XZ=             -0.8518   YZ=             -0.1395

 Normal termination of Gaussian 16 at Wed May  5 16:49:39 2021.
