 Gaussian 16, Revision A.03,
 Gaussian 16:  EM64L-G16RevA.03 25-Dec-2016

 -------------
 #p 6-31g* mp2
 -------------

 ------------------------------------------------------
 Input file generated by CHIRIPA (05-May-2021 14:57:24)
 ------------------------------------------------------
 Symbolic Z-matrix:
 Charge =  0 Multiplicity = 1

                         Standard orientation:
 ---------------------------------------------------------------------
 Center     Atomic      Atomic             Coordinates (Angstroms)
 Number     Number       Type             X           Y           Z
 ---------------------------------------------------------------------
      1          6           0       -3.941451    0.614886    0.979749
      2          6           0       -3.580908    0.993132   -0.317733
      3          6           0       -2.575551    0.305697   -1.004199
      4          6           0       -1.948775   -0.759965   -0.360145
      5          6           0       -2.285570   -1.160810    0.931824
      6          6           0       -3.293773   -0.458985    1.599294
      7          1           0       -4.723543    1.154491    1.505634
      8          1           0       -4.082191    1.826720   -0.801358
      9          1           0       -2.276645    0.577357   -2.009324
     10          1           0       -1.767817   -1.995925    1.387819
     11          1           0       -3.571702   -0.754955    2.606866
     12          7           0       -0.882941   -1.495339   -1.076821
     13          8           0       -0.345991   -2.430682   -0.487368
     14          8           0       -0.604673   -1.122457   -2.214434
     15          6           0        4.066022   -0.925390    0.628791
     16          6           0        3.976172   -0.203134   -0.565694
     17          6           0        2.904817    0.666399   -0.790766
     18          6           0        1.936732    0.789984    0.204637
     19          6           0        1.998279    0.084088    1.405143
     20          6           0        3.078529   -0.779730    1.608669
     21          1           0        4.901732   -1.598645    0.795265
     22          1           0        4.741613   -0.314263   -1.328449
     23          1           0        2.810576    1.237640   -1.706310
     24          1           0        1.219872    0.215860    2.146856
     25          1           0        3.145720   -1.339375    2.537286
     26          7           0        0.797827    1.707495   -0.022233
     27          8           0       -0.042074    1.798650    0.870456
     28          8           0        0.766620    2.318111   -1.088445
 ---------------------------------------------------------------------

 SCF Done:  E(RHF) =  -868.338506875     A.U. after   16 cycles
 E2 =    -0.2603353747D+01 EUMP2 =    -0.87094186062278D+03

 The electronic state is 1-A.
 Alpha  occ. eigenvalues --  -20.60556 -20.60548 -20.60313 -20.60284 -15.85548
 Alpha  occ. eigenvalues --  -15.85317 -11.30615 -11.30258 -11.27234 -11.27138
 Alpha  occ. eigenvalues --  -11.26927 -11.26884 -11.26751 -11.26562 -11.26151
 Alpha  occ. eigenvalues --  -11.26091 -11.25867 -11.25714  -1.59628  -1.59386
 Alpha  occ. eigenvalues --   -1.39182  -1.38945  -1.18769  -1.18423  -1.08237
 Alpha  occ. eigenvalues --   -1.07929  -1.04136  -1.03792  -0.95128  -0.94820
 Alpha  occ. eigenvalues --   -0.85567  -0.85246  -0.81974  -0.81683  -0.77051
 Alpha  occ. eigenvalues --   -0.76762  -0.71812  -0.71562  -0.71340  -0.70350
 Alpha  occ. eigenvalues --   -0.69918  -0.69609  -0.64448  -0.64174  -0.64124
 Alpha  occ. eigenvalues --   -0.63857  -0.61517  -0.61187  -0.54687  -0.54372
 Alpha  occ. eigenvalues --   -0.52512  -0.52261  -0.52038  -0.51938  -0.48587
 Alpha  occ. eigenvalues --   -0.48530  -0.48331  -0.48283  -0.44673  -0.44360
 Alpha  occ. eigenvalues --   -0.36744  -0.36338  -0.35673  -0.35292
 Alpha virt. eigenvalues --    0.05189   0.05987   0.11879   0.12357   0.17015
 Alpha virt. eigenvalues --    0.17333   0.21930   0.22288   0.27761   0.28189
 Alpha virt. eigenvalues --    0.28763   0.29205   0.31361   0.31821   0.32860

 Mulliken charges:
               1
     1  C   -0.166143
     2  C   -0.210252
     3  C   -0.159571
     4  C    0.156164
     5  C   -0.170804
     6  C   -0.216121
     7  H    0.222768
     8  H    0.222894
     9  H    0.277708
    10  H    0.267356
    11  H    0.217813
    12  N    0.483787
    13  O   -0.466404
    14  O   -0.460693
    15  C   -0.167071
    16  C   -0.216395
    17  C   -0.162079
    18  C    0.154576
    19  C   -0.168000
    20  C   -0.214085
    21  H    0.224601
    22  H    0.223030
    23  H    0.276087
    24  H    0.269734
    25  H    0.220568
    26  N    0.484545
    27  O   -0.463864
    28  O   -0.460149
 Sum of Mulliken charges =  -0.00000

 Dipole moment (field-independent basis, Debye):
    X=              0.3185    Y=             -0.4612    Z=              3.1644  Tot=              3.2136
 Quadrupole moment (field-independent basis, Debye-Ang):
   XX=            -74.4485   YY=           -113.3902   ZZ=            -99.7169
   XY=             -6.2377   XZ=             -2.6887   YZ=             -7.0025

 Normal termination of Gaussian 16 at Fri May  7 12:36:45 2021.
