 Gaussian 16, Revision A.03,
 Gaussian 16:  EM64L-G16RevA.03 25-Dec-2016

 -------------
 #p 6-31g* mp2
 -------------

 ------------------------------------------------------
 Input file generated by CHIRIPA (05-May-2021 14:55:24)
 ------------------------------------------------------
 Symbolic Z-matrix:
 Charge =  0 Multiplicity = 1

                         Standard orientation:
 ---------------------------------------------------------------------
 Center     Atomic      Atomic             Coordinates (Angstroms)
 Number     Number       Type             X           Y           Z
 ---------------------------------------------------------------------
      1          6           0       -3.639751   -2.008459    0.564682
      2          6           0       -3.855118   -1.356102   -0.653746
      3          6           0       -3.351556   -0.069800   -0.869150
      4          6           0       -2.633858    0.537300    0.160233
      5          6           0       -2.402566   -0.086619    1.385191
      6          6           0       -2.915439   -1.372756    1.578475
      7          1           0       -4.034546   -3.007626    0.723422
      8          1           0       -4.417263   -1.847368   -1.442857
      9          1           0       -3.503536    0.458212   -1.802704
     10          1           0       -1.838341    0.428699    2.152990
     11          1           0       -2.746636   -1.876977    2.525740
     12          7           0       -2.095831    1.898963   -0.056096
     13          8           0       -1.466789    2.412206    0.866685
     14          8           0       -2.313354    2.427210   -1.144341
     15          6           0        2.741076   -0.233925   -0.300788
     16          6           0        1.914071   -1.342202   -0.953294
     17          6           0        0.428118   -0.994218   -1.046274
     18          1           0        2.346195   -0.034144    0.704748
     19          1           0        2.616143    0.694098   -0.875731
     20          1           0        2.041621   -2.268206   -0.378086
     21          1           0        2.311088   -1.539500   -1.957319
     22          1           0        0.281729   -0.084734   -1.637889
     23          1           0        0.010733   -0.817581   -0.049684
     24          1           0       -0.144342   -1.800218   -1.515865
     25          6           0        4.228603   -0.567051   -0.200684
     26          6           0        5.055610    0.541227    0.451823
     27          6           0        6.541562    0.193243    0.544802
     28          1           0        4.353536   -1.495075    0.374259
     29          1           0        4.623486   -0.766831   -1.206219
     30          1           0        4.658593    0.738525    1.455848
     31          1           0        4.928059    1.467231   -0.123385
     32          1           0        6.958948    0.016605   -0.451787
     33          1           0        6.687950   -0.716241    1.136419
     34          1           0        7.114022    0.999242    1.014394
 ---------------------------------------------------------------------

 SCF Done:  E(RHF) =  -669.534698688     A.U. after   15 cycles
 E2 =    -0.2093309481D+01 EUMP2 =    -0.67162800816921D+03

 The electronic state is 1-A.
 Alpha  occ. eigenvalues --  -20.60765 -20.60758 -15.85806 -11.31141 -11.27742
 Alpha  occ. eigenvalues --  -11.27723 -11.27501 -11.26785 -11.26774 -11.21417
 Alpha  occ. eigenvalues --  -11.21324 -11.21150 -11.21060 -11.20860 -11.20854
 Alpha  occ. eigenvalues --   -1.59833  -1.39388  -1.19356  -1.08748  -1.08184
 Alpha  occ. eigenvalues --   -1.04768  -1.03312  -0.95773  -0.95579  -0.86794
 Alpha  occ. eigenvalues --   -0.86162  -0.82421  -0.79388  -0.77986  -0.77465
 Alpha  occ. eigenvalues --   -0.72034  -0.71149  -0.70470  -0.65013  -0.64820
 Alpha  occ. eigenvalues --   -0.64772  -0.62116  -0.60725  -0.59133  -0.57393
 Alpha  occ. eigenvalues --   -0.55269  -0.55127  -0.53346  -0.52859  -0.52385
 Alpha  occ. eigenvalues --   -0.52007  -0.49675  -0.48792  -0.48789  -0.47688
 Alpha  occ. eigenvalues --   -0.46407  -0.45528  -0.45454  -0.44784  -0.43555
 Alpha  occ. eigenvalues --   -0.37270  -0.36332
 Alpha virt. eigenvalues --    0.05059   0.11212   0.16560   0.21394   0.23102
 Alpha virt. eigenvalues --    0.24483   0.26866   0.27323   0.27621   0.28051
 Alpha virt. eigenvalues --    0.28403   0.30946   0.31505   0.32018   0.32046

 Mulliken charges:
               1
     1  C   -0.170949
     2  C   -0.217754
     3  C   -0.170288
     4  C    0.166987
     5  C   -0.177012
     6  C   -0.215919
     7  H    0.225517
     8  H    0.223432
     9  H    0.275543
    10  H    0.275129
    11  H    0.223325
    12  N    0.488746
    13  O   -0.460687
    14  O   -0.461169
    15  C   -0.298676
    16  C   -0.299514
    17  C   -0.481073
    18  H    0.149792
    19  H    0.155040
    20  H    0.148235
    21  H    0.151211
    22  H    0.159046
    23  H    0.156424
    24  H    0.156365
    25  C   -0.298182
    26  C   -0.299678
    27  C   -0.475620
    28  H    0.147042
    29  H    0.149085
    30  H    0.152293
    31  H    0.154458
    32  H    0.154753
    33  H    0.153693
    34  H    0.160404
 Sum of Mulliken charges =  -0.00000

 Dipole moment (field-independent basis, Debye):
    X=             -1.9778    Y=             -4.7193    Z=              0.7552  Tot=              5.1724
 Quadrupole moment (field-independent basis, Debye-Ang):
   XX=            -85.9829   YY=           -100.6067   ZZ=            -89.5810
   XY=             12.3026   XZ=             -0.5361   YZ=             -0.8854

 Normal termination of Gaussian 16 at Thu May  6 11:04:19 2021.
