 Gaussian 16, Revision A.03,
 Gaussian 16:  EM64L-G16RevA.03 25-Dec-2016

 -------------
 #p 6-31g* mp2
 -------------

 ------------------------------------------------------
 Input file generated by CHIRIPA (05-May-2021 14:51:09)
 ------------------------------------------------------
 Symbolic Z-matrix:
 Charge =  0 Multiplicity = 1

                         Standard orientation:
 ---------------------------------------------------------------------
 Center     Atomic      Atomic             Coordinates (Angstroms)
 Number     Number       Type             X           Y           Z
 ---------------------------------------------------------------------
      1          6           0        2.624631   -0.278415   -0.215854
      2          6           0        3.495767   -1.054408   -1.204258
      3          6           0        3.489896   -2.560620   -0.941415
      4          1           0        2.976517   -0.475100    0.806123
      5          1           0        1.594519   -0.657003   -0.270035
      6          1           0        4.523638   -0.673530   -1.149222
      7          1           0        3.141886   -0.855702   -2.224014
      8          1           0        2.473590   -2.960776   -1.016239
      9          1           0        3.863193   -2.777569    0.064659
     10          1           0        4.118988   -3.095908   -1.659447
     11          6           0        2.620282    1.228662   -0.465705
     12          6           0        1.749146    2.004655    0.522699
     13          6           0        1.755017    3.510866    0.259855
     14          1           0        3.650394    1.607250   -0.411525
     15          1           0        2.268396    1.425347   -1.487682
     16          1           0        2.103027    1.805949    1.542454
     17          1           0        0.721275    1.623777    0.467663
     18          1           0        1.381720    3.727816   -0.746218
     19          1           0        2.771323    3.911023    0.334680
     20          1           0        1.125925    4.046155    0.977887
     21          6           0       -3.095111   -0.601787   -0.245723
     22          6           0       -4.123034    0.512042   -0.447577
     23          6           0       -5.061435    0.244228   -1.624638
     24          1           0       -2.506795   -0.720265   -1.165937
     25          1           0       -3.621858   -1.552941   -0.086860
     26          1           0       -3.594515    1.461050   -0.604636
     27          1           0       -4.708843    0.628012    0.473290
     28          1           0       -5.614502   -0.688195   -1.471976
     29          1           0       -4.493842    0.149576   -2.556026
     30          1           0       -5.788055    1.052903   -1.750840
     31          6           0       -2.149802   -0.348460    0.927284
     32          6           0       -1.121879   -1.462288    1.129136
     33          6           0       -0.183478   -1.194475    2.306197
     34          1           0       -1.623054    0.602694    0.768419
     35          1           0       -2.738118   -0.229981    1.847497
     36          1           0       -0.536071   -1.578258    0.208269
     37          1           0       -1.650398   -2.411296    1.286195
     38          1           0       -0.751070   -1.099823    3.237585
     39          1           0        0.369589   -0.262052    2.153535
     40          1           0        0.543142   -2.003151    2.432399
 ---------------------------------------------------------------------

 SCF Done:  E(RHF) =  -470.732065129     A.U. after   11 cycles
 E2 =    -0.1585362885D+01 EUMP2 =    -0.47231742801401D+03

 The electronic state is 1-A.
 Alpha  occ. eigenvalues --  -11.21681 -11.21623 -11.21609 -11.21581 -11.21433
 Alpha  occ. eigenvalues --  -11.21425 -11.21365 -11.21334 -11.21132 -11.21090
 Alpha  occ. eigenvalues --  -11.21084 -11.20907  -1.08518  -1.08401  -1.03577
 Alpha  occ. eigenvalues --   -1.03518  -0.96039  -0.95937  -0.87035  -0.86977
 Alpha  occ. eigenvalues --   -0.79714  -0.79535  -0.78325  -0.78240  -0.65355
 Alpha  occ. eigenvalues --   -0.64860  -0.60982  -0.60937  -0.59467  -0.59259
 Alpha  occ. eigenvalues --   -0.57646  -0.57556  -0.55376  -0.55193  -0.52721
 Alpha  occ. eigenvalues --   -0.52653  -0.52445  -0.52362  -0.49975  -0.49923
 Alpha  occ. eigenvalues --   -0.48108  -0.47872  -0.46878  -0.46513  -0.46094
 Alpha  occ. eigenvalues --   -0.45780  -0.45530  -0.45327  -0.43815  -0.43770
 Alpha virt. eigenvalues --    0.20223   0.23088   0.23660   0.24026   0.25455
 Alpha virt. eigenvalues --    0.26165   0.27099   0.27719   0.28383   0.29672
 Alpha virt. eigenvalues --    0.30383   0.31144   0.31796   0.31966   0.32284

 Mulliken charges:
               1
     1  C   -0.307111
     2  C   -0.299201
     3  C   -0.475967
     4  H    0.150927
     5  H    0.158805
     6  H    0.151885
     7  H    0.151400
     8  H    0.155093
     9  H    0.155282
    10  H    0.160372
    11  C   -0.297075
    12  C   -0.308979
    13  C   -0.475018
    14  H    0.149769
    15  H    0.149062
    16  H    0.153138
    17  H    0.158014
    18  H    0.155076
    19  H    0.155629
    20  H    0.160564
    21  C   -0.297897
    22  C   -0.299685
    23  C   -0.475702
    24  H    0.148903
    25  H    0.149848
    26  H    0.151774
    27  H    0.152149
    28  H    0.155282
    29  H    0.155050
    30  H    0.160355
    31  C   -0.303920
    32  C   -0.303784
    33  C   -0.481645
    34  H    0.153332
    35  H    0.150376
    36  H    0.153278
    37  H    0.152496
    38  H    0.153900
    39  H    0.164280
    40  H    0.159945
 Sum of Mulliken charges =  -0.00000

 Dipole moment (field-independent basis, Debye):
    X=              0.0236    Y=              0.0230    Z=              0.0091  Tot=              0.0342
 Quadrupole moment (field-independent basis, Debye-Ang):
   XX=            -84.2593   YY=            -85.7979   ZZ=            -84.7228
   XY=              0.4749   XZ=             -0.4692   YZ=             -0.1687

 Normal termination of Gaussian 16 at Thu May  6 00:33:43 2021.
