 Gaussian 16, Revision A.03,
 Gaussian 16:  EM64L-G16RevA.03 25-Dec-2016

 -------------
 #p 6-31g* mp2
 -------------

 ------------------------------------------------------
 Input file generated by CHIRIPA (05-May-2021 14:53:14)
 ------------------------------------------------------
 Symbolic Z-matrix:
 Charge =  0 Multiplicity = 1

                         Standard orientation:
 ---------------------------------------------------------------------
 Center     Atomic      Atomic             Coordinates (Angstroms)
 Number     Number       Type             X           Y           Z
 ---------------------------------------------------------------------
      1          6           0        2.546097   -0.407993   -0.749333
      2          6           0        2.271048   -1.900960   -0.932038
      3          6           0        0.891155   -2.179132   -1.528956
      4          1           0        1.771007    0.024622   -0.102012
      5          1           0        2.457984    0.095679   -1.721930
      6          1           0        2.361013   -2.401888    0.040379
      7          1           0        3.046991   -2.330110   -1.578844
      8          1           0        0.793711   -1.705495   -2.511185
      9          1           0        0.103835   -1.777681   -0.882762
     10          1           0        0.715470   -3.252495   -1.650964
     11          6           0        3.921686   -0.113877   -0.153532
     12          6           0        4.196735    1.379090    0.029173
     13          6           0        5.576628    1.657261    0.626090
     14          1           0        4.009799   -0.617550    0.819065
     15          1           0        4.696776   -0.546492   -0.800853
     16          1           0        3.420792    1.808240    0.675979
     17          1           0        4.106770    1.880018   -0.943244
     18          1           0        6.363948    1.255811   -0.020103
     19          1           0        5.674072    1.183625    1.608320
     20          1           0        5.752313    2.730625    0.748099
     21          6           0       -3.675594    1.883867   -1.138297
     22          6           0       -2.678764    2.302166   -0.250672
     23          6           0       -2.035338    1.380061    0.580153
     24          6           0       -2.415385    0.041438    0.496824
     25          6           0       -3.404814   -0.406266   -0.377178
     26          6           0       -4.034804    0.533366   -1.198611
     27          1           0       -4.170204    2.606989   -1.780053
     28          1           0       -2.397747    3.350343   -0.201682
     29          1           0       -1.260329    1.676591    1.276464
     30          1           0       -3.663353   -1.457880   -0.403367
     31          1           0       -4.808610    0.205648   -1.886994
     32          7           0       -1.741331   -0.944031    1.371410
     33          8           0       -2.094385   -2.117670    1.278877
     34          8           0       -0.872717   -0.524144    2.132883
 ---------------------------------------------------------------------

 SCF Done:  E(RHF) =  -669.536040279     A.U. after   15 cycles
 E2 =    -0.2091887204D+01 EUMP2 =    -0.67162792748354D+03

 The electronic state is 1-A.
 Alpha  occ. eigenvalues --  -20.60917 -20.60905 -15.85936 -11.31249 -11.27815
 Alpha  occ. eigenvalues --  -11.27806 -11.27547 -11.26816 -11.26806 -11.21304
 Alpha  occ. eigenvalues --  -11.20993 -11.20941 -11.20854 -11.20805 -11.20531
 Alpha  occ. eigenvalues --   -1.59979  -1.39532  -1.19418  -1.08828  -1.07965
 Alpha  occ. eigenvalues --   -1.04810  -1.03084  -0.95671  -0.95540  -0.86562
 Alpha  occ. eigenvalues --   -0.86213  -0.82501  -0.79161  -0.77786  -0.77554
 Alpha  occ. eigenvalues --   -0.72161  -0.71319  -0.70527  -0.65072  -0.64815
 Alpha  occ. eigenvalues --   -0.64575  -0.62159  -0.60464  -0.58915  -0.57156
 Alpha  occ. eigenvalues --   -0.55318  -0.54822  -0.53142  -0.52904  -0.52242
 Alpha  occ. eigenvalues --   -0.51982  -0.49496  -0.48923  -0.48915  -0.47485
 Alpha  occ. eigenvalues --   -0.46186  -0.45336  -0.45228  -0.44905  -0.43332
 Alpha  occ. eigenvalues --   -0.37392  -0.36405
 Alpha virt. eigenvalues --    0.04960   0.11215   0.16437   0.21317   0.23227
 Alpha virt. eigenvalues --    0.24569   0.26587   0.27302   0.27748   0.28262
 Alpha virt. eigenvalues --    0.28558   0.30800   0.31629   0.32230   0.32277

 Mulliken charges:
               1
     1  C   -0.299670
     2  C   -0.299744
     3  C   -0.473686
     4  H    0.153104
     5  H    0.144431
     6  H    0.160309
     7  H    0.148682
     8  H    0.149082
     9  H    0.153561
    10  H    0.162417
    11  C   -0.298268
    12  C   -0.299142
    13  C   -0.475527
    14  H    0.153897
    15  H    0.147897
    16  H    0.151207
    17  H    0.148885
    18  H    0.154568
    19  H    0.156862
    20  H    0.158046
    21  C   -0.170466
    22  C   -0.218364
    23  C   -0.170853
    24  C    0.155799
    25  C   -0.170736
    26  C   -0.218423
    27  H    0.225876
    28  H    0.223784
    29  H    0.275522
    30  H    0.276208
    31  H    0.223778
    32  N    0.489252
    33  O   -0.457902
    34  O   -0.460384
 Sum of Mulliken charges =  -0.00000

 Dipole moment (field-independent basis, Debye):
    X=             -2.4845    Y=              3.3995    Z=             -2.9802  Tot=              5.1586
 Quadrupole moment (field-independent basis, Debye-Ang):
   XX=            -83.0925   YY=            -92.0932   ZZ=            -97.2342
   XY=             -6.8619   XZ=              7.2558   YZ=              2.8738

 Normal termination of Gaussian 16 at Thu May  6 04:14:19 2021.
