 Gaussian 16, Revision A.03,
 Gaussian 16:  EM64L-G16RevA.03 25-Dec-2016

 -------------
 #p 6-31g* mp2
 -------------

 ------------------------------------------------------
 Input file generated by CHIRIPA (05-May-2021 14:51:08)
 ------------------------------------------------------
 Symbolic Z-matrix:
 Charge =  0 Multiplicity = 1

                         Standard orientation:
 ---------------------------------------------------------------------
 Center     Atomic      Atomic             Coordinates (Angstroms)
 Number     Number       Type             X           Y           Z
 ---------------------------------------------------------------------
      1          6           0        3.417687    0.260357   -0.567147
      2          6           0        3.683525   -1.162592   -0.074672
      3          6           0        4.592075   -1.953888   -1.016045
      4          1           0        2.963663    0.216825   -1.566603
      5          1           0        4.375668    0.786241   -0.681658
      6          1           0        2.725242   -1.685194    0.040199
      7          1           0        4.136794   -1.115672    0.923807
      8          1           0        5.562085   -1.457601   -1.122728
      9          1           0        4.142512   -2.030359   -2.011357
     10          1           0        4.768935   -2.968175   -0.644828
     11          6           0        2.510980    1.063982    0.363335
     12          6           0        2.245142    2.486931   -0.129140
     13          6           0        1.336593    3.278227    0.812233
     14          1           0        1.553000    0.538097    0.477846
     15          1           0        2.965005    1.107514    1.362791
     16          1           0        1.791874    2.440011   -1.127620
     17          1           0        3.203426    3.009533   -0.244011
     18          1           0        1.786156    3.354697    1.807545
     19          1           0        0.366583    2.781940    0.918915
     20          1           0        1.159733    4.292514    0.441015
     21          6           0       -3.311526   -0.101759   -0.283879
     22          6           0       -4.837024   -0.161877   -0.198879
     23          6           0       -5.517274    0.965792   -0.975677
     24          1           0       -2.967271    0.868729    0.098986
     25          1           0       -3.007970   -0.147032   -1.338962
     26          1           0       -5.137551   -0.117898    0.855808
     27          1           0       -5.177674   -1.132411   -0.581813
     28          1           0       -5.246255    0.921563   -2.035485
     29          1           0       -5.205904    1.941840   -0.589695
     30          1           0       -6.607450    0.903661   -0.901406
     31          6           0       -2.617142   -1.222579    0.487691
     32          6           0       -1.091644   -1.162461    0.402691
     33          6           0       -0.411394   -2.290131    1.179489
     34          1           0       -2.920697   -1.177307    1.542774
     35          1           0       -2.961397   -2.193068    0.104827
     36          1           0       -0.750994   -0.191928    0.785625
     37          1           0       -0.791116   -1.206440   -0.651996
     38          1           0       -0.722764   -3.266179    0.793508
     39          1           0       -0.682413   -2.245902    2.239297
     40          1           0        0.678782   -2.227999    1.105218
 ---------------------------------------------------------------------

 SCF Done:  E(RHF) =  -470.732795044     A.U. after   11 cycles
 E2 =    -0.1584098314D+01 EUMP2 =    -0.47231689335712D+03

 The electronic state is 1-A.
 Alpha  occ. eigenvalues --  -11.21683 -11.21634 -11.21595 -11.21577 -11.21457
 Alpha  occ. eigenvalues --  -11.21397 -11.21367 -11.21287 -11.21101 -11.21093
 Alpha  occ. eigenvalues --  -11.21081 -11.21069  -1.08495  -1.08400  -1.03584
 Alpha  occ. eigenvalues --   -1.03522  -0.96030  -0.95964  -0.87052  -0.86976
 Alpha  occ. eigenvalues --   -0.79705  -0.79541  -0.78368  -0.78166  -0.65160
 Alpha  occ. eigenvalues --   -0.65024  -0.61043  -0.60873  -0.59447  -0.59296
 Alpha  occ. eigenvalues --   -0.57668  -0.57564  -0.55327  -0.55233  -0.52787
 Alpha  occ. eigenvalues --   -0.52639  -0.52466  -0.52375  -0.49974  -0.49912
 Alpha  occ. eigenvalues --   -0.48133  -0.47774  -0.46798  -0.46552  -0.45996
 Alpha  occ. eigenvalues --   -0.45785  -0.45739  -0.45353  -0.43813  -0.43757
 Alpha virt. eigenvalues --    0.20520   0.22691   0.23413   0.24101   0.25924
 Alpha virt. eigenvalues --    0.26354   0.26839   0.27377   0.28451   0.29491
 Alpha virt. eigenvalues --    0.29827   0.31443   0.31686   0.31939   0.32477

 Mulliken charges:
               1
     1  C   -0.297118
     2  C   -0.307913
     3  C   -0.475066
     4  H    0.149288
     5  H    0.149445
     6  H    0.159023
     7  H    0.151874
     8  H    0.155282
     9  H    0.155046
    10  H    0.160249
    11  C   -0.308550
    12  C   -0.298990
    13  C   -0.476655
    14  H    0.161128
    15  H    0.148932
    16  H    0.152027
    17  H    0.151835
    18  H    0.155175
    19  H    0.154876
    20  H    0.160385
    21  C   -0.298429
    22  C   -0.299696
    23  C   -0.475776
    24  H    0.149454
    25  H    0.149463
    26  H    0.152116
    27  H    0.152051
    28  H    0.155174
    29  H    0.155367
    30  H    0.160398
    31  C   -0.297668
    32  C   -0.303940
    33  C   -0.484117
    34  H    0.149961
    35  H    0.149943
    36  H    0.154774
    37  H    0.151455
    38  H    0.155522
    39  H    0.155871
    40  H    0.167804
 Sum of Mulliken charges =  -0.00000

 Dipole moment (field-independent basis, Debye):
    X=             -0.0233    Y=             -0.0170    Z=              0.0050  Tot=              0.0293
 Quadrupole moment (field-independent basis, Debye-Ang):
   XX=            -84.9611   YY=            -85.4065   ZZ=            -84.4075
   XY=              1.1993   XZ=              0.4896   YZ=              0.6372

 Normal termination of Gaussian 16 at Wed May  5 15:04:46 2021.
