 Gaussian 16, Revision A.03,
 Gaussian 16:  EM64L-G16RevA.03 25-Dec-2016

 -------------
 #p 6-31g* mp2
 -------------

 ------------------------------------------------------
 Input file generated by CHIRIPA (05-May-2021 14:51:08)
 ------------------------------------------------------
 Symbolic Z-matrix:
 Charge =  0 Multiplicity = 1

                         Standard orientation:
 ---------------------------------------------------------------------
 Center     Atomic      Atomic             Coordinates (Angstroms)
 Number     Number       Type             X           Y           Z
 ---------------------------------------------------------------------
      1          6           0       -2.882540   -0.247827    0.634892
      2          6           0       -2.267681    1.017449    1.234067
      3          6           0       -0.856664    0.789092    1.776908
      4          1           0       -2.905811   -1.034803    1.401098
      5          1           0       -2.233490   -0.615982   -0.171700
      6          1           0       -2.918404    1.383886    2.038367
      7          1           0       -2.246046    1.801564    0.466400
      8          1           0       -0.188451    0.445620    0.980591
      9          1           0       -0.864629    0.025569    2.561490
     10          1           0       -0.436140    1.706464    2.200522
     11          6           0       -4.293058   -0.035513    0.088002
     12          6           0       -4.907917   -1.300789   -0.511172
     13          6           0       -6.318935   -1.072432   -1.054014
     14          1           0       -4.942108    0.332642    0.894594
     15          1           0       -4.269787    0.751464   -0.678204
     16          1           0       -4.929552   -2.084904    0.256494
     17          1           0       -4.257194   -1.667226   -1.315473
     18          1           0       -6.310969   -0.308909   -1.838596
     19          1           0       -6.987147   -0.728960   -0.257697
     20          1           0       -6.739458   -1.989804   -1.477628
     21          6           0        3.200990    0.770076   -0.164177
     22          6           0        2.259445    1.271452   -1.259668
     23          6           0        1.492659    2.529257   -0.850083
     24          1           0        2.619507    0.566817    0.745499
     25          1           0        3.912512    1.567478    0.091327
     26          1           0        1.550793    0.472866   -1.514004
     27          1           0        2.843209    1.473360   -2.166901
     28          1           0        2.185702    3.343742   -0.615762
     29          1           0        0.885943    2.337564    0.040843
     30          1           0        0.825559    2.870387   -1.647873
     31          6           0        3.974609   -0.486737   -0.558718
     32          6           0        4.916152   -0.988113    0.536775
     33          6           0        5.682939   -2.245917    0.127188
     34          1           0        3.263087   -1.284138   -0.814222
     35          1           0        4.556092   -0.283478   -1.468393
     36          1           0        4.332389   -1.190019    1.444006
     37          1           0        5.624805   -0.189527    0.791110
     38          1           0        6.289655   -2.054224   -0.763738
     39          1           0        4.989896   -3.060402   -0.107132
     40          1           0        6.350039   -2.587046    0.924978
 ---------------------------------------------------------------------

 SCF Done:  E(RHF) =  -470.732641267     A.U. after   11 cycles
 E2 =    -0.1583345225D+01 EUMP2 =    -0.47231598649254D+03

 The electronic state is 1-A.
 Alpha  occ. eigenvalues --  -11.21656 -11.21625 -11.21582 -11.21575 -11.21444
 Alpha  occ. eigenvalues --  -11.21382 -11.21372 -11.21311 -11.21149 -11.21088
 Alpha  occ. eigenvalues --  -11.21051 -11.20936  -1.08475  -1.08397  -1.03604
 Alpha  occ. eigenvalues --   -1.03474  -0.96069  -0.95908  -0.87084  -0.86931
 Alpha  occ. eigenvalues --   -0.79669  -0.79536  -0.78284  -0.78208  -0.65204
 Alpha  occ. eigenvalues --   -0.64964  -0.61250  -0.60669  -0.59421  -0.59298
 Alpha  occ. eigenvalues --   -0.57662  -0.57535  -0.55559  -0.54987  -0.52760
 Alpha  occ. eigenvalues --   -0.52635  -0.52463  -0.52325  -0.50102  -0.49742
 Alpha  occ. eigenvalues --   -0.47966  -0.47856  -0.46734  -0.46514  -0.45859
 Alpha  occ. eigenvalues --   -0.45771  -0.45710  -0.45600  -0.43821  -0.43747
 Alpha virt. eigenvalues --    0.20760   0.23036   0.23666   0.25038   0.26209
 Alpha virt. eigenvalues --    0.26666   0.26814   0.27685   0.28066   0.29121
 Alpha virt. eigenvalues --    0.30746   0.31193   0.31664   0.31895   0.32293

 Mulliken charges:
               1
     1  C   -0.298512
     2  C   -0.301007
     3  C   -0.482359
     4  H    0.149700
     5  H    0.149496
     6  H    0.152479
     7  H    0.153722
     8  H    0.159746
     9  H    0.156255
    10  H    0.161002
    11  C   -0.298383
    12  C   -0.299700
    13  C   -0.475737
    14  H    0.149659
    15  H    0.149913
    16  H    0.151938
    17  H    0.151943
    18  H    0.155274
    19  H    0.155232
    20  H    0.160326
    21  C   -0.301296
    22  C   -0.299649
    23  C   -0.484165
    24  H    0.152672
    25  H    0.149595
    26  H    0.150221
    27  H    0.152127
    28  H    0.154592
    29  H    0.166277
    30  H    0.158829
    31  C   -0.298066
    32  C   -0.299698
    33  C   -0.475692
    34  H    0.149201
    35  H    0.149526
    36  H    0.152245
    37  H    0.151875
    38  H    0.155087
    39  H    0.155140
    40  H    0.160194
 Sum of Mulliken charges =  -0.00000

 Dipole moment (field-independent basis, Debye):
    X=             -0.0372    Y=             -0.0007    Z=              0.0394  Tot=              0.0542
 Quadrupole moment (field-independent basis, Debye-Ang):
   XX=            -85.5100   YY=            -85.2806   ZZ=            -84.0498
   XY=              1.0774   XZ=             -0.9481   YZ=             -0.5092

 Normal termination of Gaussian 16 at Thu May  6 11:33:35 2021.
