 Gaussian 16, Revision A.03,
 Gaussian 16:  EM64L-G16RevA.03 25-Dec-2016

 -------------
 #p 6-31g* mp2
 -------------

 ------------------------------------------------------
 Input file generated by CHIRIPA (05-May-2021 14:57:23)
 ------------------------------------------------------
 Symbolic Z-matrix:
 Charge =  0 Multiplicity = 1

                         Standard orientation:
 ---------------------------------------------------------------------
 Center     Atomic      Atomic             Coordinates (Angstroms)
 Number     Number       Type             X           Y           Z
 ---------------------------------------------------------------------
      1          6           0       -1.404949    2.507252    0.721342
      2          6           0       -1.281215    1.400148    1.567235
      3          6           0       -2.005949    0.231051    1.317196
      4          6           0       -2.848974    0.203591    0.207311
      5          6           0       -2.993732    1.290081   -0.654011
      6          6           0       -2.259306    2.448788   -0.384631
      7          1           0       -0.838193    3.411399    0.923091
      8          1           0       -0.618468    1.442705    2.426886
      9          1           0       -1.929111   -0.640630    1.955699
     10          1           0       -3.662375    1.217652   -1.503180
     11          1           0       -2.357386    3.307048   -1.043276
     12          7           0       -3.621348   -1.028580   -0.067632
     13          8           0       -4.357313   -1.027438   -1.052005
     14          8           0       -3.476143   -1.972166    0.706447
     15          6           0        0.441486   -1.378253   -0.724508
     16          6           0        1.288963   -1.998195    0.199599
     17          6           0        2.554512   -1.468668    0.468924
     18          6           0        2.942118   -0.312739   -0.207005
     19          6           0        2.120527    0.327954   -1.133175
     20          6           0        0.859237   -0.219201   -1.386779
     21          1           0       -0.539968   -1.796449   -0.927619
     22          1           0        0.967179   -2.898435    0.715416
     23          1           0        3.230694   -1.928285    1.179521
     24          1           0        2.469181    1.224251   -1.631684
     25          1           0        0.203181    0.264385   -2.104958
     26          7           0        4.279644    0.257178    0.069795
     27          8           0        4.597586    1.276489   -0.538938
     28          8           0        4.984729   -0.326221    0.890244
 ---------------------------------------------------------------------

 SCF Done:  E(RHF) =  -868.338114594     A.U. after   16 cycles
 E2 =    -0.2602906395D+01 EUMP2 =    -0.87094102098871D+03

 The electronic state is 1-A.
 Alpha  occ. eigenvalues --  -20.61784 -20.61776 -20.61020 -20.61011 -15.86815
 Alpha  occ. eigenvalues --  -15.86070 -11.32007 -11.31360 -11.28589 -11.28532
 Alpha  occ. eigenvalues --  -11.28205 -11.27930 -11.27913 -11.27555 -11.27536
 Alpha  occ. eigenvalues --  -11.27430 -11.26862 -11.26847  -1.60871  -1.60099
 Alpha  occ. eigenvalues --   -1.40422  -1.39653  -1.20179  -1.19515  -1.09586
 Alpha  occ. eigenvalues --   -1.08909  -1.05531  -1.04905  -0.96447  -0.95761
 Alpha  occ. eigenvalues --   -0.86935  -0.86293  -0.83269  -0.82596  -0.78356
 Alpha  occ. eigenvalues --   -0.77668  -0.73019  -0.72290  -0.72267  -0.71429
 Alpha  occ. eigenvalues --   -0.71240  -0.70551  -0.65803  -0.65504  -0.65153
 Alpha  occ. eigenvalues --   -0.64883  -0.62875  -0.62255  -0.55997  -0.55368
 Alpha  occ. eigenvalues --   -0.54242  -0.53599  -0.53011  -0.52860  -0.49799
 Alpha  occ. eigenvalues --   -0.49766  -0.49048  -0.49034  -0.45845  -0.45076
 Alpha  occ. eigenvalues --   -0.38278  -0.37739  -0.36670  -0.36494
 Alpha virt. eigenvalues --    0.04069   0.04886   0.10495   0.11132   0.15674
 Alpha virt. eigenvalues --    0.16416   0.20701   0.21287   0.26548   0.27190
 Alpha virt. eigenvalues --    0.27509   0.28007   0.30411   0.30857   0.31654

 Mulliken charges:
               1
     1  C   -0.169851
     2  C   -0.213120
     3  C   -0.168863
     4  C    0.151122
     5  C   -0.176480
     6  C   -0.221564
     7  H    0.230742
     8  H    0.228362
     9  H    0.274522
    10  H    0.276315
    11  H    0.225895
    12  N    0.485828
    13  O   -0.457737
    14  O   -0.461908
    15  C   -0.171770
    16  C   -0.223985
    17  C   -0.173035
    18  C    0.156753
    19  C   -0.174026
    20  C   -0.214363
    21  H    0.232289
    22  H    0.227920
    23  H    0.275380
    24  H    0.273009
    25  H    0.223007
    26  N    0.487856
    27  O   -0.462038
    28  O   -0.460262
 Sum of Mulliken charges =  -0.00000

 Dipole moment (field-independent basis, Debye):
    X=             -2.0969    Y=              2.4266    Z=              0.1010  Tot=              3.2086
 Quadrupole moment (field-independent basis, Debye-Ang):
   XX=           -149.0702   YY=            -98.5537   ZZ=            -99.2050
   XY=            -18.3176   XZ=             -1.5975   YZ=             -2.7407

 Normal termination of Gaussian 16 at Thu May  6 08:10:33 2021.
