 Gaussian 16, Revision A.03,
 Gaussian 16:  EM64L-G16RevA.03 25-Dec-2016

 -------------
 #p 6-31g* mp2
 -------------

 ------------------------------------------------------
 Input file generated by CHIRIPA (05-May-2021 14:55:23)
 ------------------------------------------------------
 Symbolic Z-matrix:
 Charge =  0 Multiplicity = 1

                         Standard orientation:
 ---------------------------------------------------------------------
 Center     Atomic      Atomic             Coordinates (Angstroms)
 Number     Number       Type             X           Y           Z
 ---------------------------------------------------------------------
      1          6           0       -4.899295    0.606606   -0.235721
      2          6           0       -4.488567   -0.521874   -0.952907
      3          6           0       -3.207183   -1.050774   -0.771612
      4          6           0       -2.358558   -0.423200    0.139034
      5          6           0       -2.738522    0.702343    0.868465
      6          6           0       -4.024504    1.214042    0.671078
      7          1           0       -5.896491    1.010788   -0.382806
      8          1           0       -5.165818   -0.995685   -1.657803
      9          1           0       -2.863397   -1.923337   -1.313703
     10          1           0       -2.041037    1.152860    1.564143
     11          1           0       -4.340776    2.090546    1.229430
     12          7           0       -0.999580   -0.974019    0.339482
     13          8           0       -0.270824   -0.402719    1.147670
     14          8           0       -0.688902   -1.966620   -0.315391
     15          6           0        3.483029    1.163038   -0.225115
     16          6           0        2.262499    2.084056   -0.229285
     17          6           0        2.633567    3.556392   -0.409088
     18          1           0        4.164639    1.471740    0.579284
     19          1           0        4.033438    1.290969   -1.167494
     20          1           0        1.713793    1.953410    0.712241
     21          1           0        1.583624    1.773006   -1.033643
     22          1           0        3.161390    3.707757   -1.356238
     23          1           0        3.292298    3.889186    0.399566
     24          1           0        1.746134    4.196957   -0.409114
     25          6           0        3.128258   -0.312045   -0.046241
     26          6           0        4.348788   -1.233063   -0.042071
     27          6           0        3.977720   -2.705400    0.137733
     28          1           0        2.577850   -0.439976    0.896138
     29          1           0        2.446648   -0.620747   -0.850639
     30          1           0        5.027662   -0.922012    0.762288
     31          1           0        4.897494   -1.102417   -0.983596
     32          1           0        3.318989   -3.038194   -0.670922
     33          1           0        3.449897   -2.856764    1.084882
     34          1           0        4.865153   -3.345965    0.137758
 ---------------------------------------------------------------------

 SCF Done:  E(RHF) =  -669.536144224     A.U. after   15 cycles
 E2 =    -0.2092299188D+01 EUMP2 =    -0.67162844341291D+03

 The electronic state is 1-A.
 Alpha  occ. eigenvalues --  -20.61007 -20.60987 -15.86012 -11.31320 -11.27880
 Alpha  occ. eigenvalues --  -11.27876 -11.27614 -11.26883 -11.26873 -11.20508
 Alpha  occ. eigenvalues --  -11.20337 -11.20202 -11.20141 -11.19638 -11.19548
 Alpha  occ. eigenvalues --   -1.60041  -1.39600  -1.19485  -1.08892  -1.07067
 Alpha  occ. eigenvalues --   -1.04879  -1.02310  -0.95738  -0.94751  -0.86280
 Alpha  occ. eigenvalues --   -0.85768  -0.82576  -0.78387  -0.77627  -0.76787
 Alpha  occ. eigenvalues --   -0.72235  -0.71342  -0.70594  -0.65143  -0.64881
 Alpha  occ. eigenvalues --   -0.63711  -0.62226  -0.59724  -0.58157  -0.56352
 Alpha  occ. eigenvalues --   -0.55383  -0.54046  -0.53211  -0.52971  -0.51527
 Alpha  occ. eigenvalues --   -0.51173  -0.49055  -0.48995  -0.48647  -0.46703
 Alpha  occ. eigenvalues --   -0.45436  -0.45089  -0.44319  -0.44043  -0.42504
 Alpha  occ. eigenvalues --   -0.37460  -0.36478
 Alpha virt. eigenvalues --    0.04879   0.11176   0.16365   0.21270   0.24090
 Alpha virt. eigenvalues --    0.25439   0.27174   0.27764   0.28055   0.29004
 Alpha virt. eigenvalues --    0.29242   0.30964   0.32197   0.32605   0.32694

 Mulliken charges:
               1
     1  C   -0.170524
     2  C   -0.218586
     3  C   -0.170744
     4  C    0.158249
     5  C   -0.170375
     6  C   -0.218562
     7  H    0.226098
     8  H    0.223891
     9  H    0.275803
    10  H    0.275634
    11  H    0.223941
    12  N    0.489743
    13  O   -0.459263
    14  O   -0.459285
    15  C   -0.298325
    16  C   -0.298635
    17  C   -0.474796
    18  H    0.144830
    19  H    0.143338
    20  H    0.160834
    21  H    0.146705
    22  H    0.152638
    23  H    0.153218
    24  H    0.153573
    25  C   -0.301685
    26  C   -0.299673
    27  C   -0.473691
    28  H    0.172033
    29  H    0.152362
    30  H    0.146123
    31  H    0.145118
    32  H    0.159078
    33  H    0.158803
    34  H    0.152133
 Sum of Mulliken charges =  -0.00000

 Dipole moment (field-independent basis, Debye):
    X=             -5.1684    Y=              1.7640    Z=             -0.5758  Tot=              5.4914
 Quadrupole moment (field-independent basis, Debye-Ang):
   XX=            -74.1198   YY=            -96.2540   ZZ=            -92.2001
   XY=             -2.2052   XZ=              2.2766   YZ=              3.8123

 Normal termination of Gaussian 16 at Thu May  6 07:53:18 2021.
