 Gaussian 16, Revision A.03,
 Gaussian 16:  EM64L-G16RevA.03 25-Dec-2016

 -------------
 #p 6-31g* mp2
 -------------

 ------------------------------------------------------
 Input file generated by CHIRIPA (05-May-2021 14:51:12)
 ------------------------------------------------------
 Symbolic Z-matrix:
 Charge =  0 Multiplicity = 1

                         Standard orientation:
 ---------------------------------------------------------------------
 Center     Atomic      Atomic             Coordinates (Angstroms)
 Number     Number       Type             X           Y           Z
 ---------------------------------------------------------------------
      1          6           0       -1.910591   -0.846405   -0.203960
      2          6           0       -1.335473   -2.261616   -0.270298
      3          6           0        0.167055   -2.276460   -0.553108
      4          1           0       -1.709572   -0.330912   -1.153067
      5          1           0       -1.383973   -0.280338    0.576832
      6          1           0       -1.863961   -2.825271   -1.049792
      7          1           0       -1.538054   -2.773865    0.679006
      8          1           0        0.711641   -1.737905    0.229187
      9          1           0        0.383882   -1.789603   -1.509434
     10          1           0        0.557365   -3.298052   -0.596311
     11          6           0       -3.411657   -0.815091    0.078085
     12          6           0       -3.986775    0.600121    0.144422
     13          6           0       -5.489304    0.614965    0.427233
     14          1           0       -3.938275   -1.381157   -0.702708
     15          1           0       -3.612677   -1.330583    1.027191
     16          1           0       -3.784195    1.112370   -0.804882
     17          1           0       -3.458287    1.163776    0.923916
     18          1           0       -5.706130    0.128108    1.383558
     19          1           0       -6.033889    0.076410   -0.355063
     20          1           0       -5.879613    1.636557    0.470436
     21          6           0        2.998524    0.311175    0.509746
     22          6           0        3.754873   -0.762482   -0.273312
     23          6           0        4.424476   -1.794697    0.634411
     24          1           0        3.695130    0.817621    1.191799
     25          1           0        2.239046   -0.171464    1.140339
     26          1           0        4.511771   -0.277857   -0.903279
     27          1           0        3.056426   -1.266303   -0.953718
     28          1           0        3.679108   -2.304635    1.253273
     29          1           0        5.142723   -1.310572    1.303998
     30          1           0        4.959472   -2.552782    0.053939
     31          6           0        2.323724    1.350320   -0.383871
     32          6           0        1.567375    2.423978    0.399188
     33          6           0        0.897773    3.456192   -0.508535
     34          1           0        3.083203    1.832959   -1.014463
     35          1           0        1.627119    0.843873   -1.065924
     36          1           0        2.265823    2.927798    1.079593
     37          1           0        0.810477    1.939351    1.029155
     38          1           0        0.179525    2.972068   -1.178122
     39          1           0        1.643140    3.966130   -1.127397
     40          1           0        0.362777    4.214276    0.071936
 ---------------------------------------------------------------------

 SCF Done:  E(RHF) =  -470.732685755     A.U. after   11 cycles
 E2 =    -0.1584622660D+01 EUMP2 =    -0.47231730841462D+03

 The electronic state is 1-A.
 Alpha  occ. eigenvalues --  -11.21684 -11.21643 -11.21558 -11.21491 -11.21466
 Alpha  occ. eigenvalues --  -11.21421 -11.21335 -11.21274 -11.21150 -11.21101
 Alpha  occ. eigenvalues --  -11.21028 -11.20994  -1.08515  -1.08355  -1.03608
 Alpha  occ. eigenvalues --   -1.03451  -0.96060  -0.95910  -0.87098  -0.86911
 Alpha  occ. eigenvalues --   -0.79682  -0.79514  -0.78322  -0.78182  -0.65220
 Alpha  occ. eigenvalues --   -0.64958  -0.61061  -0.60820  -0.59418  -0.59282
 Alpha  occ. eigenvalues --   -0.57652  -0.57525  -0.55381  -0.55169  -0.52744
 Alpha  occ. eigenvalues --   -0.52625  -0.52458  -0.52334  -0.50097  -0.49759
 Alpha  occ. eigenvalues --   -0.48023  -0.47804  -0.46760  -0.46545  -0.46015
 Alpha  occ. eigenvalues --   -0.45895  -0.45481  -0.45460  -0.43850  -0.43713
 Alpha virt. eigenvalues --    0.19937   0.22692   0.23788   0.24335   0.24873
 Alpha virt. eigenvalues --    0.25985   0.27363   0.27998   0.28205   0.30322
 Alpha virt. eigenvalues --    0.30738   0.30945   0.31686   0.31710   0.31922

 Mulliken charges:
               1
     1  C   -0.300047
     2  C   -0.300562
     3  C   -0.482270
     4  H    0.149464
     5  H    0.150330
     6  H    0.152318
     7  H    0.152164
     8  H    0.162317
     9  H    0.155523
    10  H    0.161001
    11  C   -0.298330
    12  C   -0.299692
    13  C   -0.475774
    14  H    0.149877
    15  H    0.149891
    16  H    0.152056
    17  H    0.152097
    18  H    0.155235
    19  H    0.155248
    20  H    0.160531
    21  C   -0.300503
    22  C   -0.304536
    23  C   -0.475749
    24  H    0.150034
    25  H    0.149202
    26  H    0.151438
    27  H    0.159562
    28  H    0.154970
    29  H    0.154647
    30  H    0.159927
    31  C   -0.300476
    32  C   -0.300191
    33  C   -0.475690
    34  H    0.149267
    35  H    0.152629
    36  H    0.151638
    37  H    0.152026
    38  H    0.155554
    39  H    0.154900
    40  H    0.159974
 Sum of Mulliken charges =  -0.00000

 Dipole moment (field-independent basis, Debye):
    X=             -0.0414    Y=             -0.0304    Z=             -0.0221  Tot=              0.0559
 Quadrupole moment (field-independent basis, Debye-Ang):
   XX=            -85.5886   YY=            -85.1807   ZZ=            -84.0829
   XY=              1.0973   XZ=              0.0837   YZ=              0.4525

 Normal termination of Gaussian 16 at Thu May  6 03:55:45 2021.
