 Gaussian 16, Revision A.03,
 Gaussian 16:  EM64L-G16RevA.03 25-Dec-2016

 -------------
 #p 6-31g* mp2
 -------------

 ------------------------------------------------------
 Input file generated by CHIRIPA (05-May-2021 14:51:08)
 ------------------------------------------------------
 Symbolic Z-matrix:
 Charge =  0 Multiplicity = 1

                         Standard orientation:
 ---------------------------------------------------------------------
 Center     Atomic      Atomic             Coordinates (Angstroms)
 Number     Number       Type             X           Y           Z
 ---------------------------------------------------------------------
      1          6           0        2.771225   -0.179857    0.550549
      2          6           0        1.748189   -1.304608    0.388327
      3          6           0        0.439271   -1.024272    1.127204
      4          1           0        2.976549   -0.030933    1.619478
      5          1           0        2.335032    0.759031    0.182281
      6          1           0        2.186682   -2.241365    0.755515
      7          1           0        1.545419   -1.451001   -0.680350
      8          1           0       -0.023556   -0.104375    0.755475
      9          1           0        0.621350   -0.899230    2.199498
     10          1           0       -0.277669   -1.841042    0.997805
     11          6           0        4.084973   -0.445511   -0.182404
     12          6           0        5.108009    0.679241   -0.020183
     13          6           0        6.416927    0.398904   -0.759060
     14          1           0        4.521166   -1.384398    0.185864
     15          1           0        3.879649   -0.594435   -1.251333
     16          1           0        5.310779    0.825633    1.048494
     17          1           0        4.669516    1.615997   -0.387370
     18          1           0        6.234848    0.273862   -1.831353
     19          1           0        6.879754   -0.520992   -0.387330
     20          1           0        7.133866    1.215674   -0.629661
     21          6           0       -3.804355   -0.315816    0.032381
     22          6           0       -3.373240   -1.571864   -0.725557
     23          6           0       -4.134945   -2.820980   -0.281365
     24          1           0       -3.654057   -0.475203    1.108927
     25          1           0       -4.882321   -0.160142   -0.113050
     26          1           0       -2.296142   -1.724346   -0.579872
     27          1           0       -3.524403   -1.409397   -1.800438
     28          1           0       -5.210358   -2.694067   -0.442554
     29          1           0       -3.975119   -3.010806    0.784947
     30          1           0       -3.811015   -3.707157   -0.836002
     31          6           0       -3.051843    0.941183   -0.400525
     32          6           0       -3.482958    2.197231    0.357412
     33          6           0       -2.721253    3.446348   -0.086780
     34          1           0       -1.973877    0.785511   -0.255094
     35          1           0       -3.202141    1.100571   -1.477071
     36          1           0       -3.331796    2.034764    1.432294
     37          1           0       -4.560057    2.349713    0.211728
     38          1           0       -2.881080    3.636174   -1.153092
     39          1           0       -1.645839    3.319435    0.074410
     40          1           0       -3.045182    4.332524    0.467857
 ---------------------------------------------------------------------

 SCF Done:  E(RHF) =  -470.732924107     A.U. after   11 cycles
 E2 =    -0.1583363885D+01 EUMP2 =    -0.47231628799210D+03

 The electronic state is 1-A.
 Alpha  occ. eigenvalues --  -11.21670 -11.21626 -11.21571 -11.21525 -11.21451
 Alpha  occ. eigenvalues --  -11.21388 -11.21347 -11.21287 -11.21161 -11.21089
 Alpha  occ. eigenvalues --  -11.21067 -11.21038  -1.08481  -1.08382  -1.03586
 Alpha  occ. eigenvalues --   -1.03492  -0.96044  -0.95942  -0.87060  -0.86962
 Alpha  occ. eigenvalues --   -0.79655  -0.79555  -0.78299  -0.78187  -0.65183
 Alpha  occ. eigenvalues --   -0.64968  -0.60980  -0.60925  -0.59421  -0.59286
 Alpha  occ. eigenvalues --   -0.57678  -0.57531  -0.55434  -0.55144  -0.52758
 Alpha  occ. eigenvalues --   -0.52628  -0.52506  -0.52334  -0.50048  -0.49846
 Alpha  occ. eigenvalues --   -0.48027  -0.47820  -0.46759  -0.46561  -0.45877
 Alpha  occ. eigenvalues --   -0.45788  -0.45718  -0.45455  -0.43816  -0.43738
 Alpha virt. eigenvalues --    0.20679   0.23081   0.23557   0.24403   0.26057
 Alpha virt. eigenvalues --    0.26802   0.27263   0.27419   0.27885   0.29168
 Alpha virt. eigenvalues --    0.30303   0.31681   0.31706   0.31796   0.32324

 Mulliken charges:
               1
     1  C   -0.298504
     2  C   -0.299839
     3  C   -0.484185
     4  H    0.149807
     5  H    0.149469
     6  H    0.152339
     7  H    0.152592
     8  H    0.159987
     9  H    0.155628
    10  H    0.163120
    11  C   -0.298368
    12  C   -0.299730
    13  C   -0.475745
    14  H    0.149638
    15  H    0.149878
    16  H    0.151966
    17  H    0.152063
    18  H    0.155273
    19  H    0.155209
    20  H    0.160368
    21  C   -0.297429
    22  C   -0.305109
    23  C   -0.475816
    24  H    0.150138
    25  H    0.149262
    26  H    0.157633
    27  H    0.151401
    28  H    0.155176
    29  H    0.155000
    30  H    0.159865
    31  C   -0.305331
    32  C   -0.299434
    33  C   -0.475518
    34  H    0.156143
    35  H    0.149251
    36  H    0.152229
    37  H    0.151886
    38  H    0.155088
    39  H    0.154264
    40  H    0.160334
 Sum of Mulliken charges =  -0.00000

 Dipole moment (field-independent basis, Debye):
    X=              0.0413    Y=             -0.0078    Z=              0.0126  Tot=              0.0439
 Quadrupole moment (field-independent basis, Debye-Ang):
   XX=            -85.4307   YY=            -85.5878   ZZ=            -83.8494
   XY=             -0.7371   XZ=              1.3625   YZ=             -0.3499

 Normal termination of Gaussian 16 at Thu May  6 03:40:28 2021.
