 Gaussian 16, Revision A.03,
 Gaussian 16:  EM64L-G16RevA.03 25-Dec-2016

 -------------
 #p 6-31g* mp2
 -------------

 ------------------------------------------------------
 Input file generated by CHIRIPA (05-May-2021 14:51:07)
 ------------------------------------------------------
 Symbolic Z-matrix:
 Charge =  0 Multiplicity = 1

                         Standard orientation:
 ---------------------------------------------------------------------
 Center     Atomic      Atomic             Coordinates (Angstroms)
 Number     Number       Type             X           Y           Z
 ---------------------------------------------------------------------
      1          6           0       -3.026874   -0.198878    0.839265
      2          6           0       -1.535572   -0.187631    0.501806
      3          6           0       -0.656679   -0.564914    1.694701
      4          1           0       -3.213854    0.496698    1.668817
      5          1           0       -3.306462   -1.198311    1.200319
      6          1           0       -1.259174    0.811094    0.140187
      7          1           0       -1.352150   -0.883172   -0.327166
      8          1           0       -0.903904   -1.569490    2.052901
      9          1           0       -0.810400    0.134402    2.522909
     10          1           0        0.405507   -0.550528    1.431235
     11          6           0       -3.918418    0.176217   -0.343182
     12          6           0       -5.409720    0.164969   -0.005723
     13          6           0       -6.288613    0.542252   -1.198618
     14          1           0       -3.638830    1.175650   -0.704236
     15          1           0       -3.731438   -0.519359   -1.172734
     16          1           0       -5.593142    0.860510    0.823249
     17          1           0       -5.686118   -0.833756    0.355897
     18          1           0       -6.134892   -0.157064   -2.026826
     19          1           0       -6.041388    1.546829   -1.556818
     20          1           0       -7.350799    0.527867   -0.935152
     21          6           0        3.741300   -0.685847   -0.406788
     22          6           0        2.704474   -1.793270   -0.215502
     23          6           0        3.256918   -3.182245   -0.536984
     24          1           0        4.103844   -0.706861   -1.443641
     25          1           0        4.610682   -0.892690    0.232576
     26          1           0        1.836718   -1.583669   -0.854002
     27          1           0        2.344216   -1.769495    0.820966
     28          1           0        4.109469   -3.416651    0.108625
     29          1           0        3.599088   -3.229769   -1.575859
     30          1           0        2.499115   -3.958786   -0.393530
     31          6           0        3.203993    0.708509   -0.089295
     32          6           0        4.240818    1.815932   -0.280581
     33          6           0        3.688374    3.204906    0.040901
     34          1           0        2.334611    0.915352   -0.728659
     35          1           0        2.841448    0.729522    0.947559
     36          1           0        4.601077    1.792157   -1.317049
     37          1           0        5.108575    1.606330    0.357918
     38          1           0        3.346203    3.252430    1.079776
     39          1           0        2.835822    3.439312   -0.604708
     40          1           0        4.446177    3.981447   -0.102554
 ---------------------------------------------------------------------

 SCF Done:  E(RHF) =  -470.732936014     A.U. after   11 cycles
 E2 =    -0.1583279563D+01 EUMP2 =    -0.47231621557678D+03

 The electronic state is 1-A.
 Alpha  occ. eigenvalues --  -11.21624 -11.21607 -11.21583 -11.21545 -11.21432
 Alpha  occ. eigenvalues --  -11.21373 -11.21372 -11.21310 -11.21086 -11.21083
 Alpha  occ. eigenvalues --  -11.21058 -11.20917  -1.08466  -1.08386  -1.03560
 Alpha  occ. eigenvalues --   -1.03471  -0.95999  -0.95929  -0.87027  -0.86941
 Alpha  occ. eigenvalues --   -0.79645  -0.79529  -0.78286  -0.78205  -0.65093
 Alpha  occ. eigenvalues --   -0.65021  -0.60953  -0.60880  -0.59503  -0.59189
 Alpha  occ. eigenvalues --   -0.57612  -0.57541  -0.55287  -0.55212  -0.52814
 Alpha  occ. eigenvalues --   -0.52564  -0.52425  -0.52330  -0.49952  -0.49861
 Alpha  occ. eigenvalues --   -0.48002  -0.47806  -0.46688  -0.46544  -0.45802
 Alpha  occ. eigenvalues --   -0.45773  -0.45688  -0.45668  -0.43820  -0.43644
 Alpha virt. eigenvalues --    0.21577   0.23130   0.23769   0.24405   0.25653
 Alpha virt. eigenvalues --    0.26377   0.26643   0.27821   0.27849   0.29339
 Alpha virt. eigenvalues --    0.30701   0.31150   0.31621   0.31886   0.32002

 Mulliken charges:
               1
     1  C   -0.298351
     2  C   -0.299291
     3  C   -0.484429
     4  H    0.149624
     5  H    0.149399
     6  H    0.151685
     7  H    0.151560
     8  H    0.153831
     9  H    0.153773
    10  H    0.171387
    11  C   -0.298195
    12  C   -0.299596
    13  C   -0.475677
    14  H    0.149364
    15  H    0.149400
    16  H    0.151935
    17  H    0.151889
    18  H    0.155092
    19  H    0.155126
    20  H    0.160195
    21  C   -0.298065
    22  C   -0.304621
    23  C   -0.475150
    24  H    0.149714
    25  H    0.149491
    26  H    0.153365
    27  H    0.155778
    28  H    0.155206
    29  H    0.155092
    30  H    0.160349
    31  C   -0.301087
    32  C   -0.299594
    33  C   -0.475740
    34  H    0.150409
    35  H    0.151167
    36  H    0.152122
    37  H    0.152040
    38  H    0.155332
    39  H    0.155143
    40  H    0.160327
 Sum of Mulliken charges =  -0.00000

 Dipole moment (field-independent basis, Debye):
    X=              0.0520    Y=             -0.0032    Z=             -0.0087  Tot=              0.0528
 Quadrupole moment (field-independent basis, Debye-Ang):
   XX=            -85.3786   YY=            -84.9861   ZZ=            -84.4264
   XY=              0.4743   XZ=             -0.1911   YZ=              0.1541

 Normal termination of Gaussian 16 at Thu May  6 06:51:25 2021.
