 Gaussian 16, Revision A.03,
 Gaussian 16:  EM64L-G16RevA.03 25-Dec-2016

 -------------
 #p 6-31g* mp2
 -------------

 ------------------------------------------------------
 Input file generated by CHIRIPA (05-May-2021 14:57:23)
 ------------------------------------------------------
 Symbolic Z-matrix:
 Charge =  0 Multiplicity = 1

                         Standard orientation:
 ---------------------------------------------------------------------
 Center     Atomic      Atomic             Coordinates (Angstroms)
 Number     Number       Type             X           Y           Z
 ---------------------------------------------------------------------
      1          6           0        5.643075    1.086408   -0.647513
      2          6           0        4.559694    1.823365   -0.157922
      3          6           0        3.406354    1.175225    0.294041
      4          6           0        3.370292   -0.217350    0.241848
      5          6           0        4.433249   -0.979485   -0.240400
      6          6           0        5.576513   -0.310203   -0.687120
      7          1           0        6.535104    1.598110   -0.996572
      8          1           0        4.608589    2.908093   -0.125986
      9          1           0        2.553127    1.721147    0.677956
     10          1           0        4.355021   -2.059726   -0.259829
     11          1           0        6.416360   -0.885113   -1.066830
     12          7           0        2.154637   -0.914698    0.717546
     13          8           0        2.147761   -2.142461    0.661089
     14          8           0        1.231701   -0.220311    1.137847
     15          6           0       -3.725705    2.608189    0.087539
     16          6           0       -2.490599    2.005973   -0.173939
     17          6           0       -2.392871    0.618485   -0.314908
     18          6           0       -3.555656   -0.139830   -0.187712
     19          6           0       -4.800670    0.430677    0.072583
     20          6           0       -4.874773    1.820008    0.209750
     21          1           0       -3.792446    3.686739    0.195570
     22          1           0       -1.596559    2.615591   -0.269353
     23          1           0       -1.449441    0.126244   -0.517532
     24          1           0       -5.674409   -0.203303    0.162401
     25          1           0       -5.835308    2.284969    0.412797
     26          7           0       -3.464703   -1.609678   -0.334937
     27          8           0       -4.503879   -2.255564   -0.218406
     28          8           0       -2.355957   -2.088026   -0.564075
 ---------------------------------------------------------------------

 SCF Done:  E(RHF) =  -868.337556256     A.U. after   16 cycles
 E2 =    -0.2599327417D+01 EUMP2 =    -0.87093688367289D+03

 The electronic state is 1-A.
 Alpha  occ. eigenvalues --  -20.60980 -20.60887 -20.59785 -20.59722 -15.85981
 Alpha  occ. eigenvalues --  -15.84811 -11.31393 -11.30263 -11.28015 -11.27921
 Alpha  occ. eigenvalues --  -11.27701 -11.27012 -11.26951 -11.26937 -11.26765
 Alpha  occ. eigenvalues --  -11.26734 -11.25983 -11.25924  -1.59990  -1.58833
 Alpha  occ. eigenvalues --   -1.39550  -1.38379  -1.19565  -1.18482  -1.08946
 Alpha  occ. eigenvalues --   -1.07880  -1.04977  -1.03897  -0.95774  -0.94683
 Alpha  occ. eigenvalues --   -0.86372  -0.85302  -0.82611  -0.81511  -0.77657
 Alpha  occ. eigenvalues --   -0.76520  -0.72193  -0.71317  -0.71028  -0.70672
 Alpha  occ. eigenvalues --   -0.70158  -0.69608  -0.65219  -0.64978  -0.64142
 Alpha  occ. eigenvalues --   -0.63929  -0.62329  -0.61227  -0.55466  -0.54455
 Alpha  occ. eigenvalues --   -0.53299  -0.53071  -0.52233  -0.52003  -0.48955
 Alpha  occ. eigenvalues --   -0.48920  -0.47815  -0.47768  -0.44940  -0.43763
 Alpha  occ. eigenvalues --   -0.37540  -0.36583  -0.36511  -0.35496
 Alpha virt. eigenvalues --    0.04857   0.06017   0.11071   0.12147   0.16329
 Alpha virt. eigenvalues --    0.17453   0.21132   0.22189   0.26958   0.27632
 Alpha virt. eigenvalues --    0.28468   0.29154   0.30850   0.31625   0.32493

 Mulliken charges:
               1
     1  C   -0.170795
     2  C   -0.218152
     3  C   -0.172013
     4  C    0.158980
     5  C   -0.170182
     6  C   -0.218267
     7  H    0.226152
     8  H    0.222318
     9  H    0.270345
    10  H    0.278234
    11  H    0.224896
    12  N    0.488635
    13  O   -0.449360
    14  O   -0.468132
    15  C   -0.171280
    16  C   -0.219155
    17  C   -0.166311
    18  C    0.156538
    19  C   -0.171193
    20  C   -0.219611
    21  H    0.221058
    22  H    0.218144
    23  H    0.286693
    24  H    0.273422
    25  H    0.219843
    26  N    0.487508
    27  O   -0.465786
    28  O   -0.452530
 Sum of Mulliken charges =  -0.00000

 Dipole moment (field-independent basis, Debye):
    X=              4.3495    Y=              7.3412    Z=             -1.1652  Tot=              8.6122
 Quadrupole moment (field-independent basis, Debye-Ang):
   XX=            -69.2242   YY=           -104.3589   ZZ=           -107.2163
   XY=            -12.7947   XZ=             -8.1339   YZ=              0.9066

 Normal termination of Gaussian 16 at Thu May  6 17:57:12 2021.
