 Gaussian 16, Revision A.03,
 Gaussian 16:  EM64L-G16RevA.03 25-Dec-2016

 -------------
 #p 6-31g* mp2
 -------------

 ------------------------------------------------------
 Input file generated by CHIRIPA (05-May-2021 14:57:22)
 ------------------------------------------------------
 Symbolic Z-matrix:
 Charge =  0 Multiplicity = 1

                         Standard orientation:
 ---------------------------------------------------------------------
 Center     Atomic      Atomic             Coordinates (Angstroms)
 Number     Number       Type             X           Y           Z
 ---------------------------------------------------------------------
      1          6           0       -5.973489    0.619626    0.507395
      2          6           0       -5.376315   -0.574107    0.925614
      3          6           0       -4.060531   -0.875361    0.561600
      4          6           0       -3.368000    0.043922   -0.224918
      5          6           0       -3.935370    1.241590   -0.657321
      6          6           0       -5.252382    1.522073   -0.281347
      7          1           0       -6.996099    0.845579    0.794815
      8          1           0       -5.933938   -1.276823    1.538223
      9          1           0       -3.573856   -1.792164    0.871499
     10          1           0       -3.354237    1.922453   -1.267344
     11          1           0       -5.713602    2.449911   -0.607596
     12          7           0       -1.974389   -0.264007   -0.616614
     13          8           0       -1.385600    0.562464   -1.310091
     14          8           0       -1.497252   -1.326002   -0.222730
     15          6           0        5.826484    1.081572    0.038610
     16          6           0        5.407712    0.264346   -1.016516
     17          6           0        4.174744   -0.392258   -0.959846
     18          6           0        3.382213   -0.208388    0.172132
     19          6           0        3.771623    0.599250    1.239545
     20          6           0        5.008545    1.246126    1.161294
     21          1           0        6.785819    1.587859   -0.013794
     22          1           0        6.040862    0.134708   -1.889649
     23          1           0        3.825995   -1.030736   -1.762427
     24          1           0        3.118636    0.709065    2.096847
     25          1           0        5.331196    1.880185    1.982214
     26          7           0        2.074832   -0.898355    0.243550
     27          8           0        1.395041   -0.719975    1.251866
     28          8           0        1.754653   -1.604468   -0.710142
 ---------------------------------------------------------------------

 SCF Done:  E(RHF) =  -868.334448439     A.U. after   16 cycles
 E2 =    -0.2601490200D+01 EUMP2 =    -0.87093593863825D+03

 The electronic state is 1-A.
 Alpha  occ. eigenvalues --  -20.59432 -20.59265 -20.59215 -20.59134 -15.84415
 Alpha  occ. eigenvalues --  -15.84270 -11.30247 -11.30134 -11.26897 -11.26844
 Alpha  occ. eigenvalues --  -11.26782 -11.26747 -11.26715 -11.26614 -11.26013
 Alpha  occ. eigenvalues --  -11.25982 -11.25912 -11.25889  -1.58414  -1.58211
 Alpha  occ. eigenvalues --   -1.37958  -1.37778  -1.18466  -1.18353  -1.07780
 Alpha  occ. eigenvalues --   -1.07647  -1.03939  -1.03837  -0.94550  -0.94383
 Alpha  occ. eigenvalues --   -0.85317  -0.85213  -0.81373  -0.81248  -0.76334
 Alpha  occ. eigenvalues --   -0.76203  -0.70625  -0.70498  -0.69807  -0.69584
 Alpha  occ. eigenvalues --   -0.69506  -0.69466  -0.64110  -0.64002  -0.63956
 Alpha  occ. eigenvalues --   -0.63845  -0.61283  -0.61185  -0.54443  -0.54325
 Alpha  occ. eigenvalues --   -0.52245  -0.52132  -0.52042  -0.51944  -0.47889
 Alpha  occ. eigenvalues --   -0.47397  -0.47187  -0.46641  -0.43273  -0.43046
 Alpha  occ. eigenvalues --   -0.36476  -0.36358  -0.35565  -0.35463
 Alpha virt. eigenvalues --    0.06209   0.06365   0.12082   0.12185   0.17624
 Alpha virt. eigenvalues --    0.17757   0.22142   0.22225   0.28020   0.28095
 Alpha virt. eigenvalues --    0.29079   0.29161   0.31649   0.31730   0.33361

 Mulliken charges:
               1
     1  C   -0.172494
     2  C   -0.218701
     3  C   -0.170950
     4  C    0.160194
     5  C   -0.172166
     6  C   -0.218618
     7  H    0.222031
     8  H    0.220911
     9  H    0.277717
    10  H    0.273119
    11  H    0.219769
    12  N    0.486878
    13  O   -0.470003
    14  O   -0.437810
    15  C   -0.172620
    16  C   -0.218565
    17  C   -0.170594
    18  C    0.161836
    19  C   -0.171707
    20  C   -0.218540
    21  H    0.221587
    22  H    0.220291
    23  H    0.275882
    24  H    0.273065
    25  H    0.219425
    26  N    0.490119
    27  O   -0.462646
    28  O   -0.447413
 Sum of Mulliken charges =  -0.00000

 Dipole moment (field-independent basis, Debye):
    X=             -0.3215    Y=              3.1585    Z=              1.0789  Tot=              3.3532
 Quadrupole moment (field-independent basis, Debye-Ang):
   XX=            -45.2671   YY=           -102.0353   ZZ=           -101.3491
   XY=              3.4551   XZ=             -5.0619   YZ=              0.0183

 Normal termination of Gaussian 16 at Wed May  5 17:46:37 2021.
