 Gaussian 16, Revision A.03,
 Gaussian 16:  EM64L-G16RevA.03 25-Dec-2016

 -------------
 #p 6-31g* mp2
 -------------

 ------------------------------------------------------
 Input file generated by CHIRIPA (05-May-2021 14:55:25)
 ------------------------------------------------------
 Symbolic Z-matrix:
 Charge =  0 Multiplicity = 1

                         Standard orientation:
 ---------------------------------------------------------------------
 Center     Atomic      Atomic             Coordinates (Angstroms)
 Number     Number       Type             X           Y           Z
 ---------------------------------------------------------------------
      1          6           0       -3.451833   -1.337174   -1.256269
      2          6           0       -2.172532   -1.062063   -1.750459
      3          6           0       -1.407231   -0.027928   -1.203260
      4          6           0       -1.954770    0.714429   -0.158082
      5          6           0       -3.226223    0.464721    0.356061
      6          6           0       -3.973676   -0.574249   -0.206437
      7          1           0       -4.039405   -2.142392   -1.687289
      8          1           0       -1.764709   -1.652918   -2.565699
      9          1           0       -0.414062    0.206575   -1.566636
     10          1           0       -3.605849    1.071026    1.169508
     11          1           0       -4.966907   -0.785647    0.179371
     12          7           0       -1.154027    1.811781    0.429312
     13          8           0       -1.659130    2.451182    1.349461
     14          8           0       -0.036465    2.011706   -0.041561
     15          6           0        2.100758   -1.191105    0.331192
     16          6           0        1.365878   -1.264854    1.670034
     17          6           0        0.227727   -2.285821    1.664207
     18          1           0        1.382631   -0.937279   -0.460520
     19          1           0        2.499610   -2.184826    0.084553
     20          1           0        0.969719   -0.270977    1.914742
     21          1           0        2.085873   -1.518346    2.458681
     22          1           0        0.610237   -3.287907    1.444863
     23          1           0       -0.512260   -2.033451    0.897833
     24          1           0       -0.283988   -2.322119    2.631001
     25          6           0        3.241300   -0.174841    0.321330
     26          6           0        3.976181   -0.101091   -1.017513
     27          6           0        5.114331    0.919876   -1.011685
     28          1           0        2.842449    0.818881    0.567968
     29          1           0        3.959428   -0.428667    1.113042
     30          1           0        3.256185    0.152401   -1.806160
     31          1           0        4.372340   -1.094968   -1.262222
     32          1           0        5.854318    0.667505   -0.245311
     33          1           0        4.731822    1.921961   -0.792341
     34          1           0        5.626046    0.956174   -1.978480
 ---------------------------------------------------------------------

 SCF Done:  E(RHF) =  -669.535348713     A.U. after   15 cycles
 E2 =    -0.2094981141D+01 EUMP2 =    -0.67163032985400D+03

 The electronic state is 1-A.
 Alpha  occ. eigenvalues --  -20.61006 -20.61000 -15.86031 -11.31330 -11.27897
 Alpha  occ. eigenvalues --  -11.27888 -11.27636 -11.26905 -11.26892 -11.21182
 Alpha  occ. eigenvalues --  -11.21142 -11.21030 -11.20800 -11.20674 -11.20562
 Alpha  occ. eigenvalues --   -1.60063  -1.39619  -1.19517  -1.08913  -1.07953
 Alpha  occ. eigenvalues --   -1.04911  -1.03106  -0.95762  -0.95554  -0.86581
 Alpha  occ. eigenvalues --   -0.86303  -0.82592  -0.79176  -0.77805  -0.77625
 Alpha  occ. eigenvalues --   -0.72258  -0.71395  -0.70624  -0.65174  -0.64964
 Alpha  occ. eigenvalues --   -0.64508  -0.62252  -0.60516  -0.58937  -0.57181
 Alpha  occ. eigenvalues --   -0.55415  -0.54908  -0.53217  -0.52999  -0.52271
 Alpha  occ. eigenvalues --   -0.51958  -0.49470  -0.49015  -0.49007  -0.47490
 Alpha  occ. eigenvalues --   -0.46188  -0.45415  -0.45248  -0.44843  -0.43339
 Alpha  occ. eigenvalues --   -0.37475  -0.36452
 Alpha virt. eigenvalues --    0.04827   0.11071   0.16317   0.20648   0.23172
 Alpha virt. eigenvalues --    0.24569   0.25629   0.27404   0.27818   0.28280
 Alpha virt. eigenvalues --    0.29417   0.31271   0.31579   0.32094   0.32327

 Mulliken charges:
               1
     1  C   -0.170185
     2  C   -0.218679
     3  C   -0.173008
     4  C    0.160189
     5  C   -0.170509
     6  C   -0.217801
     7  H    0.226657
     8  H    0.224982
     9  H    0.277822
    10  H    0.276092
    11  H    0.224260
    12  N    0.489015
    13  O   -0.458344
    14  O   -0.461964
    15  C   -0.295051
    16  C   -0.303639
    17  C   -0.481722
    18  H    0.140335
    19  H    0.144947
    20  H    0.159980
    21  H    0.152153
    22  H    0.151672
    23  H    0.156916
    24  H    0.159014
    25  C   -0.303696
    26  C   -0.297988
    27  C   -0.476319
    28  H    0.170417
    29  H    0.146801
    30  H    0.148044
    31  H    0.147409
    32  H    0.153991
    33  H    0.160965
    34  H    0.157244
 Sum of Mulliken charges =  -0.00000

 Dipole moment (field-independent basis, Debye):
    X=             -2.9812    Y=             -3.6362    Z=             -2.0305  Tot=              5.1218
 Quadrupole moment (field-independent basis, Debye-Ang):
   XX=            -81.4947   YY=           -101.0402   ZZ=            -92.5168
   XY=              4.2729   XZ=              2.4888   YZ=              0.0393

 Normal termination of Gaussian 16 at Thu May  6 04:50:23 2021.
