 Gaussian 16, Revision A.03,
 Gaussian 16:  EM64L-G16RevA.03 25-Dec-2016

 -------------
 #p 6-31g* mp2
 -------------

 ------------------------------------------------------
 Input file generated by CHIRIPA (05-May-2021 14:55:19)
 ------------------------------------------------------
 Symbolic Z-matrix:
 Charge =  0 Multiplicity = 1

                         Standard orientation:
 ---------------------------------------------------------------------
 Center     Atomic      Atomic             Coordinates (Angstroms)
 Number     Number       Type             X           Y           Z
 ---------------------------------------------------------------------
      1          6           0       -5.541835    1.063360    0.581457
      2          6           0       -4.429030    1.905735    0.488767
      3          6           0       -3.192302    1.405003    0.071253
      4          6           0       -3.103761    0.050737   -0.247203
      5          6           0       -4.194165   -0.813869   -0.164956
      6          6           0       -5.421064   -0.291365    0.254875
      7          1           0       -6.498737    1.460797    0.906692
      8          1           0       -4.519883    2.958250    0.741754
      9          1           0       -2.314649    2.034794   -0.009418
     10          1           0       -4.072621   -1.858663   -0.423895
     11          1           0       -6.283589   -0.947907    0.325925
     12          7           0       -1.799695   -0.490890   -0.690433
     13          8           0       -1.747843   -1.687719   -0.965296
     14          8           0       -0.854112    0.291667   -0.754581
     15          6           0        4.617134    0.392442   -0.123972
     16          6           0        6.094322    0.481934    0.260593
     17          6           0        6.819431    1.630441   -0.441508
     18          1           0        4.535029    0.268864   -1.212518
     19          1           0        4.123467    1.343114    0.120795
     20          1           0        6.584753   -0.469111    0.016447
     21          1           0        6.172926    0.605122    1.348371
     22          1           0        6.356511    2.589901   -0.189036
     23          1           0        6.770678    1.509564   -1.528528
     24          1           0        7.873979    1.675987   -0.152179
     25          6           0        3.878703   -0.750852    0.569805
     26          6           0        2.401514   -0.840343    0.185240
     27          6           0        1.676407   -1.988850    0.887342
     28          1           0        4.372369   -1.701524    0.325038
     29          1           0        3.960808   -0.627273    1.658351
     30          1           0        2.322910   -0.963531   -0.902538
     31          1           0        1.911083    0.110702    0.429386
     32          1           0        1.725159   -1.867974    1.974362
     33          1           0        2.139326   -2.948310    0.634870
     34          1           0        0.621857   -2.034396    0.598013
 ---------------------------------------------------------------------

 SCF Done:  E(RHF) =  -669.536451484     A.U. after   15 cycles
 E2 =    -0.2092171210D+01 EUMP2 =    -0.67162862269436D+03

 The electronic state is 1-A.
 Alpha  occ. eigenvalues --  -20.61094 -20.61083 -15.86083 -11.31370 -11.27924
 Alpha  occ. eigenvalues --  -11.27920 -11.27654 -11.26918 -11.26909 -11.20812
 Alpha  occ. eigenvalues --  -11.20429 -11.20362 -11.20094 -11.19778 -11.19285
 Alpha  occ. eigenvalues --   -1.60129  -1.39684  -1.19530  -1.08943  -1.07255
 Alpha  occ. eigenvalues --   -1.04918  -1.02271  -0.95792  -0.94764  -0.86321
 Alpha  occ. eigenvalues --   -0.85805  -0.82626  -0.78402  -0.77688  -0.76962
 Alpha  occ. eigenvalues --   -0.72286  -0.71447  -0.70638  -0.65184  -0.64921
 Alpha  occ. eigenvalues --   -0.63907  -0.62265  -0.59690  -0.58193  -0.56332
 Alpha  occ. eigenvalues --   -0.55409  -0.54103  -0.53252  -0.53009  -0.51477
 Alpha  occ. eigenvalues --   -0.51202  -0.49072  -0.48957  -0.48777  -0.46691
 Alpha  occ. eigenvalues --   -0.45484  -0.45129  -0.44498  -0.44374  -0.42512
 Alpha  occ. eigenvalues --   -0.37503  -0.36516
 Alpha virt. eigenvalues --    0.04787   0.11141   0.16287   0.21272   0.23917
 Alpha virt. eigenvalues --    0.25617   0.27203   0.27751   0.28117   0.28694
 Alpha virt. eigenvalues --    0.29248   0.30846   0.32324   0.32558   0.32828

 Mulliken charges:
               1
     1  C   -0.170345
     2  C   -0.218623
     3  C   -0.170700
     4  C    0.159708
     5  C   -0.170502
     6  C   -0.218621
     7  H    0.226303
     8  H    0.224092
     9  H    0.275888
    10  H    0.276136
    11  H    0.224136
    12  N    0.487855
    13  O   -0.459023
    14  O   -0.457696
    15  C   -0.296664
    16  C   -0.298504
    17  C   -0.474903
    18  H    0.149764
    19  H    0.147793
    20  H    0.150616
    21  H    0.149663
    22  H    0.153632
    23  H    0.154673
    24  H    0.157426
    25  C   -0.298823
    26  C   -0.292720
    27  C   -0.483738
    28  H    0.145467
    29  H    0.143927
    30  H    0.157229
    31  H    0.156959
    32  H    0.142980
    33  H    0.148216
    34  H    0.178396
 Sum of Mulliken charges =  -0.00000

 Dipole moment (field-independent basis, Debye):
    X=             -5.0754    Y=              1.9692    Z=              1.4036  Tot=              5.6220
 Quadrupole moment (field-independent basis, Debye-Ang):
   XX=            -67.6693   YY=            -91.0340   ZZ=            -96.2071
   XY=             -4.7375   XZ=             -3.9437   YZ=              1.2623

 Normal termination of Gaussian 16 at Thu May  6 01:18:56 2021.
