 Gaussian 16, Revision A.03,
 Gaussian 16:  EM64L-G16RevA.03 25-Dec-2016

 -------------
 #p 6-31g* mp2
 -------------

 ------------------------------------------------------
 Input file generated by CHIRIPA (05-May-2021 14:55:22)
 ------------------------------------------------------
 Symbolic Z-matrix:
 Charge =  0 Multiplicity = 1

                         Standard orientation:
 ---------------------------------------------------------------------
 Center     Atomic      Atomic             Coordinates (Angstroms)
 Number     Number       Type             X           Y           Z
 ---------------------------------------------------------------------
      1          6           0       -3.681599   -1.478258    1.311355
      2          6           0       -3.426439   -0.264313    1.957692
      3          6           0       -2.834091    0.797064    1.266930
      4          6           0       -2.508376    0.609026   -0.075396
      5          6           0       -2.749980   -0.588331   -0.747151
      6          6           0       -3.343152   -1.636114   -0.036627
      7          1           0       -4.142069   -2.297481    1.855631
      8          1           0       -3.688219   -0.138875    3.004488
      9          1           0       -2.625420    1.747560    1.742779
     10          1           0       -2.477829   -0.683394   -1.791332
     11          1           0       -3.540146   -2.577758   -0.541151
     12          7           0       -1.880848    1.725463   -0.817136
     13          8           0       -1.603344    1.534491   -1.999150
     14          8           0       -1.678377    2.770358   -0.202451
     15          6           0        2.609760   -0.742215    0.019790
     16          6           0        2.087504   -1.608255   -1.127036
     17          6           0        0.618920   -1.996610   -0.953156
     18          1           0        2.481841   -1.283485    0.967212
     19          1           0        1.995590    0.165965    0.093270
     20          1           0        2.703340   -2.513878   -1.199215
     21          1           0        2.216857   -1.064937   -2.071859
     22          1           0       -0.012417   -1.103565   -0.903304
     23          1           0        0.476830   -2.560738   -0.025701
     24          1           0        0.266215   -2.615477   -1.784097
     25          6           0        4.076448   -0.345847   -0.139729
     26          6           0        4.598704    0.520192    1.007097
     27          6           0        6.067288    0.908549    0.833217
     28          1           0        4.690619   -1.254026   -0.213208
     29          1           0        4.204367    0.195424   -1.087151
     30          1           0        4.469350   -0.023125    1.951919
     31          1           0        3.982869    1.425816    1.079275
     32          1           0        6.209379    1.472677   -0.094237
     33          1           0        6.698625    0.015505    0.783365
     34          1           0        6.419993    1.527416    1.664158
 ---------------------------------------------------------------------

 SCF Done:  E(RHF) =  -669.534939446     A.U. after   15 cycles
 E2 =    -0.2092688190D+01 EUMP2 =    -0.67162762763591D+03

 The electronic state is 1-A.
 Alpha  occ. eigenvalues --  -20.60859 -20.60843 -15.85891 -11.31183 -11.27780
 Alpha  occ. eigenvalues --  -11.27756 -11.27515 -11.26764 -11.26747 -11.21377
 Alpha  occ. eigenvalues --  -11.21315 -11.21136 -11.21071 -11.20991 -11.20807
 Alpha  occ. eigenvalues --   -1.59923  -1.39477  -1.19381  -1.08783  -1.08173
 Alpha  occ. eigenvalues --   -1.04776  -1.03307  -0.95794  -0.95613  -0.86818
 Alpha  occ. eigenvalues --   -0.86169  -0.82454  -0.79384  -0.77986  -0.77505
 Alpha  occ. eigenvalues --   -0.72110  -0.71252  -0.70496  -0.65031  -0.64824
 Alpha  occ. eigenvalues --   -0.64741  -0.62131  -0.60696  -0.59154  -0.57402
 Alpha  occ. eigenvalues --   -0.55312  -0.55072  -0.53235  -0.52865  -0.52476
 Alpha  occ. eigenvalues --   -0.52094  -0.49704  -0.48872  -0.48863  -0.47693
 Alpha  occ. eigenvalues --   -0.46397  -0.45537  -0.45440  -0.44857  -0.43569
 Alpha  occ. eigenvalues --   -0.37339  -0.36299
 Alpha virt. eigenvalues --    0.05010   0.11230   0.16479   0.21322   0.23105
 Alpha virt. eigenvalues --    0.24412   0.26858   0.27045   0.27727   0.28017
 Alpha virt. eigenvalues --    0.28712   0.30807   0.31598   0.32010   0.32140

 Mulliken charges:
               1
     1  C   -0.170685
     2  C   -0.218742
     3  C   -0.170738
     4  C    0.159211
     5  C   -0.171334
     6  C   -0.216639
     7  H    0.225695
     8  H    0.223368
     9  H    0.275535
    10  H    0.276806
    11  H    0.223875
    12  N    0.488209
    13  O   -0.460898
    14  O   -0.460035
    15  C   -0.299048
    16  C   -0.299129
    17  C   -0.479057
    18  H    0.146417
    19  H    0.153810
    20  H    0.149524
    21  H    0.157248
    22  H    0.159943
    23  H    0.151657
    24  H    0.154186
    25  C   -0.298414
    26  C   -0.300154
    27  C   -0.475691
    28  H    0.147718
    29  H    0.152503
    30  H    0.149702
    31  H    0.155152
    32  H    0.156482
    33  H    0.153841
    34  H    0.159683
 Sum of Mulliken charges =  -0.00000

 Dipole moment (field-independent basis, Debye):
    X=             -2.2711    Y=             -3.8556    Z=              2.5947  Tot=              5.1726
 Quadrupole moment (field-independent basis, Debye-Ang):
   XX=            -85.4783   YY=            -98.0898   ZZ=            -91.7301
   XY=              8.2606   XZ=             -6.7103   YZ=              4.0646

 Normal termination of Gaussian 16 at Wed May  5 22:16:56 2021.
