 Gaussian 16, Revision A.03,
 Gaussian 16:  EM64L-G16RevA.03 25-Dec-2016

 -------------
 #p 6-31g* mp2
 -------------

 ------------------------------------------------------
 Input file generated by CHIRIPA (05-May-2021 14:51:11)
 ------------------------------------------------------
 Symbolic Z-matrix:
 Charge =  0 Multiplicity = 1

                         Standard orientation:
 ---------------------------------------------------------------------
 Center     Atomic      Atomic             Coordinates (Angstroms)
 Number     Number       Type             X           Y           Z
 ---------------------------------------------------------------------
      1          6           0        3.239539   -0.150759   -0.008852
      2          6           0        4.344291   -0.763265   -0.870446
      3          6           0        4.484778   -2.272099   -0.666783
      4          1           0        3.448868   -0.361506    1.048839
      5          1           0        2.285793   -0.643663   -0.242968
      6          1           0        5.295422   -0.268400   -0.635767
      7          1           0        4.132408   -0.550871   -1.926197
      8          1           0        3.550474   -2.783625   -0.919800
      9          1           0        4.720096   -2.499549    0.377963
     10          1           0        5.280121   -2.689300   -1.292270
     11          6           0        3.086896    1.357015   -0.201329
     12          6           0        1.982144    1.969521    0.660265
     13          6           0        1.841657    3.478354    0.456602
     14          1           0        4.040642    1.849919    0.032787
     15          1           0        2.877567    1.567762   -1.259021
     16          1           0        2.194027    1.757127    1.716016
     17          1           0        1.031013    1.474656    0.425586
     18          1           0        1.606340    3.705805   -0.588144
     19          1           0        2.775961    3.989881    0.709618
     20          1           0        1.046314    3.895555    1.082088
     21          6           0       -2.429485   -0.789804    0.003990
     22          6           0       -1.854047   -1.627741    1.146232
     23          6           0       -0.385308   -1.993285    0.929489
     24          1           0       -2.323364   -1.344199   -0.938522
     25          1           0       -1.834473    0.127599   -0.104306
     26          1           0       -2.450813   -2.542638    1.253242
     27          1           0       -1.961725   -1.071366    2.086162
     28          1           0        0.227913   -1.090327    0.844470
     29          1           0       -0.263953   -2.569958    0.006819
     30          1           0        0.005794   -2.592240    1.757832
     31          6           0       -3.896950   -0.416453    0.206192
     32          6           0       -4.472388    0.421486   -0.936050
     33          6           0       -5.941127    0.787029   -0.719308
     34          1           0       -4.491963   -1.333855    0.314487
     35          1           0       -4.003072    0.137944    1.148704
     36          1           0       -4.364710   -0.134889   -1.875981
     37          1           0       -3.875622    1.336382   -1.043062
     38          1           0       -6.062482    1.363703    0.203363
     39          1           0       -6.554349   -0.115928   -0.634288
     40          1           0       -6.332229    1.385984   -1.547652
 ---------------------------------------------------------------------

 SCF Done:  E(RHF) =  -470.733024974     A.U. after   11 cycles
 E2 =    -0.1583331613D+01 EUMP2 =    -0.47231635658767D+03

 The electronic state is 1-A.
 Alpha  occ. eigenvalues --  -11.21656 -11.21615 -11.21596 -11.21558 -11.21427
 Alpha  occ. eigenvalues --  -11.21384 -11.21366 -11.21287 -11.21112 -11.21080
 Alpha  occ. eigenvalues --  -11.21023 -11.21021  -1.08452  -1.08412  -1.03534
 Alpha  occ. eigenvalues --   -1.03526  -0.96005  -0.95950  -0.87022  -0.86969
 Alpha  occ. eigenvalues --   -0.79620  -0.79588  -0.78327  -0.78161  -0.65144
 Alpha  occ. eigenvalues --   -0.64993  -0.60964  -0.60893  -0.59366  -0.59323
 Alpha  occ. eigenvalues --   -0.57672  -0.57523  -0.55348  -0.55189  -0.52697
 Alpha  occ. eigenvalues --   -0.52666  -0.52491  -0.52315  -0.49989  -0.49865
 Alpha  occ. eigenvalues --   -0.47985  -0.47909  -0.46752  -0.46606  -0.45986
 Alpha  occ. eigenvalues --   -0.45753  -0.45731  -0.45254  -0.43790  -0.43771
 Alpha virt. eigenvalues --    0.20783   0.23081   0.23741   0.24264   0.25547
 Alpha virt. eigenvalues --    0.26762   0.26897   0.27456   0.27875   0.29628
 Alpha virt. eigenvalues --    0.30304   0.31581   0.31754   0.31878   0.32089

 Mulliken charges:
               1
     1  C   -0.304781
     2  C   -0.299193
     3  C   -0.475667
     4  H    0.149253
     5  H    0.157742
     6  H    0.151564
     7  H    0.151603
     8  H    0.155731
     9  H    0.155130
    10  H    0.159883
    11  C   -0.297969
    12  C   -0.303738
    13  C   -0.475598
    14  H    0.149550
    15  H    0.149472
    16  H    0.152234
    17  H    0.153984
    18  H    0.155362
    19  H    0.155636
    20  H    0.160029
    21  C   -0.299677
    22  C   -0.299266
    23  C   -0.483489
    24  H    0.149483
    25  H    0.149704
    26  H    0.151830
    27  H    0.152066
    28  H    0.164230
    29  H    0.153775
    30  H    0.160678
    31  C   -0.298230
    32  C   -0.299703
    33  C   -0.475717
    34  H    0.149730
    35  H    0.149814
    36  H    0.151863
    37  H    0.151932
    38  H    0.155249
    39  H    0.155213
    40  H    0.160286
 Sum of Mulliken charges =  -0.00000

 Dipole moment (field-independent basis, Debye):
    X=              0.0037    Y=             -0.0014    Z=              0.0081  Tot=              0.0091
 Quadrupole moment (field-independent basis, Debye-Ang):
   XX=            -85.4847   YY=            -85.3550   ZZ=            -83.9763
   XY=              0.9562   XZ=              0.6807   YZ=              0.5786

 Normal termination of Gaussian 16 at Thu May  6 03:51:32 2021.
