 Gaussian 16, Revision A.03,
 Gaussian 16:  EM64L-G16RevA.03 25-Dec-2016

 -------------
 #p 6-31g* mp2
 -------------

 ------------------------------------------------------
 Input file generated by CHIRIPA (05-May-2021 14:57:26)
 ------------------------------------------------------
 Symbolic Z-matrix:
 Charge =  0 Multiplicity = 1

                         Standard orientation:
 ---------------------------------------------------------------------
 Center     Atomic      Atomic             Coordinates (Angstroms)
 Number     Number       Type             X           Y           Z
 ---------------------------------------------------------------------
      1          6           0        2.999175    2.315087   -0.519785
      2          6           0        3.583664    1.287792   -1.267822
      3          6           0        3.405167   -0.048923   -0.899205
      4          6           0        2.632602   -0.323559    0.228185
      5          6           0        2.037295    0.677739    0.993889
      6          6           0        2.229214    2.007324    0.606697
      7          1           0        3.143049    3.350710   -0.813351
      8          1           0        4.182129    1.523846   -2.143130
      9          1           0        3.846218   -0.863828   -1.460295
     10          1           0        1.446011    0.411247    1.861520
     11          1           0        1.774093    2.803080    1.189520
     12          7           0        2.436530   -1.734906    0.628256
     13          8           0        1.751429   -1.950534    1.625641
     14          8           0        2.971664   -2.598767   -0.063129
     15          6           0       -2.426489    2.558040    0.309507
     16          6           0       -3.652668    1.919798    0.523173
     17          6           0       -3.796272    0.553280    0.265194
     18          6           0       -2.687967   -0.147557   -0.207856
     19          6           0       -1.453222    0.459914   -0.430733
     20          6           0       -1.332608    1.827349   -0.165926
     21          1           0       -2.323863    3.619940    0.512563
     22          1           0       -4.503896    2.484750    0.892342
     23          1           0       -4.734005    0.034094    0.421788
     24          1           0       -0.622650   -0.129735   -0.799357
     25          1           0       -0.379132    2.320386   -0.332786
     26          7           0       -2.827825   -1.594714   -0.484581
     27          8           0       -1.836230   -2.189797   -0.900817
     28          8           0       -3.926392   -2.106510   -0.280002
 ---------------------------------------------------------------------

 SCF Done:  E(RHF) =  -868.335307796     A.U. after   16 cycles
 E2 =    -0.2603551797D+01 EUMP2 =    -0.87093885959288D+03

 The electronic state is 1-A.
 Alpha  occ. eigenvalues --  -20.60931 -20.60926 -20.60508 -20.60473 -15.86007
 Alpha  occ. eigenvalues --  -15.85551 -11.31788 -11.31129 -11.28420 -11.28351
 Alpha  occ. eigenvalues --  -11.28232 -11.27717 -11.27704 -11.27548 -11.27532
 Alpha  occ. eigenvalues --  -11.27420 -11.26799 -11.26725  -1.59995  -1.59561
 Alpha  occ. eigenvalues --   -1.39539  -1.39109  -1.20027  -1.19325  -1.09332
 Alpha  occ. eigenvalues --   -1.08695  -1.05484  -1.04742  -0.96080  -0.95491
 Alpha  occ. eigenvalues --   -0.86849  -0.86147  -0.82909  -0.82309  -0.77885
 Alpha  occ. eigenvalues --   -0.77314  -0.72210  -0.71770  -0.71337  -0.71068
 Alpha  occ. eigenvalues --   -0.70883  -0.70460  -0.65639  -0.65499  -0.64976
 Alpha  occ. eigenvalues --   -0.64747  -0.62786  -0.62113  -0.55928  -0.55328
 Alpha  occ. eigenvalues --   -0.53812  -0.53538  -0.53056  -0.52789  -0.48997
 Alpha  occ. eigenvalues --   -0.48938  -0.48543  -0.48511  -0.44848  -0.44463
 Alpha  occ. eigenvalues --   -0.38037  -0.37403  -0.37213  -0.36139
 Alpha virt. eigenvalues --    0.04578   0.05278   0.10301   0.11340   0.15968
 Alpha virt. eigenvalues --    0.16745   0.20456   0.21649   0.26234   0.27427
 Alpha virt. eigenvalues --    0.27779   0.28259   0.30200   0.31220   0.31906

 Mulliken charges:
               1
     1  C   -0.173685
     2  C   -0.218089
     3  C   -0.169925
     4  C    0.155969
     5  C   -0.171395
     6  C   -0.230644
     7  H    0.226556
     8  H    0.226754
     9  H    0.280458
    10  H    0.280507
    11  H    0.222647
    12  N    0.489579
    13  O   -0.455688
    14  O   -0.455251
    15  C   -0.173550
    16  C   -0.218121
    17  C   -0.170756
    18  C    0.160490
    19  C   -0.173330
    20  C   -0.225296
    21  H    0.221358
    22  H    0.222845
    23  H    0.276430
    24  H    0.275930
    25  H    0.223938
    26  N    0.488304
    27  O   -0.455111
    28  O   -0.460925
 Sum of Mulliken charges =  -0.00000

 Dipole moment (field-independent basis, Debye):
    X=              1.4003    Y=              9.6816    Z=             -0.4439  Tot=              9.7924
 Quadrupole moment (field-independent basis, Debye-Ang):
   XX=            -97.5751   YY=           -110.5449   ZZ=           -103.4315
   XY=             -2.1087   XZ=            -10.5532   YZ=              1.7289

 Normal termination of Gaussian 16 at Thu May  6 06:48:19 2021.
