 Gaussian 16, Revision A.03,
 Gaussian 16:  EM64L-G16RevA.03 25-Dec-2016

 -------------
 #p 6-31g* mp2
 -------------

 ------------------------------------------------------
 Input file generated by CHIRIPA (05-May-2021 14:53:17)
 ------------------------------------------------------
 Symbolic Z-matrix:
 Charge =  0 Multiplicity = 1

                         Standard orientation:
 ---------------------------------------------------------------------
 Center     Atomic      Atomic             Coordinates (Angstroms)
 Number     Number       Type             X           Y           Z
 ---------------------------------------------------------------------
      1          6           0        2.212786   -1.310453    0.177183
      2          6           0        1.045216   -1.485961   -0.794394
      3          6           0       -0.034037   -2.426757   -0.257823
      4          1           0        2.654459   -2.293373    0.391047
      5          1           0        1.830870   -0.924827    1.132604
      6          1           0        1.429404   -1.869832   -1.748154
      7          1           0        0.606392   -0.502486   -1.006120
      8          1           0       -0.444894   -2.045214    0.682508
      9          1           0        0.382795   -3.420329   -0.063743
     10          1           0       -0.859149   -2.537859   -0.968250
     11          6           0        3.299812   -0.372731   -0.345101
     12          6           0        4.467381   -0.197224    0.626477
     13          6           0        5.546634    0.743573    0.089905
     14          1           0        3.681727   -0.758357   -1.300522
     15          1           0        2.858138    0.610189   -0.558965
     16          1           0        4.906206   -1.180698    0.838202
     17          1           0        4.083193    0.186648    1.580236
     18          1           0        5.129803    1.737145   -0.104175
     19          1           0        5.957492    0.362030   -0.850426
     20          1           0        6.371746    0.854675    0.800332
     21          6           0       -3.851858   -1.186248    0.351318
     22          6           0       -3.205476   -0.650419    1.470066
     23          6           0       -2.262627    0.371412    1.323622
     24          6           0       -1.989154    0.835740    0.037970
     25          6           0       -2.616402    0.322323   -1.096161
     26          6           0       -3.555780   -0.699025   -0.925974
     27          1           0       -4.582937   -1.979843    0.474302
     28          1           0       -3.433424   -1.026850    2.463235
     29          1           0       -1.747434    0.804271    2.172519
     30          1           0       -2.368203    0.718135   -2.073477
     31          1           0       -4.056219   -1.113266   -1.796612
     32          7           0       -0.992839    1.917252   -0.129632
     33          8           0       -0.769612    2.308961   -1.273035
     34          8           0       -0.454021    2.352751    0.885578
 ---------------------------------------------------------------------

 SCF Done:  E(RHF) =  -669.535017918     A.U. after   15 cycles
 E2 =    -0.2095102321D+01 EUMP2 =    -0.67163012023878D+03

 The electronic state is 1-A.
 Alpha  occ. eigenvalues --  -20.60944 -20.60936 -15.85970 -11.31274 -11.27856
 Alpha  occ. eigenvalues --  -11.27849 -11.27583 -11.26862 -11.26852 -11.21297
 Alpha  occ. eigenvalues --  -11.21028 -11.20970 -11.20842 -11.20736 -11.20480
 Alpha  occ. eigenvalues --   -1.60010  -1.39563  -1.19467  -1.08867  -1.07955
 Alpha  occ. eigenvalues --   -1.04866  -1.03105  -0.95714  -0.95545  -0.86573
 Alpha  occ. eigenvalues --   -0.86262  -0.82545  -0.79183  -0.77751  -0.77597
 Alpha  occ. eigenvalues --   -0.72195  -0.71361  -0.70569  -0.65120  -0.64865
 Alpha  occ. eigenvalues --   -0.64580  -0.62213  -0.60547  -0.58960  -0.57175
 Alpha  occ. eigenvalues --   -0.55360  -0.55036  -0.53055  -0.52954  -0.52141
 Alpha  occ. eigenvalues --   -0.51986  -0.49443  -0.48959  -0.48953  -0.47502
 Alpha  occ. eigenvalues --   -0.46261  -0.45303  -0.45247  -0.44872  -0.43346
 Alpha  occ. eigenvalues --   -0.37391  -0.36403
 Alpha virt. eigenvalues --    0.04916   0.11130   0.16395   0.21303   0.23116
 Alpha virt. eigenvalues --    0.24632   0.26909   0.27144   0.27944   0.28263
 Alpha virt. eigenvalues --    0.28394   0.30827   0.31740   0.32025   0.32125

 Mulliken charges:
               1
     1  C   -0.297726
     2  C   -0.303348
     3  C   -0.477537
     4  H    0.146772
     5  H    0.149546
     6  H    0.151342
     7  H    0.152791
     8  H    0.154926
     9  H    0.151699
    10  H    0.156217
    11  C   -0.300921
    12  C   -0.299392
    13  C   -0.476237
    14  H    0.147119
    15  H    0.161754
    16  H    0.148282
    17  H    0.153599
    18  H    0.160001
    19  H    0.153334
    20  H    0.158125
    21  C   -0.168286
    22  C   -0.217160
    23  C   -0.173537
    24  C    0.160611
    25  C   -0.170787
    26  C   -0.217807
    27  H    0.226300
    28  H    0.224085
    29  H    0.275674
    30  H    0.276116
    31  H    0.223986
    32  N    0.489826
    33  O   -0.459602
    34  O   -0.459767
 Sum of Mulliken charges =  -0.00000

 Dipole moment (field-independent basis, Debye):
    X=             -3.6550    Y=             -3.6363    Z=              0.5975  Tot=              5.1903
 Quadrupole moment (field-independent basis, Debye-Ang):
   XX=            -81.7857   YY=           -102.0474   ZZ=            -89.6988
   XY=              4.2856   XZ=             -0.5544   YZ=              0.9093

 Normal termination of Gaussian 16 at Wed May  5 15:44:18 2021.
