 Gaussian 16, Revision A.03,
 Gaussian 16:  EM64L-G16RevA.03 25-Dec-2016

 -------------
 #p 6-31g* mp2
 -------------

 ------------------------------------------------------
 Input file generated by CHIRIPA (05-May-2021 14:55:24)
 ------------------------------------------------------
 Symbolic Z-matrix:
 Charge =  0 Multiplicity = 1

                         Standard orientation:
 ---------------------------------------------------------------------
 Center     Atomic      Atomic             Coordinates (Angstroms)
 Number     Number       Type             X           Y           Z
 ---------------------------------------------------------------------
      1          6           0       -2.533090    2.533516    0.345672
      2          6           0       -3.896048    2.297841    0.137526
      3          6           0       -4.358970    1.008840   -0.143059
      4          6           0       -3.427036   -0.025823   -0.208344
      5          6           0       -2.062828    0.177099   -0.005732
      6          6           0       -1.622436    1.474261    0.273505
      7          1           0       -2.182232    3.538013    0.563113
      8          1           0       -4.605551    3.118558    0.192960
      9          1           0       -5.408603    0.798251   -0.308405
     10          1           0       -1.379561   -0.661206   -0.067438
     11          1           0       -0.563366    1.654341    0.434713
     12          7           0       -3.905185   -1.394750   -0.504674
     13          8           0       -3.063887   -2.289257   -0.556748
     14          8           0       -5.112203   -1.547287   -0.679252
     15          6           0        4.981509   -0.415115   -0.067732
     16          6           0        5.691561    0.799639   -0.666220
     17          6           0        7.082384    0.464850   -1.205963
     18          1           0        5.599127   -0.831935    0.739579
     19          1           0        4.899615   -1.197842   -0.834561
     20          1           0        5.770857    1.580366    0.101109
     21          1           0        5.072091    1.213731   -1.472075
     22          1           0        7.018309   -0.296390   -1.990189
     23          1           0        7.721045    0.072327   -0.408067
     24          1           0        7.571976    1.347508   -1.629133
     25          6           0        3.589962   -0.096357    0.476068
     26          6           0        2.879910   -1.311109    1.074554
     27          6           0        1.489088   -0.976320    1.614297
     28          1           0        3.671855    0.686372    1.242895
     29          1           0        2.972344    0.320465   -0.331245
     30          1           0        3.499380   -1.725201    1.880409
     31          1           0        2.800614   -2.091836    0.307225
     32          1           0        0.850425   -0.583797    0.816402
     33          1           0        1.553161   -0.215081    2.398523
     34          1           0        0.999495   -1.858978    2.037467
 ---------------------------------------------------------------------

 SCF Done:  E(RHF) =  -669.535283234     A.U. after   15 cycles
 E2 =    -0.2091403386D+01 EUMP2 =    -0.67162668661919D+03

 The electronic state is 1-A.
 Alpha  occ. eigenvalues --  -20.60714 -20.60709 -15.85765 -11.31111 -11.27688
 Alpha  occ. eigenvalues --  -11.27649 -11.27429 -11.26705 -11.26667 -11.22124
 Alpha  occ. eigenvalues --  -11.21966 -11.21937 -11.21851 -11.21766 -11.21350
 Alpha  occ. eigenvalues --   -1.59789  -1.39343  -1.19286  -1.08904  -1.08686
 Alpha  occ. eigenvalues --   -1.04693  -1.04009  -0.96483  -0.95523  -0.87504
 Alpha  occ. eigenvalues --   -0.86086  -0.82362  -0.80081  -0.78714  -0.77403
 Alpha  occ. eigenvalues --   -0.71986  -0.71111  -0.70410  -0.65537  -0.64942
 Alpha  occ. eigenvalues --   -0.64694  -0.62147  -0.61340  -0.59830  -0.58069
 Alpha  occ. eigenvalues --   -0.55800  -0.55178  -0.53164  -0.53028  -0.52884
 Alpha  occ. eigenvalues --   -0.52773  -0.50424  -0.48744  -0.48740  -0.48388
 Alpha  occ. eigenvalues --   -0.47100  -0.46259  -0.46163  -0.44752  -0.44250
 Alpha  occ. eigenvalues --   -0.37271  -0.36285
 Alpha virt. eigenvalues --    0.05124   0.11364   0.16610   0.19999   0.22644
 Alpha virt. eigenvalues --    0.23817   0.25492   0.26486   0.27080   0.28014
 Alpha virt. eigenvalues --    0.29290   0.30448   0.31253   0.31504   0.31907

 Mulliken charges:
               1
     1  C   -0.170895
     2  C   -0.218798
     3  C   -0.170927
     4  C    0.159870
     5  C   -0.176225
     6  C   -0.220544
     7  H    0.225328
     8  H    0.223142
     9  H    0.275280
    10  H    0.279873
    11  H    0.225393
    12  N    0.488427
    13  O   -0.460749
    14  O   -0.460714
    15  C   -0.298685
    16  C   -0.299942
    17  C   -0.476012
    18  H    0.151267
    19  H    0.151907
    20  H    0.151282
    21  H    0.151446
    22  H    0.156462
    23  H    0.155963
    24  H    0.160826
    25  C   -0.298858
    26  C   -0.300042
    27  C   -0.480576
    28  H    0.148217
    29  H    0.145944
    30  H    0.155444
    31  H    0.156866
    32  H    0.144823
    33  H    0.155363
    34  H    0.169845
 Sum of Mulliken charges =  -0.00000

 Dipole moment (field-independent basis, Debye):
    X=              1.8621    Y=              4.7300    Z=              1.0932  Tot=              5.1995
 Quadrupole moment (field-independent basis, Debye-Ang):
   XX=           -102.2998   YY=            -94.7814   ZZ=            -95.2953
   XY=            -18.6660   XZ=             -2.8013   YZ=             -1.0905

 Normal termination of Gaussian 16 at Thu May  6 01:33:31 2021.
