 Gaussian 16, Revision A.03,
 Gaussian 16:  EM64L-G16RevA.03 25-Dec-2016

 -------------
 #p 6-31g* mp2
 -------------

 ------------------------------------------------------
 Input file generated by CHIRIPA (05-May-2021 14:55:23)
 ------------------------------------------------------
 Symbolic Z-matrix:
 Charge =  0 Multiplicity = 1

                         Standard orientation:
 ---------------------------------------------------------------------
 Center     Atomic      Atomic             Coordinates (Angstroms)
 Number     Number       Type             X           Y           Z
 ---------------------------------------------------------------------
      1          6           0        3.443427    2.119844    0.035040
      2          6           0        4.438714    1.145368    0.162795
      3          6           0        4.109302   -0.213139    0.140569
      4          6           0        2.768566   -0.563189   -0.011689
      5          6           0        1.754164    0.384157   -0.141351
      6          6           0        2.106685    1.736804   -0.116358
      7          1           0        3.708299    3.172888    0.053381
      8          1           0        5.477670    1.439921    0.280504
      9          1           0        4.859725   -0.988323    0.237376
     10          1           0        0.727161    0.059754   -0.257309
     11          1           0        1.331626    2.491416   -0.215795
     12          7           0        2.407599   -1.998278   -0.036684
     13          8           0        1.219082   -2.280687   -0.171988
     14          8           0        3.320026   -2.813516    0.079503
     15          6           0       -4.094994   -0.079426    0.341596
     16          6           0       -4.236713   -1.390844   -0.431762
     17          6           0       -5.190414   -2.376001    0.244782
     18          1           0       -3.739255   -0.297109    1.357966
     19          1           0       -5.085732    0.383353    0.449620
     20          1           0       -3.245810   -1.850324   -0.539497
     21          1           0       -4.591972   -1.169997   -1.446472
     22          1           0       -6.190794   -1.941172    0.338390
     23          1           0       -4.836984   -2.625364    1.250518
     24          1           0       -5.276905   -3.306539   -0.324848
     25          6           0       -3.144833    0.915700   -0.322217
     26          6           0       -3.003114    2.227117    0.451142
     27          6           0       -2.049414    3.212275   -0.225402
     28          1           0       -2.154095    0.452920   -0.430241
     29          1           0       -3.500572    1.133383   -1.338587
     30          1           0       -2.647854    2.006271    1.465850
     31          1           0       -3.994017    2.686598    0.558876
     32          1           0       -2.402844    3.461639   -1.231139
     33          1           0       -1.049032    2.777446   -0.319012
     34          1           0       -1.962923    4.142814    0.344227
 ---------------------------------------------------------------------

 SCF Done:  E(RHF) =  -669.535516301     A.U. after   15 cycles
 E2 =    -0.2091551711D+01 EUMP2 =    -0.67162706801215D+03

 The electronic state is 1-A.
 Alpha  occ. eigenvalues --  -20.60781 -20.60775 -15.85833 -11.31184 -11.27750
 Alpha  occ. eigenvalues --  -11.27746 -11.27483 -11.26762 -11.26730 -11.22112
 Alpha  occ. eigenvalues --  -11.21933 -11.21729 -11.21450 -11.21384 -11.20836
 Alpha  occ. eigenvalues --   -1.59855  -1.39410  -1.19352  -1.08749  -1.08645
 Alpha  occ. eigenvalues --   -1.04756  -1.03747  -0.96233  -0.95588  -0.87257
 Alpha  occ. eigenvalues --   -0.86151  -0.82425  -0.79842  -0.78388  -0.77472
 Alpha  occ. eigenvalues --   -0.72053  -0.71177  -0.70463  -0.65292  -0.65002
 Alpha  occ. eigenvalues --   -0.64775  -0.62153  -0.61105  -0.59636  -0.57804
 Alpha  occ. eigenvalues --   -0.55568  -0.55244  -0.53082  -0.53003  -0.52864
 Alpha  occ. eigenvalues --   -0.52557  -0.50172  -0.48810  -0.48808  -0.48141
 Alpha  occ. eigenvalues --   -0.46868  -0.45941  -0.45814  -0.44819  -0.43989
 Alpha  occ. eigenvalues --   -0.37331  -0.36355
 Alpha virt. eigenvalues --    0.05063   0.11299   0.16560   0.18637   0.22843
 Alpha virt. eigenvalues --    0.23951   0.24976   0.25785   0.27001   0.28458
 Alpha virt. eigenvalues --    0.29375   0.30384   0.31344   0.31677   0.31967

 Mulliken charges:
               1
     1  C   -0.171282
     2  C   -0.218693
     3  C   -0.170543
     4  C    0.158233
     5  C   -0.176753
     6  C   -0.226227
     7  H    0.226293
     8  H    0.223387
     9  H    0.275539
    10  H    0.279435
    11  H    0.232628
    12  N    0.487766
    13  O   -0.461114
    14  O   -0.460284
    15  C   -0.298394
    16  C   -0.302345
    17  C   -0.475920
    18  H    0.151531
    19  H    0.149233
    20  H    0.160902
    21  H    0.150749
    22  H    0.153103
    23  H    0.156780
    24  H    0.162369
    25  C   -0.301250
    26  C   -0.300131
    27  C   -0.479404
    28  H    0.148367
    29  H    0.151298
    30  H    0.153500
    31  H    0.155408
    32  H    0.159692
    33  H    0.144239
    34  H    0.161887
 Sum of Mulliken charges =  -0.00000

 Dipole moment (field-independent basis, Debye):
    X=              1.1348    Y=              5.0024    Z=              0.1000  Tot=              5.1305
 Quadrupole moment (field-independent basis, Debye-Ang):
   XX=            -82.3367   YY=           -101.1263   ZZ=            -95.4427
   XY=             11.3049   XZ=              1.5366   YZ=             -0.1674

 Normal termination of Gaussian 16 at Wed May  5 17:34:16 2021.
