 Gaussian 16, Revision A.03,
 Gaussian 16:  EM64L-G16RevA.03 25-Dec-2016

 -------------
 #p 6-31g* mp2
 -------------

 ------------------------------------------------------
 Input file generated by CHIRIPA (05-May-2021 14:51:11)
 ------------------------------------------------------
 Symbolic Z-matrix:
 Charge =  0 Multiplicity = 1

                         Standard orientation:
 ---------------------------------------------------------------------
 Center     Atomic      Atomic             Coordinates (Angstroms)
 Number     Number       Type             X           Y           Z
 ---------------------------------------------------------------------
      1          6           0        2.847575   -0.195282   -0.616958
      2          6           0        2.167496   -1.556858   -0.470026
      3          6           0        2.744418   -2.610911   -1.415504
      4          1           0        2.746898    0.147543   -1.655842
      5          1           0        3.924096   -0.308639   -0.428151
      6          1           0        1.092366   -1.440713   -0.657697
      7          1           0        2.269638   -1.896394    0.568674
      8          1           0        3.812679   -2.756053   -1.224838
      9          1           0        2.628718   -2.297783   -2.458176
     10          1           0        2.243795   -3.576521   -1.293714
     11          6           0        2.281751    0.868950    0.321648
     12          6           0        2.961830    2.230525    0.174716
     13          6           0        2.384908    3.284578    1.120194
     14          1           0        1.205230    0.982307    0.132841
     15          1           0        2.382428    0.526124    1.360532
     16          1           0        2.859688    2.570061   -0.863985
     17          1           0        4.036960    2.114380    0.362386
     18          1           0        2.500608    2.971450    2.162866
     19          1           0        1.316647    3.429720    0.929527
     20          1           0        2.885531    4.250188    0.998404
     21          6           0       -2.893072    0.026241   -0.438653
     22          6           0       -3.283789    1.468961   -0.116345
     23          6           0       -3.939611    2.182123   -1.299177
     24          1           0       -2.207628    0.021783   -1.297194
     25          1           0       -3.789033   -0.527844   -0.751124
     26          1           0       -2.387595    2.019797    0.196754
     27          1           0       -3.968231    1.469998    0.741650
     28          1           0       -4.849405    1.657753   -1.608873
     29          1           0       -3.259788    2.210676   -2.156864
     30          1           0       -4.210835    3.211983   -1.046818
     31          6           0       -2.236254   -0.699908    0.733963
     32          6           0       -1.845537   -2.142628    0.411656
     33          6           0       -1.189715   -2.855790    1.594487
     34          1           0       -1.340293   -0.145823    1.046435
     35          1           0       -2.921698   -0.695451    1.592505
     36          1           0       -1.161095   -2.143665   -0.446338
     37          1           0       -2.741731   -2.693465    0.098556
     38          1           0       -1.869538   -2.884343    2.452175
     39          1           0       -0.279921   -2.331421    1.904183
     40          1           0       -0.918491   -3.885650    1.342128
 ---------------------------------------------------------------------

 SCF Done:  E(RHF) =  -470.733144654     A.U. after   11 cycles
 E2 =    -0.1584069251D+01 EUMP2 =    -0.47231721390525D+03

 The electronic state is 1-A.
 Alpha  occ. eigenvalues --  -11.21663 -11.21630 -11.21629 -11.21563 -11.21480
 Alpha  occ. eigenvalues --  -11.21414 -11.21414 -11.21343 -11.21121 -11.21109
 Alpha  occ. eigenvalues --  -11.21095 -11.21009  -1.08510  -1.08419  -1.03606
 Alpha  occ. eigenvalues --   -1.03501  -0.96039  -0.95964  -0.87048  -0.86987
 Alpha  occ. eigenvalues --   -0.79670  -0.79575  -0.78321  -0.78245  -0.65284
 Alpha  occ. eigenvalues --   -0.64929  -0.61121  -0.60824  -0.59393  -0.59326
 Alpha  occ. eigenvalues --   -0.57649  -0.57577  -0.55349  -0.55225  -0.52721
 Alpha  occ. eigenvalues --   -0.52663  -0.52476  -0.52374  -0.50019  -0.49890
 Alpha  occ. eigenvalues --   -0.48085  -0.47803  -0.46920  -0.46457  -0.46068
 Alpha  occ. eigenvalues --   -0.45817  -0.45606  -0.45471  -0.43840  -0.43778
 Alpha virt. eigenvalues --    0.19599   0.22667   0.23603   0.24677   0.25449
 Alpha virt. eigenvalues --    0.25928   0.26864   0.27525   0.28483   0.30225
 Alpha virt. eigenvalues --    0.30928   0.31102   0.31545   0.31871   0.32228

 Mulliken charges:
               1
     1  C   -0.297766
     2  C   -0.307638
     3  C   -0.475749
     4  H    0.149513
     5  H    0.149899
     6  H    0.158884
     7  H    0.153315
     8  H    0.155467
     9  H    0.154969
    10  H    0.160755
    11  C   -0.301215
    12  C   -0.299608
    13  C   -0.475717
    14  H    0.151006
    15  H    0.149681
    16  H    0.152090
    17  H    0.152374
    18  H    0.155431
    19  H    0.154836
    20  H    0.160605
    21  C   -0.298074
    22  C   -0.299634
    23  C   -0.475692
    24  H    0.148435
    25  H    0.149831
    26  H    0.151240
    27  H    0.152340
    28  H    0.155361
    29  H    0.154926
    30  H    0.160396
    31  C   -0.302350
    32  C   -0.303026
    33  C   -0.477070
    34  H    0.153021
    35  H    0.149917
    36  H    0.154855
    37  H    0.152080
    38  H    0.154625
    39  H    0.158102
    40  H    0.159585
 Sum of Mulliken charges =  -0.00000

 Dipole moment (field-independent basis, Debye):
    X=              0.0286    Y=             -0.0012    Z=              0.0070  Tot=              0.0294
 Quadrupole moment (field-independent basis, Debye-Ang):
   XX=            -83.7341   YY=            -85.7997   ZZ=            -85.1391
   XY=              0.6707   XZ=              0.0251   YZ=             -0.3214

 Normal termination of Gaussian 16 at Wed May  5 21:26:45 2021.
