 Gaussian 16, Revision A.03,
 Gaussian 16:  EM64L-G16RevA.03 25-Dec-2016

 -------------
 #p 6-31g* mp2
 -------------

 ------------------------------------------------------
 Input file generated by CHIRIPA (05-May-2021 14:57:25)
 ------------------------------------------------------
 Symbolic Z-matrix:
 Charge =  0 Multiplicity = 1

                         Standard orientation:
 ---------------------------------------------------------------------
 Center     Atomic      Atomic             Coordinates (Angstroms)
 Number     Number       Type             X           Y           Z
 ---------------------------------------------------------------------
      1          6           0       -3.371080    1.997532    1.358870
      2          6           0       -3.516827    0.771991    2.017147
      3          6           0       -3.340830   -0.430501    1.326072
      4          6           0       -3.018127   -0.370220   -0.028742
      5          6           0       -2.866097    0.835002   -0.712567
      6          6           0       -3.046752    2.025077   -0.001488
      7          1           0       -3.509608    2.926834    1.903484
      8          1           0       -3.768664    0.747562    3.073569
      9          1           0       -3.447646   -1.393227    1.811011
     10          1           0       -2.614631    0.827353   -1.766191
     11          1           0       -2.932933    2.975386   -0.515302
     12          7           0       -2.829341   -1.636671   -0.770941
     13          8           0       -2.545396   -1.556546   -1.964085
     14          8           0       -2.968891   -2.685461   -0.145479
     15          6           0        1.445208    1.750496   -1.219667
     16          6           0        2.721786    2.188266   -0.851933
     17          6           0        3.618797    1.316530   -0.227437
     18          6           0        3.204314    0.007874    0.015284
     19          6           0        1.939204   -0.458125   -0.339163
     20          6           0        1.058674    0.431024   -0.962562
     21          1           0        0.754789    2.434445   -1.704364
     22          1           0        3.024690    3.212435   -1.050361
     23          1           0        4.613059    1.629109    0.067782
     24          1           0        1.665876   -1.484883   -0.128262
     25          1           0        0.067893    0.088285   -1.247045
     26          7           0        4.145215   -0.924211    0.675829
     27          8           0        3.755892   -2.072229    0.878610
     28          8           0        5.254203   -0.489114    0.978276
 ---------------------------------------------------------------------

 SCF Done:  E(RHF) =  -868.337832949     A.U. after   16 cycles
 E2 =    -0.2600954813D+01 EUMP2 =    -0.87093878776223D+03

 The electronic state is 1-A.
 Alpha  occ. eigenvalues --  -20.61755 -20.61720 -20.60610 -20.60594 -15.86756
 Alpha  occ. eigenvalues --  -15.85656 -11.32092 -11.31044 -11.28714 -11.28570
 Alpha  occ. eigenvalues --  -11.28316 -11.27684 -11.27635 -11.27560 -11.27542
 Alpha  occ. eigenvalues --  -11.27423 -11.26701 -11.26557  -1.60801  -1.59680
 Alpha  occ. eigenvalues --   -1.40355  -1.39232  -1.20248  -1.19220  -1.09637
 Alpha  occ. eigenvalues --   -1.08630  -1.05643  -1.04612  -0.96480  -0.95458
 Alpha  occ. eigenvalues --   -0.87044  -0.86021  -0.83308  -0.82277  -0.78383
 Alpha  occ. eigenvalues --   -0.77308  -0.72960  -0.72137  -0.71875  -0.71332
 Alpha  occ. eigenvalues --   -0.71004  -0.70372  -0.65892  -0.65636  -0.64875
 Alpha  occ. eigenvalues --   -0.64623  -0.62991  -0.61944  -0.56102  -0.55186
 Alpha  occ. eigenvalues --   -0.53991  -0.53723  -0.52950  -0.52675  -0.49744
 Alpha  occ. eigenvalues --   -0.49715  -0.48639  -0.48626  -0.45738  -0.44631
 Alpha  occ. eigenvalues --   -0.38196  -0.37377  -0.37103  -0.36187
 Alpha virt. eigenvalues --    0.04118   0.05209   0.10266   0.11454   0.15630
 Alpha virt. eigenvalues --    0.16694   0.20025   0.21756   0.25904   0.26861
 Alpha virt. eigenvalues --    0.27755   0.28962   0.29791   0.31192   0.31900

 Mulliken charges:
               1
     1  C   -0.169433
     2  C   -0.216978
     3  C   -0.169387
     4  C    0.159035
     5  C   -0.181251
     6  C   -0.217288
     7  H    0.228809
     8  H    0.227897
     9  H    0.279313
    10  H    0.271948
    11  H    0.222630
    12  N    0.486663
    13  O   -0.463531
    14  O   -0.452676
    15  C   -0.171989
    16  C   -0.218542
    17  C   -0.171953
    18  C    0.158711
    19  C   -0.172794
    20  C   -0.221219
    21  H    0.218014
    22  H    0.221166
    23  H    0.274757
    24  H    0.280322
    25  H    0.230112
    26  N    0.487797
    27  O   -0.458354
    28  O   -0.461777
 Sum of Mulliken charges =  -0.00000

 Dipole moment (field-independent basis, Debye):
    X=             -4.2492    Y=              7.5974    Z=              0.5313  Tot=              8.7211
 Quadrupole moment (field-independent basis, Debye-Ang):
   XX=           -120.1219   YY=           -104.6599   ZZ=           -102.4133
   XY=              0.5082   XZ=            -16.8977   YZ=             -3.1560

 Normal termination of Gaussian 16 at Fri May  7 12:39:39 2021.
