 Gaussian 16, Revision A.03,
 Gaussian 16:  EM64L-G16RevA.03 25-Dec-2016

 -------------
 #p 6-31g* mp2
 -------------

 ------------------------------------------------------
 Input file generated by CHIRIPA (05-May-2021 14:51:10)
 ------------------------------------------------------
 Symbolic Z-matrix:
 Charge =  0 Multiplicity = 1

                         Standard orientation:
 ---------------------------------------------------------------------
 Center     Atomic      Atomic             Coordinates (Angstroms)
 Number     Number       Type             X           Y           Z
 ---------------------------------------------------------------------
      1          6           0       -3.822551    0.268996   -0.135381
      2          6           0       -3.737390    1.644563    0.526849
      3          6           0       -5.092870    2.144739    1.027141
      4          1           0       -4.530040    0.316251   -0.974531
      5          1           0       -4.237679   -0.451141    0.583275
      6          1           0       -3.321255    2.361595   -0.192395
      7          1           0       -3.029877    1.594076    1.364401
      8          1           0       -5.511111    1.451659    1.764241
      9          1           0       -5.804144    2.223538    0.198599
     10          1           0       -5.008874    3.129647    1.496991
     11          6           0       -2.475454   -0.244541   -0.640691
     12          6           0       -2.560616   -1.620108   -1.302922
     13          6           0       -1.205135   -2.120283   -1.803213
     14          1           0       -2.060326    0.475596   -1.359347
     15          1           0       -1.767966   -0.291795    0.198459
     16          1           0       -3.268129   -1.569621   -2.140473
     17          1           0       -2.976750   -2.337140   -0.583677
     18          1           0       -0.493861   -2.199083   -0.974672
     19          1           0       -0.786895   -1.427204   -2.540313
     20          1           0       -1.289132   -3.105192   -2.273063
     21          6           0        3.337739    0.376040   -0.242089
     22          6           0        4.437487    1.412499   -0.009074
     23          6           0        4.804096    2.181104   -1.278972
     24          1           0        3.666025   -0.329532   -1.017551
     25          1           0        2.445201    0.881102   -0.636658
     26          1           0        5.327222    0.905831    0.386241
     27          1           0        4.106623    2.115573    0.766059
     28          1           0        3.931677    2.712185   -1.673228
     29          1           0        5.159211    1.495569   -2.055204
     30          1           0        5.592070    2.916706   -1.089640
     31          6           0        2.960266   -0.400496    1.018162
     32          6           0        1.860519   -1.436955    0.785147
     33          6           0        1.493910   -2.205559    2.055044
     34          1           0        3.852805   -0.905556    1.412730
     35          1           0        2.631981    0.305076    1.793623
     36          1           0        2.191383   -2.140028    0.010013
     37          1           0        0.970784   -0.930286    0.389832
     38          1           0        1.138794   -1.520024    2.831277
     39          1           0        2.366329   -2.736640    2.449301
     40          1           0        0.705936   -2.941161    1.865713
 ---------------------------------------------------------------------

 SCF Done:  E(RHF) =  -470.732932046     A.U. after   11 cycles
 E2 =    -0.1583263912D+01 EUMP2 =    -0.47231619595788D+03

 The electronic state is 1-A.
 Alpha  occ. eigenvalues --  -11.21625 -11.21594 -11.21592 -11.21581 -11.21426
 Alpha  occ. eigenvalues --  -11.21398 -11.21366 -11.21337 -11.21122 -11.21088
 Alpha  occ. eigenvalues --  -11.21063 -11.20959  -1.08454  -1.08417  -1.03573
 Alpha  occ. eigenvalues --   -1.03495  -0.96007  -0.95955  -0.87018  -0.86976
 Alpha  occ. eigenvalues --   -0.79716  -0.79498  -0.78332  -0.78166  -0.65137
 Alpha  occ. eigenvalues --   -0.65002  -0.61039  -0.60848  -0.59426  -0.59285
 Alpha  occ. eigenvalues --   -0.57702  -0.57494  -0.55284  -0.55239  -0.52693
 Alpha  occ. eigenvalues --   -0.52658  -0.52429  -0.52381  -0.49960  -0.49899
 Alpha  occ. eigenvalues --   -0.48159  -0.47724  -0.46780  -0.46522  -0.45981
 Alpha  occ. eigenvalues --   -0.45743  -0.45735  -0.45363  -0.43790  -0.43779
 Alpha virt. eigenvalues --    0.21062   0.23185   0.23477   0.24919   0.26019
 Alpha virt. eigenvalues --    0.26480   0.26960   0.27526   0.27958   0.29112
 Alpha virt. eigenvalues --    0.30491   0.30845   0.31620   0.31810   0.32167

 Mulliken charges:
               1
     1  C   -0.298177
     2  C   -0.299656
     3  C   -0.475712
     4  H    0.149937
     5  H    0.149699
     6  H    0.151806
     7  H    0.151667
     8  H    0.155291
     9  H    0.155275
    10  H    0.160241
    11  C   -0.301298
    12  C   -0.299335
    13  C   -0.483591
    14  H    0.149266
    15  H    0.151674
    16  H    0.151760
    17  H    0.151522
    18  H    0.165750
    19  H    0.154584
    20  H    0.159498
    21  C   -0.298482
    22  C   -0.299664
    23  C   -0.475693
    24  H    0.149849
    25  H    0.150001
    26  H    0.151874
    27  H    0.151896
    28  H    0.155167
    29  H    0.155206
    30  H    0.160205
    31  C   -0.297370
    32  C   -0.306984
    33  C   -0.477194
    34  H    0.149414
    35  H    0.149422
    36  H    0.152945
    37  H    0.157972
    38  H    0.155016
    39  H    0.155925
    40  H    0.160293
 Sum of Mulliken charges =  -0.00000

 Dipole moment (field-independent basis, Debye):
    X=              0.0169    Y=             -0.0015    Z=              0.0038  Tot=              0.0174
 Quadrupole moment (field-independent basis, Debye-Ang):
   XX=            -85.2339   YY=            -84.7726   ZZ=            -84.8369
   XY=             -0.4307   XZ=              0.6339   YZ=              0.0474

 Normal termination of Gaussian 16 at Thu May  6 02:12:34 2021.
