 Gaussian 16, Revision A.03,
 Gaussian 16:  EM64L-G16RevA.03 25-Dec-2016

 -------------
 #p 6-31g* mp2
 -------------

 ------------------------------------------------------
 Input file generated by CHIRIPA (05-May-2021 14:51:07)
 ------------------------------------------------------
 Symbolic Z-matrix:
 Charge =  0 Multiplicity = 1

                         Standard orientation:
 ---------------------------------------------------------------------
 Center     Atomic      Atomic             Coordinates (Angstroms)
 Number     Number       Type             X           Y           Z
 ---------------------------------------------------------------------
      1          6           0        3.680046    0.781262   -0.380362
      2          6           0        4.503821    1.746194    0.473034
      3          6           0        4.588728    3.147068   -0.133709
      4          1           0        4.121678    0.721332   -1.384511
      5          1           0        2.667516    1.188549   -0.508016
      6          1           0        5.514083    1.336539    0.600196
      7          1           0        4.060288    1.803688    1.475326
      8          1           0        3.589282    3.579829   -0.245182
      9          1           0        5.051337    3.110027   -1.125285
     10          1           0        5.182117    3.820527    0.492551
     11          6           0        3.585968   -0.623262    0.213094
     12          6           0        2.762193   -1.588194   -0.640303
     13          6           0        2.677287   -2.989067   -0.033559
     14          1           0        4.598498   -1.030548    0.340748
     15          1           0        3.144336   -0.563331    1.217242
     16          1           0        3.205726   -1.645687   -1.642595
     17          1           0        1.751931   -1.178538   -0.767464
     18          1           0        2.214678   -2.952026    0.958016
     19          1           0        3.676733   -3.421829    0.077914
     20          1           0        2.083898   -3.662526   -0.659820
     21          6           0       -2.965890   -0.188982    0.439008
     22          6           0       -2.136243   -1.322066   -0.165800
     23          6           0       -0.804452   -1.529910    0.555955
     24          1           0       -2.381820    0.741016    0.408859
     25          1           0       -3.152685   -0.406519    1.499753
     26          1           0       -1.952243   -1.103130   -1.225435
     27          1           0       -2.722429   -2.249436   -0.134382
     28          1           0       -0.971497   -1.772959    1.610291
     29          1           0       -0.196935   -0.620141    0.513038
     30          1           0       -0.227528   -2.344591    0.107276
     31          6           0       -4.300124    0.030981   -0.271739
     32          6           0       -5.129772    1.164065    0.333068
     33          6           0       -6.461562    1.371910   -0.388686
     34          1           0       -4.113330    0.248518   -1.332485
     35          1           0       -4.884195   -0.899017   -0.241590
     36          1           0       -4.543586    2.091435    0.301650
     37          1           0       -5.313772    0.945130    1.392703
     38          1           0       -7.069080    0.462140   -0.345769
     39          1           0       -6.294518    1.614959   -1.443023
     40          1           0       -7.038487    2.186591    0.059993
 ---------------------------------------------------------------------

 SCF Done:  E(RHF) =  -470.731931823     A.U. after   11 cycles
 E2 =    -0.1583678682D+01 EUMP2 =    -0.47231561050539D+03

 The electronic state is 1-A.
 Alpha  occ. eigenvalues --  -11.21633 -11.21621 -11.21582 -11.21432 -11.21425
 Alpha  occ. eigenvalues --  -11.21372 -11.21365 -11.21288 -11.21086 -11.21063
 Alpha  occ. eigenvalues --  -11.21062 -11.21001  -1.08465  -1.08371  -1.03605
 Alpha  occ. eigenvalues --   -1.03437  -0.96074  -0.95884  -0.87048  -0.86946
 Alpha  occ. eigenvalues --   -0.79661  -0.79516  -0.78277  -0.78184  -0.65163
 Alpha  occ. eigenvalues --   -0.64971  -0.61172  -0.60797  -0.59470  -0.59170
 Alpha  occ. eigenvalues --   -0.57697  -0.57466  -0.55351  -0.55210  -0.52703
 Alpha  occ. eigenvalues --   -0.52555  -0.52448  -0.52328  -0.50107  -0.49764
 Alpha  occ. eigenvalues --   -0.47953  -0.47832  -0.46811  -0.46420  -0.45842
 Alpha  occ. eigenvalues --   -0.45760  -0.45706  -0.45537  -0.43771  -0.43732
 Alpha virt. eigenvalues --    0.21330   0.23035   0.23669   0.24876   0.25857
 Alpha virt. eigenvalues --    0.26670   0.27032   0.27473   0.27743   0.29331
 Alpha virt. eigenvalues --    0.30553   0.31457   0.31696   0.32066   0.32156

 Mulliken charges:
               1
     1  C   -0.298181
     2  C   -0.299608
     3  C   -0.475644
     4  H    0.149681
     5  H    0.148330
     6  H    0.152021
     7  H    0.151940
     8  H    0.154895
     9  H    0.155144
    10  H    0.160219
    11  C   -0.298589
    12  C   -0.304888
    13  C   -0.478808
    14  H    0.149232
    15  H    0.149892
    16  H    0.150727
    17  H    0.160025
    18  H    0.157688
    19  H    0.155621
    20  H    0.158360
    21  C   -0.298649
    22  C   -0.300665
    23  C   -0.482238
    24  H    0.149447
    25  H    0.149615
    26  H    0.152106
    27  H    0.152303
    28  H    0.154914
    29  H    0.155424
    30  H    0.169406
    31  C   -0.298277
    32  C   -0.299642
    33  C   -0.475719
    34  H    0.149581
    35  H    0.149751
    36  H    0.151889
    37  H    0.151943
    38  H    0.155222
    39  H    0.155226
    40  H    0.160307
 Sum of Mulliken charges =  -0.00000

 Dipole moment (field-independent basis, Debye):
    X=             -0.0354    Y=             -0.0196    Z=              0.0113  Tot=              0.0420
 Quadrupole moment (field-independent basis, Debye-Ang):
   XX=            -85.0569   YY=            -85.4874   ZZ=            -84.4270
   XY=              0.2332   XZ=             -1.0301   YZ=              0.1124

 Normal termination of Gaussian 16 at Wed May  5 18:04:31 2021.
