 Gaussian 16, Revision A.03,
 Gaussian 16:  EM64L-G16RevA.03 25-Dec-2016

 -------------
 #p 6-31g* mp2
 -------------

 ------------------------------------------------------
 Input file generated by CHIRIPA (05-May-2021 14:55:24)
 ------------------------------------------------------
 Symbolic Z-matrix:
 Charge =  0 Multiplicity = 1

                         Standard orientation:
 ---------------------------------------------------------------------
 Center     Atomic      Atomic             Coordinates (Angstroms)
 Number     Number       Type             X           Y           Z
 ---------------------------------------------------------------------
      1          6           0       -5.978869    0.797412    0.219468
      2          6           0       -5.616654   -0.553453    0.197491
      3          6           0       -4.277827   -0.927214    0.047847
      4          6           0       -3.322913    0.080582   -0.077759
      5          6           0       -3.652303    1.435006   -0.059639
      6          6           0       -4.997268    1.785588    0.091059
      7          1           0       -7.021286    1.078756    0.336125
      8          1           0       -6.376844   -1.323034    0.296999
      9          1           0       -3.969624   -1.965489    0.027501
     10          1           0       -2.872016    2.179502   -0.161105
     11          1           0       -5.275656    2.835477    0.107778
     12          7           0       -1.902308   -0.302833   -0.236739
     13          8           0       -1.080018    0.604168   -0.345480
     14          8           0       -1.638028   -1.503095   -0.249595
     15          6           0        3.980630   -0.538805   -0.294474
     16          6           0        2.905695   -1.072611    0.652919
     17          6           0        1.767284   -1.779772   -0.083107
     18          1           0        3.518109    0.154706   -1.010058
     19          1           0        4.386186   -1.372319   -0.884536
     20          1           0        2.503260   -0.238555    1.241998
     21          1           0        3.370862   -1.764785    1.366451
     22          1           0        2.149308   -2.629989   -0.657382
     23          1           0        1.276775   -1.095088   -0.782542
     24          1           0        1.010040   -2.153459    0.613169
     25          6           0        5.125408    0.170745    0.426461
     26          6           0        6.200343    0.704551   -0.520932
     27          6           0        7.338756    1.411713    0.215094
     28          1           0        4.719852    1.004260    1.016523
     29          1           0        5.587929   -0.522766    1.142045
     30          1           0        5.735176    1.396726   -1.234465
     31          1           0        6.602779   -0.129504   -1.110011
     32          1           0        7.829263    0.727028    0.914529
     33          1           0        6.956730    2.261929    0.789369
     34          1           0        8.095998    1.785399   -0.481182
 ---------------------------------------------------------------------

 SCF Done:  E(RHF) =  -669.535780469     A.U. after   15 cycles
 E2 =    -0.2091946382D+01 EUMP2 =    -0.67162772685140D+03

 The electronic state is 1-A.
 Alpha  occ. eigenvalues --  -20.61040 -20.61022 -15.86049 -11.31353 -11.27910
 Alpha  occ. eigenvalues --  -11.27906 -11.27641 -11.26909 -11.26900 -11.20772
 Alpha  occ. eigenvalues --  -11.20404 -11.20345 -11.20034 -11.19871 -11.18623
 Alpha  occ. eigenvalues --   -1.60081  -1.39639  -1.19515  -1.08924  -1.07208
 Alpha  occ. eigenvalues --   -1.04907  -1.02169  -0.95776  -0.94575  -0.86309
 Alpha  occ. eigenvalues --   -0.85592  -0.82602  -0.78309  -0.77661  -0.76942
 Alpha  occ. eigenvalues --   -0.72260  -0.71393  -0.70623  -0.65170  -0.64912
 Alpha  occ. eigenvalues --   -0.63852  -0.62254  -0.59575  -0.58092  -0.56183
 Alpha  occ. eigenvalues --   -0.55423  -0.53896  -0.53240  -0.52998  -0.51318
 Alpha  occ. eigenvalues --   -0.51028  -0.49247  -0.48992  -0.48214  -0.46584
 Alpha  occ. eigenvalues --   -0.45339  -0.45056  -0.44473  -0.44329  -0.42371
 Alpha  occ. eigenvalues --   -0.37492  -0.36506
 Alpha virt. eigenvalues --    0.04856   0.11149   0.16360   0.21289   0.23977
 Alpha virt. eigenvalues --    0.25780   0.27209   0.27805   0.28178   0.28625
 Alpha virt. eigenvalues --    0.29567   0.30878   0.32372   0.32730   0.32838

 Mulliken charges:
               1
     1  C   -0.170479
     2  C   -0.218570
     3  C   -0.170814
     4  C    0.159192
     5  C   -0.170689
     6  C   -0.218574
     7  H    0.226203
     8  H    0.224052
     9  H    0.276004
    10  H    0.275795
    11  H    0.223999
    12  N    0.488212
    13  O   -0.459784
    14  O   -0.456288
    15  C   -0.297554
    16  C   -0.300221
    17  C   -0.472486
    18  H    0.151222
    19  H    0.145632
    20  H    0.151277
    21  H    0.142756
    22  H    0.140265
    23  H    0.173455
    24  H    0.166208
    25  C   -0.297028
    26  C   -0.298678
    27  C   -0.474939
    28  H    0.148088
    29  H    0.146812
    30  H    0.151203
    31  H    0.150400
    32  H    0.153815
    33  H    0.153945
    34  H    0.157566
 Sum of Mulliken charges =  -0.00000

 Dipole moment (field-independent basis, Debye):
    X=             -5.5488    Y=              1.3947    Z=              0.5067  Tot=              5.7438
 Quadrupole moment (field-independent basis, Debye-Ang):
   XX=            -64.0253   YY=            -89.6752   ZZ=            -96.0542
   XY=             -4.2680   XZ=             -2.0605   YZ=             -0.5584

 Normal termination of Gaussian 16 at Thu May  6 01:35:15 2021.
