 Gaussian 16, Revision A.03,
 Gaussian 16:  EM64L-G16RevA.03 25-Dec-2016

 -------------
 #p 6-31g* mp2
 -------------

 ------------------------------------------------------
 Input file generated by CHIRIPA (05-May-2021 14:53:12)
 ------------------------------------------------------
 Symbolic Z-matrix:
 Charge =  0 Multiplicity = 1

                         Standard orientation:
 ---------------------------------------------------------------------
 Center     Atomic      Atomic             Coordinates (Angstroms)
 Number     Number       Type             X           Y           Z
 ---------------------------------------------------------------------
      1          6           0        2.165354    1.232849    0.262086
      2          6           0        3.027633    0.264279   -0.548057
      3          6           0        4.189202   -0.312342    0.261919
      4          1           0        2.796164    2.051362    0.634994
      5          1           0        1.773732    0.712046    1.146842
      6          1           0        3.416386    0.786363   -1.431751
      7          1           0        2.394660   -0.551922   -0.919239
      8          1           0        3.816712   -0.857366    1.135304
      9          1           0        4.844244    0.488523    0.619880
     10          1           0        4.792516   -1.002113   -0.336486
     11          6           0        1.000031    1.817655   -0.534000
     12          6           0        0.137751    2.786224    0.276143
     13          6           0       -1.023818    3.362846   -0.533832
     14          1           0        1.391653    2.338457   -1.418755
     15          1           0        0.369221    0.999142   -0.906907
     16          1           0        0.770725    3.602425    0.647326
     17          1           0       -0.251002    2.264140    1.159838
     18          1           0       -1.678859    2.561980   -0.891793
     19          1           0       -0.651328    3.907869   -1.407217
     20          1           0       -1.627131    4.052617    0.064573
     21          6           0        0.795120   -2.676644   -0.075958
     22          6           0        0.542879   -1.977805    1.109166
     23          6           0       -0.579714   -1.152123    1.221349
     24          6           0       -1.432886   -1.048034    0.123828
     25          6           0       -1.208693   -1.731470   -1.070301
     26          6           0       -0.079928   -2.551467   -1.159997
     27          1           0        1.669573   -3.315846   -0.154369
     28          1           0        1.220727   -2.073111    1.952662
     29          1           0       -0.798919   -0.599779    2.127044
     30          1           0       -1.902590   -1.616361   -1.894117
     31          1           0        0.113456   -3.093008   -2.081616
     32          7           0       -2.624591   -0.176932    0.230688
     33          8           0       -3.360884   -0.102202   -0.750599
     34          8           0       -2.799791    0.414615    1.293710
 ---------------------------------------------------------------------

 SCF Done:  E(RHF) =  -669.533006396     A.U. after   15 cycles
 E2 =    -0.2099945627D+01 EUMP2 =    -0.67163295202327D+03

 The electronic state is 1-A.
 Alpha  occ. eigenvalues --  -20.61038 -20.61032 -15.86048 -11.31389 -11.27975
 Alpha  occ. eigenvalues --  -11.27971 -11.27697 -11.26985 -11.26967 -11.21720
 Alpha  occ. eigenvalues --  -11.21599 -11.21386 -11.21169 -11.21110 -11.20351
 Alpha  occ. eigenvalues --   -1.60092  -1.39645  -1.19618  -1.09010  -1.08353
 Alpha  occ. eigenvalues --   -1.05002  -1.03428  -0.95927  -0.95788  -0.86901
 Alpha  occ. eigenvalues --   -0.86393  -0.82664  -0.79519  -0.78168  -0.77671
 Alpha  occ. eigenvalues --   -0.72274  -0.71462  -0.70699  -0.65251  -0.65149
 Alpha  occ. eigenvalues --   -0.64950  -0.62331  -0.60857  -0.59322  -0.57466
 Alpha  occ. eigenvalues --   -0.55483  -0.55315  -0.53207  -0.53078  -0.52551
 Alpha  occ. eigenvalues --   -0.52299  -0.49913  -0.49043  -0.49024  -0.47815
 Alpha  occ. eigenvalues --   -0.46611  -0.45724  -0.45552  -0.44906  -0.43650
 Alpha  occ. eigenvalues --   -0.37424  -0.36510
 Alpha virt. eigenvalues --    0.04763   0.10856   0.16153   0.20093   0.23277
 Alpha virt. eigenvalues --    0.23947   0.25457   0.27073   0.27289   0.28776
 Alpha virt. eigenvalues --    0.29125   0.29689   0.31240   0.31877   0.32394

 Mulliken charges:
               1
     1  C   -0.295293
     2  C   -0.305210
     3  C   -0.475537
     4  H    0.149427
     5  H    0.142697
     6  H    0.152340
     7  H    0.155961
     8  H    0.144623
     9  H    0.158944
    10  H    0.157218
    11  C   -0.302948
    12  C   -0.305811
    13  C   -0.475721
    14  H    0.148941
    15  H    0.151007
    16  H    0.149642
    17  H    0.155782
    18  H    0.162262
    19  H    0.150492
    20  H    0.164631
    21  C   -0.173585
    22  C   -0.213526
    23  C   -0.170320
    24  C    0.159392
    25  C   -0.172935
    26  C   -0.216508
    27  H    0.228512
    28  H    0.225618
    29  H    0.276688
    30  H    0.276787
    31  H    0.225142
    32  N    0.488315
    33  O   -0.458873
    34  O   -0.458156
 Sum of Mulliken charges =  -0.00000

 Dipole moment (field-independent basis, Debye):
    X=              3.9323    Y=             -3.1751    Z=             -0.3760  Tot=              5.0681
 Quadrupole moment (field-independent basis, Debye-Ang):
   XX=           -107.9922   YY=            -88.1461   ZZ=            -90.7347
   XY=              1.0034   XZ=              1.7949   YZ=              1.4419

 Normal termination of Gaussian 16 at Thu May  6 17:00:33 2021.
