 Gaussian 16, Revision A.03,
 Gaussian 16:  EM64L-G16RevA.03 25-Dec-2016

 -------------
 #p 6-31g* mp2
 -------------

 ------------------------------------------------------
 Input file generated by CHIRIPA (05-May-2021 14:51:08)
 ------------------------------------------------------
 Symbolic Z-matrix:
 Charge =  0 Multiplicity = 1

                         Standard orientation:
 ---------------------------------------------------------------------
 Center     Atomic      Atomic             Coordinates (Angstroms)
 Number     Number       Type             X           Y           Z
 ---------------------------------------------------------------------
      1          6           0       -4.233075    0.176529    0.233555
      2          6           0       -4.494978    1.234704   -0.838666
      3          6           0       -5.943263    1.724841   -0.844205
      4          1           0       -4.909047   -0.674432    0.072705
      5          1           0       -4.483942    0.593087    1.218918
      6          1           0       -4.242379    0.816736   -1.821577
      7          1           0       -3.818172    2.083161   -0.675359
      8          1           0       -6.204074    2.166856    0.122853
      9          1           0       -6.630691    0.893234   -1.029877
     10          1           0       -6.108319    2.480747   -1.618300
     11          6           0       -2.789621   -0.323312    0.251603
     12          6           0       -2.527718   -1.381487    1.323825
     13          6           0       -1.079433   -1.871624    1.329363
     14          1           0       -2.538753   -0.739870   -0.733760
     15          1           0       -2.113649    0.527649    0.412453
     16          1           0       -3.204524   -2.229945    1.160517
     17          1           0       -2.780317   -0.963519    2.306735
     18          1           0       -0.392004   -1.040018    1.515035
     19          1           0       -0.818622   -2.313639    0.362305
     20          1           0       -0.914376   -2.627530    2.103458
     21          6           0        3.154663   -0.581733   -0.078204
     22          6           0        3.066639   -1.539108   -1.267182
     23          6           0        2.350395   -2.845280   -0.922649
     24          1           0        3.677702   -1.081303    0.748722
     25          1           0        2.140210   -0.360833    0.281638
     26          1           0        4.080886   -1.757046   -1.625546
     27          1           0        2.543918   -1.037134   -2.091439
     28          1           0        1.327864   -2.646630   -0.585646
     29          1           0        2.873565   -3.370632   -0.117106
     30          1           0        2.298732   -3.514855   -1.786860
     31          6           0        3.868033    0.728516   -0.406955
     32          6           0        3.956056    1.685892    0.782024
     33          6           0        4.672300    2.992063    0.437490
     34          1           0        4.882485    0.507616   -0.766796
     35          1           0        3.344994    1.228086   -1.233879
     36          1           0        4.478778    1.183917    1.606282
     37          1           0        2.941810    1.903829    1.140388
     38          1           0        4.149131    3.517416   -0.368052
     39          1           0        5.694831    2.793413    0.100489
     40          1           0        4.723964    3.661639    1.301702
 ---------------------------------------------------------------------

 SCF Done:  E(RHF) =  -470.733150348     A.U. after   11 cycles
 E2 =    -0.1582824269D+01 EUMP2 =    -0.47231597461728D+03

 The electronic state is 1-A.
 Alpha  occ. eigenvalues --  -11.21645 -11.21633 -11.21585 -11.21532 -11.21449
 Alpha  occ. eigenvalues --  -11.21388 -11.21358 -11.21293 -11.21125 -11.21095
 Alpha  occ. eigenvalues --  -11.21059 -11.20942  -1.08473  -1.08381  -1.03577
 Alpha  occ. eigenvalues --   -1.03474  -0.96034  -0.95919  -0.87062  -0.86927
 Alpha  occ. eigenvalues --   -0.79679  -0.79507  -0.78298  -0.78180  -0.65104
 Alpha  occ. eigenvalues --   -0.65016  -0.61010  -0.60857  -0.59388  -0.59297
 Alpha  occ. eigenvalues --   -0.57672  -0.57512  -0.55452  -0.55100  -0.52725
 Alpha  occ. eigenvalues --   -0.52622  -0.52531  -0.52283  -0.50116  -0.49712
 Alpha  occ. eigenvalues --   -0.48097  -0.47747  -0.46698  -0.46511  -0.45908
 Alpha  occ. eigenvalues --   -0.45745  -0.45709  -0.45534  -0.43824  -0.43735
 Alpha virt. eigenvalues --    0.21576   0.23030   0.23625   0.24686   0.25651
 Alpha virt. eigenvalues --    0.26074   0.27149   0.27582   0.27724   0.29263
 Alpha virt. eigenvalues --    0.30192   0.31163   0.31808   0.31932   0.32006

 Mulliken charges:
               1
     1  C   -0.298291
     2  C   -0.299690
     3  C   -0.475735
     4  H    0.149848
     5  H    0.149672
     6  H    0.151958
     7  H    0.151861
     8  H    0.155249
     9  H    0.155270
    10  H    0.160336
    11  C   -0.298346
    12  C   -0.299799
    13  C   -0.481399
    14  H    0.149417
    15  H    0.149156
    16  H    0.152300
    17  H    0.152144
    18  H    0.157148
    19  H    0.158509
    20  H    0.161475
    21  C   -0.301062
    22  C   -0.298965
    23  C   -0.483090
    24  H    0.149543
    25  H    0.152483
    26  H    0.151527
    27  H    0.151397
    28  H    0.163652
    29  H    0.154915
    30  H    0.159161
    31  C   -0.298235
    32  C   -0.299455
    33  C   -0.475668
    34  H    0.149488
    35  H    0.149529
    36  H    0.151972
    37  H    0.151279
    38  H    0.155125
    39  H    0.155230
    40  H    0.160092
 Sum of Mulliken charges =  -0.00000

 Dipole moment (field-independent basis, Debye):
    X=             -0.0439    Y=             -0.0111    Z=              0.0229  Tot=              0.0507
 Quadrupole moment (field-independent basis, Debye-Ang):
   XX=            -85.2446   YY=            -85.2850   ZZ=            -84.3081
   XY=             -0.1710   XZ=              0.3681   YZ=              0.4665

 Normal termination of Gaussian 16 at Thu May  6 11:32:52 2021.
