 Gaussian 16, Revision A.03,
 Gaussian 16:  EM64L-G16RevA.03 25-Dec-2016

 -------------
 #p 6-31g* mp2
 -------------

 ------------------------------------------------------
 Input file generated by CHIRIPA (05-May-2021 14:57:23)
 ------------------------------------------------------
 Symbolic Z-matrix:
 Charge =  0 Multiplicity = 1

                         Standard orientation:
 ---------------------------------------------------------------------
 Center     Atomic      Atomic             Coordinates (Angstroms)
 Number     Number       Type             X           Y           Z
 ---------------------------------------------------------------------
      1          6           0        6.194745    0.005387   -0.031688
      2          6           0        5.401394    1.142672   -0.215256
      3          6           0        4.008755    1.034901   -0.274342
      4          6           0        3.440250   -0.231399   -0.145598
      5          6           0        4.203698   -1.383200    0.038227
      6          6           0        5.594424   -1.251703    0.094246
      7          1           0        7.275838    0.098322    0.013020
      8          1           0        5.864873    2.120224   -0.313361
      9          1           0        3.370756    1.898853   -0.415632
     10          1           0        3.712822   -2.344193    0.132834
     11          1           0        6.208055   -2.136663    0.236894
     12          7           0        1.966938   -0.358050   -0.206526
     13          8           0        1.490447   -1.485042   -0.090410
     14          8           0        1.316545    0.672071   -0.369244
     15          6           0       -1.735652    1.575808    0.977869
     16          6           0       -2.287280    1.844524   -0.279119
     17          6           0       -3.366428    1.094457   -0.755972
     18          6           0       -3.871339    0.078534    0.054126
     19          6           0       -3.343525   -0.213371    1.310904
     20          6           0       -2.264602    0.549527    1.767476
     21          1           0       -0.897432    2.163463    1.340423
     22          1           0       -1.878534    2.640938   -0.894503
     23          1           0       -3.812705    1.281153   -1.725199
     24          1           0       -3.772517   -1.013695    1.901553
     25          1           0       -1.838216    0.338604    2.744078
     26          7           0       -5.013665   -0.722320   -0.439962
     27          8           0       -5.440312   -1.611929    0.292980
     28          8           0       -5.460743   -0.445256   -1.550816
 ---------------------------------------------------------------------

 SCF Done:  E(RHF) =  -868.338484284     A.U. after   16 cycles
 E2 =    -0.2599369278D+01 EUMP2 =    -0.87093785356217D+03

 The electronic state is 1-A.
 Alpha  occ. eigenvalues --  -20.61530 -20.61469 -20.59671 -20.59666 -15.86546
 Alpha  occ. eigenvalues --  -15.84720 -11.31789 -11.29801 -11.28370 -11.28313
 Alpha  occ. eigenvalues --  -11.28041 -11.27332 -11.27297 -11.26409 -11.26386
 Alpha  occ. eigenvalues --  -11.26036 -11.25325 -11.25284  -1.60567  -1.58752
 Alpha  occ. eigenvalues --   -1.40130  -1.38315  -1.19946  -1.17957  -1.09359
 Alpha  occ. eigenvalues --   -1.07384  -1.05330  -1.03352  -0.96217  -0.94275
 Alpha  occ. eigenvalues --   -0.86732  -0.84764  -0.83057  -0.81143  -0.78123
 Alpha  occ. eigenvalues --   -0.76238  -0.72780  -0.71892  -0.71048  -0.70952
 Alpha  occ. eigenvalues --   -0.70069  -0.69064  -0.65600  -0.65325  -0.63629
 Alpha  occ. eigenvalues --   -0.63387  -0.62681  -0.60746  -0.55823  -0.53840
 Alpha  occ. eigenvalues --   -0.53660  -0.53417  -0.51668  -0.51479  -0.49515
 Alpha  occ. eigenvalues --   -0.49467  -0.47716  -0.47682  -0.45562  -0.43787
 Alpha  occ. eigenvalues --   -0.37914  -0.36929  -0.35790  -0.34936
 Alpha virt. eigenvalues --    0.04381   0.06349   0.10728   0.12733   0.15900
 Alpha virt. eigenvalues --    0.17943   0.20891   0.22715   0.26803   0.27747
 Alpha virt. eigenvalues --    0.28547   0.29579   0.30508   0.31908   0.32328

 Mulliken charges:
               1
     1  C   -0.170280
     2  C   -0.218277
     3  C   -0.171432
     4  C    0.157894
     5  C   -0.170637
     6  C   -0.218367
     7  H    0.227532
     8  H    0.224341
     9  H    0.272085
    10  H    0.277251
    11  H    0.225629
    12  N    0.488971
    13  O   -0.454705
    14  O   -0.468245
    15  C   -0.148915
    16  C   -0.212456
    17  C   -0.171792
    18  C    0.157458
    19  C   -0.169659
    20  C   -0.218099
    21  H    0.223091
    22  H    0.219213
    23  H    0.270824
    24  H    0.271110
    25  H    0.217604
    26  N    0.488482
    27  O   -0.464231
    28  O   -0.464391
 Sum of Mulliken charges =  -0.00000

 Dipole moment (field-independent basis, Debye):
    X=              9.7290    Y=              3.2301    Z=              1.9544  Tot=             10.4358
 Quadrupole moment (field-independent basis, Debye-Ang):
   XX=           -102.3866   YY=            -98.7585   ZZ=           -102.3946
   XY=            -11.1017   XZ=             -6.4337   YZ=             -3.1459

 Normal termination of Gaussian 16 at Fri May  7 11:01:25 2021.
