 Gaussian 16, Revision A.03,
 Gaussian 16:  EM64L-G16RevA.03 25-Dec-2016

 -------------
 #p 6-31g* mp2
 -------------

 ------------------------------------------------------
 Input file generated by CHIRIPA (05-May-2021 14:53:11)
 ------------------------------------------------------
 Symbolic Z-matrix:
 Charge =  0 Multiplicity = 1

                         Standard orientation:
 ---------------------------------------------------------------------
 Center     Atomic      Atomic             Coordinates (Angstroms)
 Number     Number       Type             X           Y           Z
 ---------------------------------------------------------------------
      1          6           0       -3.955325   -0.409053    0.004621
      2          6           0       -5.329746   -1.054840   -0.174019
      3          6           0       -5.260810   -2.580412   -0.249324
      4          1           0       -3.305823   -0.707434   -0.829681
      5          1           0       -3.489576   -0.801564    0.919174
      6          1           0       -5.793345   -0.660193   -1.087225
      7          1           0       -5.976112   -0.754733    0.660705
      8          1           0       -4.821974   -2.991834    0.665420
      9          1           0       -4.638170   -2.896757   -1.092441
     10          1           0       -6.254341   -3.021365   -0.377058
     11          6           0       -4.007812    1.115757    0.081605
     12          6           0       -2.633391    1.761543    0.260245
     13          6           0       -2.702327    3.287116    0.335549
     14          1           0       -4.473561    1.508268   -0.832949
     15          1           0       -4.657314    1.414138    0.915907
     16          1           0       -1.987026    1.461436   -0.574479
     17          1           0       -2.169792    1.366897    1.173451
     18          1           0       -3.324967    3.603460    1.178667
     19          1           0       -3.141163    3.698537   -0.579195
     20          1           0       -1.708796    3.728069    0.463284
     21          6           0        0.633874   -0.757376   -0.024593
     22          6           0        1.101515    0.498092   -0.426627
     23          6           0        2.471657    0.775902   -0.435622
     24          6           0        3.350041   -0.229524   -0.034560
     25          6           0        2.915005   -1.490196    0.371320
     26          6           0        1.540514   -1.745771    0.372397
     27          1           0       -0.432174   -0.964550   -0.020681
     28          1           0        0.399712    1.267604   -0.735447
     29          1           0        2.860943    1.739181   -0.742165
     30          1           0        3.638887   -2.237145    0.673779
     31          1           0        1.180195   -2.721692    0.685114
     32          7           0        4.802851    0.052812   -0.039892
     33          8           0        5.556203   -0.849972    0.317994
     34          8           0        5.160705    1.171544   -0.401855
 ---------------------------------------------------------------------

 SCF Done:  E(RHF) =  -669.535558832     A.U. after   15 cycles
 E2 =    -0.2091956647D+01 EUMP2 =    -0.67162751547918D+03

 The electronic state is 1-A.
 Alpha  occ. eigenvalues --  -20.60689 -20.60684 -15.85741 -11.31082 -11.27653
 Alpha  occ. eigenvalues --  -11.27641 -11.27338 -11.26654 -11.26606 -11.22881
 Alpha  occ. eigenvalues --  -11.22570 -11.22488 -11.22438 -11.22076 -11.21888
 Alpha  occ. eigenvalues --   -1.59765  -1.39320  -1.19248  -1.09526  -1.08640
 Alpha  occ. eigenvalues --   -1.04660  -1.04548  -0.96978  -0.95482  -0.87992
 Alpha  occ. eigenvalues --   -0.86051  -0.82318  -0.80654  -0.79380  -0.77372
 Alpha  occ. eigenvalues --   -0.71960  -0.71089  -0.70337  -0.66157  -0.64896
 Alpha  occ. eigenvalues --   -0.64670  -0.62109  -0.61853  -0.60340  -0.58608
 Alpha  occ. eigenvalues --   -0.56248  -0.55125  -0.53653  -0.53401  -0.52980
 Alpha  occ. eigenvalues --   -0.52752  -0.50906  -0.48954  -0.48717  -0.48700
 Alpha  occ. eigenvalues --   -0.47666  -0.46875  -0.46800  -0.44822  -0.44731
 Alpha  occ. eigenvalues --   -0.37216  -0.36257
 Alpha virt. eigenvalues --    0.05155   0.11368   0.16641   0.19419   0.22351
 Alpha virt. eigenvalues --    0.22990   0.24789   0.25201   0.26099   0.28159
 Alpha virt. eigenvalues --    0.29513   0.30572   0.30681   0.31220   0.31700

 Mulliken charges:
               1
     1  C   -0.302597
     2  C   -0.300016
     3  C   -0.476759
     4  H    0.145915
     5  H    0.148047
     6  H    0.154858
     7  H    0.155141
     8  H    0.154784
     9  H    0.154796
    10  H    0.164111
    11  C   -0.297425
    12  C   -0.306951
    13  C   -0.476950
    14  H    0.153181
    15  H    0.154451
    16  H    0.143417
    17  H    0.154796
    18  H    0.160459
    19  H    0.158382
    20  H    0.160855
    21  C   -0.176573
    22  C   -0.223470
    23  C   -0.171626
    24  C    0.158526
    25  C   -0.171120
    26  C   -0.219492
    27  H    0.231862
    28  H    0.229465
    29  H    0.275230
    30  H    0.275099
    31  H    0.223134
    32  N    0.487989
    33  O   -0.460768
    34  O   -0.460753
 Sum of Mulliken charges =  -0.00000

 Dipole moment (field-independent basis, Debye):
    X=             -5.4582    Y=             -0.9175    Z=              0.0649  Tot=              5.5352
 Quadrupole moment (field-independent basis, Debye-Ang):
   XX=           -128.3234   YY=            -90.8977   ZZ=            -93.9609
   XY=             -3.4569   XZ=              0.3677   YZ=             -1.7939

 Normal termination of Gaussian 16 at Wed May  5 23:18:10 2021.
