 Gaussian 16, Revision A.03,
 Gaussian 16:  EM64L-G16RevA.03 25-Dec-2016

 -------------
 #p 6-31g* mp2
 -------------

 ------------------------------------------------------
 Input file generated by CHIRIPA (05-May-2021 14:55:22)
 ------------------------------------------------------
 Symbolic Z-matrix:
 Charge =  0 Multiplicity = 1

                         Standard orientation:
 ---------------------------------------------------------------------
 Center     Atomic      Atomic             Coordinates (Angstroms)
 Number     Number       Type             X           Y           Z
 ---------------------------------------------------------------------
      1          6           0        1.765018    2.321924    0.795448
      2          6           0        2.861704    2.515362   -0.050945
      3          6           0        3.625941    1.427234   -0.482765
      4          6           0        3.263565    0.153689   -0.046813
      5          6           0        2.176557   -0.071394    0.796420
      6          6           0        1.426541    1.031438    1.215689
      7          1           0        1.176864    3.172919    1.126021
      8          1           0        3.126895    3.516442   -0.378905
      9          1           0        4.479942    1.548439   -1.138058
     10          1           0        1.936705   -1.081206    1.106530
     11          1           0        0.575362    0.878219    1.873004
     12          7           0        4.065100   -1.006047   -0.497317
     13          8           0        3.725158   -2.118007   -0.099044
     14          8           0        5.018109   -0.781128   -1.240165
     15          6           0       -4.752048   -0.333129    0.100930
     16          6           0       -5.405392    0.662188   -0.858481
     17          6           0       -6.893416    0.868170   -0.573611
     18          1           0       -5.276511   -1.296101    0.033338
     19          1           0       -4.883084    0.022436    1.132337
     20          1           0       -5.271958    0.305555   -1.887861
     21          1           0       -4.879192    1.622848   -0.788737
     22          1           0       -7.042251    1.246944    0.442745
     23          1           0       -7.437249   -0.077834   -0.662624
     24          1           0       -7.340448    1.583409   -1.271074
     25          6           0       -3.264494   -0.549629   -0.171167
     26          6           0       -2.611150   -1.544946    0.788245
     27          6           0       -1.123126   -1.750927    0.503375
     28          1           0       -3.133459   -0.905192   -1.202573
     29          1           0       -2.740032    0.413344   -0.103574
     30          1           0       -3.137350   -2.505604    0.718501
     31          1           0       -2.744584   -1.188312    1.817626
     32          1           0       -0.579294   -0.804923    0.592388
     33          1           0       -0.974292   -2.129700   -0.512981
     34          1           0       -0.676095   -2.466166    1.200838
 ---------------------------------------------------------------------

 SCF Done:  E(RHF) =  -669.534146730     A.U. after   15 cycles
 E2 =    -0.2092641622D+01 EUMP2 =    -0.67162678835207D+03

 The electronic state is 1-A.
 Alpha  occ. eigenvalues --  -20.60737 -20.60732 -15.85792 -11.31159 -11.27755
 Alpha  occ. eigenvalues --  -11.27712 -11.27509 -11.26764 -11.26742 -11.22085
 Alpha  occ. eigenvalues --  -11.21955 -11.21840 -11.21753 -11.21543 -11.21376
 Alpha  occ. eigenvalues --   -1.59813  -1.39366  -1.19356  -1.08856  -1.08747
 Alpha  occ. eigenvalues --   -1.04781  -1.03948  -0.96415  -0.95575  -0.87439
 Alpha  occ. eigenvalues --   -0.86157  -0.82426  -0.80028  -0.78662  -0.77448
 Alpha  occ. eigenvalues --   -0.72011  -0.71136  -0.70462  -0.65514  -0.65011
 Alpha  occ. eigenvalues --   -0.64774  -0.62222  -0.61278  -0.59771  -0.58009
 Alpha  occ. eigenvalues --   -0.55734  -0.55249  -0.53252  -0.53128  -0.52799
 Alpha  occ. eigenvalues --   -0.52683  -0.50326  -0.48772  -0.48763  -0.48321
 Alpha  occ. eigenvalues --   -0.47050  -0.46201  -0.46126  -0.44769  -0.44206
 Alpha  occ. eigenvalues --   -0.37343  -0.36287
 Alpha virt. eigenvalues --    0.05060   0.11223   0.16398   0.20691   0.22618
 Alpha virt. eigenvalues --    0.23951   0.26142   0.26458   0.27079   0.27962
 Alpha virt. eigenvalues --    0.29042   0.29675   0.31300   0.31578   0.32008

 Mulliken charges:
               1
     1  C   -0.171759
     2  C   -0.218969
     3  C   -0.170701
     4  C    0.156800
     5  C   -0.167333
     6  C   -0.221776
     7  H    0.225431
     8  H    0.223371
     9  H    0.275634
    10  H    0.280530
    11  H    0.224415
    12  N    0.488068
    13  O   -0.460027
    14  O   -0.460712
    15  C   -0.298497
    16  C   -0.299633
    17  C   -0.475875
    18  H    0.151607
    19  H    0.148329
    20  H    0.153424
    21  H    0.150207
    22  H    0.154782
    23  H    0.156372
    24  H    0.160979
    25  C   -0.297766
    26  C   -0.300303
    27  C   -0.485510
    28  H    0.152691
    29  H    0.145535
    30  H    0.155729
    31  H    0.148229
    32  H    0.152604
    33  H    0.163444
    34  H    0.160679
 Sum of Mulliken charges =  -0.00000

 Dipole moment (field-independent basis, Debye):
    X=             -2.8754    Y=              4.0357    Z=              1.5160  Tot=              5.1820
 Quadrupole moment (field-independent basis, Debye-Ang):
   XX=           -112.7851   YY=            -91.3389   ZZ=            -93.8163
   XY=             15.6677   XZ=              3.9587   YZ=             -1.2171

 Normal termination of Gaussian 16 at Thu May  6 15:53:43 2021.
