 Gaussian 16, Revision A.03,
 Gaussian 16:  EM64L-G16RevA.03 25-Dec-2016

 -------------
 #p 6-31g* mp2
 -------------

 ------------------------------------------------------
 Input file generated by CHIRIPA (05-May-2021 14:51:14)
 ------------------------------------------------------
 Symbolic Z-matrix:
 Charge =  0 Multiplicity = 1

                         Standard orientation:
 ---------------------------------------------------------------------
 Center     Atomic      Atomic             Coordinates (Angstroms)
 Number     Number       Type             X           Y           Z
 ---------------------------------------------------------------------
      1          6           0        3.769299    0.755894    0.396122
      2          6           0        4.445645    1.707114   -0.591664
      3          6           0        4.830284    3.043611    0.043650
      4          1           0        2.872489    1.240168    0.806188
      5          1           0        4.444536    0.578724    1.244686
      6          1           0        3.769888    1.881344   -1.438784
      7          1           0        5.340844    1.220445   -0.999570
      8          1           0        5.523809    2.888827    0.876516
      9          1           0        3.943927    3.553482    0.434807
     10          1           0        5.312246    3.708239   -0.680120
     11          6           0        3.378846   -0.584444   -0.224177
     12          6           0        2.702501   -1.535665    0.763609
     13          6           0        2.317862   -2.872161    0.128295
     14          1           0        2.703609   -0.407274   -1.072741
     15          1           0        4.275657   -1.068718   -0.634243
     16          1           0        1.807302   -1.048995    1.171515
     17          1           0        3.378258   -1.709894    1.610728
     18          1           0        3.204219   -3.382032   -0.262862
     19          1           0        1.624336   -2.717377   -0.704571
     20          1           0        1.835900   -3.536789    0.852064
     21          6           0       -4.158296    0.226317    0.294481
     22          6           0       -4.685503    1.508925   -0.349688
     23          6           0       -5.854153    2.121348    0.422964
     24          1           0       -4.976007   -0.503977    0.364930
     25          1           0       -3.844043    0.444033    1.324646
     26          1           0       -4.997382    1.289154   -1.378788
     27          1           0       -3.866395    2.236183   -0.418787
     28          1           0       -5.552284    2.368657    1.445858
     29          1           0       -6.689697    1.416246    0.480402
     30          1           0       -6.215413    3.037273   -0.054982
     31          6           0       -2.989849   -0.397767   -0.466426
     32          6           0       -2.462643   -1.680376    0.177743
     33          6           0       -1.293993   -2.292797   -0.594908
     34          1           0       -3.304103   -0.615483   -1.496590
     35          1           0       -2.172138    0.332527   -0.536875
     36          1           0       -3.281751   -2.407632    0.246842
     37          1           0       -2.150764   -1.460603    1.206844
     38          1           0       -0.458449   -1.587696   -0.652348
     39          1           0       -1.595862   -2.540107   -1.617804
     40          1           0       -0.932733   -3.208723   -0.116964
 ---------------------------------------------------------------------

 SCF Done:  E(RHF) =  -470.732378704     A.U. after   11 cycles
 E2 =    -0.1583069281D+01 EUMP2 =    -0.47231544798517D+03

 The electronic state is 1-A.
 Alpha  occ. eigenvalues --  -11.21621 -11.21610 -11.21605 -11.21569 -11.21427
 Alpha  occ. eigenvalues --  -11.21405 -11.21368 -11.21345 -11.21086 -11.21077
 Alpha  occ. eigenvalues --  -11.21047 -11.20909  -1.08456  -1.08415  -1.03582
 Alpha  occ. eigenvalues --   -1.03471  -0.96072  -0.95879  -0.87117  -0.86872
 Alpha  occ. eigenvalues --   -0.79680  -0.79506  -0.78271  -0.78228  -0.65157
 Alpha  occ. eigenvalues --   -0.64996  -0.61172  -0.60721  -0.59435  -0.59253
 Alpha  occ. eigenvalues --   -0.57647  -0.57517  -0.55560  -0.54999  -0.52812
 Alpha  occ. eigenvalues --   -0.52570  -0.52434  -0.52294  -0.50104  -0.49680
 Alpha  occ. eigenvalues --   -0.48001  -0.47804  -0.46714  -0.46516  -0.45840
 Alpha  occ. eigenvalues --   -0.45752  -0.45731  -0.45658  -0.43839  -0.43693
 Alpha virt. eigenvalues --    0.21056   0.23096   0.23649   0.25073   0.26188
 Alpha virt. eigenvalues --    0.26760   0.27151   0.27475   0.27741   0.29303
 Alpha virt. eigenvalues --    0.29751   0.31142   0.31391   0.32125   0.32360

 Mulliken charges:
               1
     1  C   -0.298129
     2  C   -0.299654
     3  C   -0.475681
     4  H    0.149110
     5  H    0.149646
     6  H    0.151880
     7  H    0.152062
     8  H    0.155215
     9  H    0.155023
    10  H    0.160295
    11  C   -0.298896
    12  C   -0.301055
    13  C   -0.478237
    14  H    0.149116
    15  H    0.150043
    16  H    0.151556
    17  H    0.151950
    18  H    0.153712
    19  H    0.162757
    20  H    0.158820
    21  C   -0.298280
    22  C   -0.299629
    23  C   -0.475716
    24  H    0.149786
    25  H    0.149505
    26  H    0.151962
    27  H    0.151789
    28  H    0.155202
    29  H    0.155242
    30  H    0.160299
    31  C   -0.298441
    32  C   -0.300267
    33  C   -0.478581
    34  H    0.149584
    35  H    0.149102
    36  H    0.151966
    37  H    0.151794
    38  H    0.156844
    39  H    0.154600
    40  H    0.163705
 Sum of Mulliken charges =  -0.00000

 Dipole moment (field-independent basis, Debye):
    X=             -0.0184    Y=             -0.0213    Z=             -0.0143  Tot=              0.0315
 Quadrupole moment (field-independent basis, Debye-Ang):
   XX=            -84.4265   YY=            -85.6595   ZZ=            -84.7333
   XY=              0.2145   XZ=              0.8527   YZ=             -0.3188

 Normal termination of Gaussian 16 at Wed May  5 20:02:03 2021.
