 Gaussian 16, Revision A.03,
 Gaussian 16:  EM64L-G16RevA.03 25-Dec-2016

 -------------
 #p 6-31g* mp2
 -------------

 ------------------------------------------------------
 Input file generated by CHIRIPA (05-May-2021 14:55:23)
 ------------------------------------------------------
 Symbolic Z-matrix:
 Charge =  0 Multiplicity = 1

                         Standard orientation:
 ---------------------------------------------------------------------
 Center     Atomic      Atomic             Coordinates (Angstroms)
 Number     Number       Type             X           Y           Z
 ---------------------------------------------------------------------
      1          6           0       -3.997144    1.635669    0.278565
      2          6           0       -4.186793    0.669832   -0.715272
      3          6           0       -3.296023   -0.399866   -0.844983
      4          6           0       -2.221554   -0.473057    0.040143
      5          6           0       -2.005682    0.473440    1.040560
      6          6           0       -2.909112    1.534569    1.151770
      7          1           0       -4.694032    2.463307    0.372142
      8          1           0       -5.030888    0.745801   -1.394814
      9          1           0       -3.419089   -1.161518   -1.605351
     10          1           0       -1.154925    0.370873    1.703215
     11          1           0       -2.759338    2.283190    1.924544
     12          7           0       -1.271834   -1.600962   -0.087383
     13          8           0       -0.333094   -1.642785    0.704864
     14          8           0       -1.484167   -2.421834   -0.977170
     15          6           0        3.136336   -0.241397    0.373438
     16          6           0        3.034748   -1.571598   -0.373711
     17          6           0        3.221745   -2.780564    0.543473
     18          1           0        4.115190   -0.179988    0.868432
     19          1           0        2.380785   -0.218136    1.170931
     20          1           0        3.789348   -1.591773   -1.170445
     21          1           0        2.056096   -1.629763   -0.867142
     22          1           0        2.461025   -2.788149    1.330779
     23          1           0        4.204125   -2.749943    1.025751
     24          1           0        3.145289   -3.720948   -0.011226
     25          6           0        2.951546    0.976537   -0.530010
     26          6           0        3.053134    2.306739    0.217139
     27          6           0        2.866137    3.515705   -0.700045
     28          1           0        3.707097    0.953276   -1.327503
     29          1           0        1.972692    0.915129   -1.025004
     30          1           0        4.031786    2.364904    0.710570
     31          1           0        2.298533    2.326914    1.013874
     32          1           0        1.883757    3.485084   -1.182323
     33          1           0        3.626857    3.523289   -1.487349
     34          1           0        2.942593    4.456089   -0.145344
 ---------------------------------------------------------------------

 SCF Done:  E(RHF) =  -669.536365589     A.U. after   15 cycles
 E2 =    -0.2092494791D+01 EUMP2 =    -0.67162886038005D+03

 The electronic state is 1-A.
 Alpha  occ. eigenvalues --  -20.61106 -20.61095 -15.86116 -11.31388 -11.27945
 Alpha  occ. eigenvalues --  -11.27936 -11.27666 -11.26934 -11.26925 -11.21243
 Alpha  occ. eigenvalues --  -11.20864 -11.20708 -11.20283 -11.20081 -11.19472
 Alpha  occ. eigenvalues --   -1.60152  -1.39710  -1.19548  -1.08962  -1.07558
 Alpha  occ. eigenvalues --   -1.04935  -1.02580  -0.95812  -0.95066  -0.86338
 Alpha  occ. eigenvalues --   -0.86096  -0.82649  -0.78765  -0.77714  -0.77254
 Alpha  occ. eigenvalues --   -0.72352  -0.71470  -0.70655  -0.65212  -0.64937
 Alpha  occ. eigenvalues --   -0.64166  -0.62283  -0.59938  -0.58545  -0.56649
 Alpha  occ. eigenvalues --   -0.55440  -0.54353  -0.53269  -0.53024  -0.51799
 Alpha  occ. eigenvalues --   -0.51494  -0.49169  -0.49082  -0.48953  -0.47047
 Alpha  occ. eigenvalues --   -0.45837  -0.45198  -0.44739  -0.44570  -0.42857
 Alpha  occ. eigenvalues --   -0.37521  -0.36533
 Alpha virt. eigenvalues --    0.04780   0.11113   0.16269   0.21003   0.23378
 Alpha virt. eigenvalues --    0.25316   0.26393   0.27416   0.27999   0.28821
 Alpha virt. eigenvalues --    0.28945   0.31045   0.32173   0.32365   0.32671

 Mulliken charges:
               1
     1  C   -0.170349
     2  C   -0.218565
     3  C   -0.170537
     4  C    0.157934
     5  C   -0.170955
     6  C   -0.218472
     7  H    0.226477
     8  H    0.224223
     9  H    0.276103
    10  H    0.275713
    11  H    0.224391
    12  N    0.490174
    13  O   -0.461705
    14  O   -0.457968
    15  C   -0.299246
    16  C   -0.296243
    17  C   -0.476284
    18  H    0.143703
    19  H    0.154865
    20  H    0.142404
    21  H    0.165201
    22  H    0.168789
    23  H    0.144277
    24  H    0.158196
    25  C   -0.297155
    26  C   -0.297462
    27  C   -0.475001
    28  H    0.148088
    29  H    0.146562
    30  H    0.151855
    31  H    0.145449
    32  H    0.152612
    33  H    0.155890
    34  H    0.157037
 Sum of Mulliken charges =  -0.00000

 Dipole moment (field-independent basis, Debye):
    X=             -3.7000    Y=              3.8182    Z=              0.4648  Tot=              5.3371
 Quadrupole moment (field-independent basis, Debye-Ang):
   XX=            -78.9339   YY=            -99.7335   ZZ=            -92.4071
   XY=             -6.2983   XZ=              1.0460   YZ=              2.1154

 Normal termination of Gaussian 16 at Thu May  6 01:32:28 2021.
