 Gaussian 16, Revision A.03,
 Gaussian 16:  EM64L-G16RevA.03 25-Dec-2016

 -------------
 #p 6-31g* mp2
 -------------

 ------------------------------------------------------
 Input file generated by CHIRIPA (05-May-2021 14:53:12)
 ------------------------------------------------------
 Symbolic Z-matrix:
 Charge =  0 Multiplicity = 1

                         Standard orientation:
 ---------------------------------------------------------------------
 Center     Atomic      Atomic             Coordinates (Angstroms)
 Number     Number       Type             X           Y           Z
 ---------------------------------------------------------------------
      1          6           0       -3.520240    0.236276    0.480032
      2          6           0       -2.609051   -0.475706    1.480433
      3          6           0       -1.294192    0.268280    1.715857
      4          1           0       -2.987195    0.352433   -0.473549
      5          1           0       -3.732180    1.250722    0.845237
      6          1           0       -2.400015   -1.488988    1.114128
      7          1           0       -3.144396   -0.590353    2.431683
      8          1           0       -1.484803    1.273881    2.104489
      9          1           0       -0.736192    0.370140    0.779448
     10          1           0       -0.658109   -0.258152    2.434277
     11          6           0       -4.838589   -0.495329    0.234191
     12          6           0       -5.749778    0.216653   -0.766210
     13          6           0       -7.064637   -0.527333   -1.001634
     14          1           0       -4.626649   -1.509775   -0.131015
     15          1           0       -5.371634   -0.611486    1.187771
     16          1           0       -5.214433    0.331300   -1.717461
     17          1           0       -5.958814    1.229935   -0.399906
     18          1           0       -7.622637   -0.629193   -0.065225
     19          1           0       -6.874026   -1.532934   -1.390266
     20          1           0       -7.700720   -0.000901   -1.720055
     21          6           0        1.932907    2.233700   -0.487356
     22          6           0        1.383289    1.020403   -0.914382
     23          6           0        2.112366   -0.167347   -0.803736
     24          6           0        3.393966   -0.104971   -0.258849
     25          6           0        3.969062    1.088286    0.175540
     26          6           0        3.221767    2.263716    0.055286
     27          1           0        1.359466    3.151589   -0.577041
     28          1           0        0.382576    0.994090   -1.336196
     29          1           0        1.711133   -1.120391   -1.126442
     30          1           0        4.969080    1.082871    0.591895
     31          1           0        3.651150    3.204537    0.387745
     32          7           0        4.175450   -1.355868   -0.136626
     33          8           0        5.302465   -1.274196    0.346905
     34          8           0        3.646164   -2.394307   -0.526676
 ---------------------------------------------------------------------

 SCF Done:  E(RHF) =  -669.534685399     A.U. after   15 cycles
 E2 =    -0.2092081731D+01 EUMP2 =    -0.67162676712984D+03

 The electronic state is 1-A.
 Alpha  occ. eigenvalues --  -20.60774 -20.60769 -15.85829 -11.31203 -11.27778
 Alpha  occ. eigenvalues --  -11.27768 -11.27513 -11.26795 -11.26783 -11.22016
 Alpha  occ. eigenvalues --  -11.21995 -11.21926 -11.21780 -11.21445 -11.21381
 Alpha  occ. eigenvalues --   -1.59850  -1.39403  -1.19383  -1.08876  -1.08772
 Alpha  occ. eigenvalues --   -1.04800  -1.03931  -0.96386  -0.95604  -0.87406
 Alpha  occ. eigenvalues --   -0.86188  -0.82446  -0.79997  -0.78699  -0.77489
 Alpha  occ. eigenvalues --   -0.72047  -0.71172  -0.70480  -0.65526  -0.65036
 Alpha  occ. eigenvalues --   -0.64812  -0.62177  -0.61316  -0.59745  -0.58001
 Alpha  occ. eigenvalues --   -0.55732  -0.55275  -0.53284  -0.53028  -0.52909
 Alpha  occ. eigenvalues --   -0.52652  -0.50310  -0.48809  -0.48801  -0.48306
 Alpha  occ. eigenvalues --   -0.47034  -0.46238  -0.46162  -0.44806  -0.44194
 Alpha  occ. eigenvalues --   -0.37337  -0.36327
 Alpha virt. eigenvalues --    0.05046   0.11196   0.16451   0.20352   0.22634
 Alpha virt. eigenvalues --    0.23907   0.25527   0.26770   0.27526   0.28280
 Alpha virt. eigenvalues --    0.28550   0.30294   0.31393   0.31620   0.32147

 Mulliken charges:
               1
     1  C   -0.296982
     2  C   -0.300457
     3  C   -0.478830
     4  H    0.141681
     5  H    0.149299
     6  H    0.153449
     7  H    0.154218
     8  H    0.152668
     9  H    0.152390
    10  H    0.164858
    11  C   -0.298518
    12  C   -0.299691
    13  C   -0.475961
    14  H    0.150937
    15  H    0.151625
    16  H    0.150381
    17  H    0.151705
    18  H    0.156162
    19  H    0.156165
    20  H    0.160856
    21  C   -0.170468
    22  C   -0.217331
    23  C   -0.169807
    24  C    0.158607
    25  C   -0.170684
    26  C   -0.218512
    27  H    0.226220
    28  H    0.223779
    29  H    0.275635
    30  H    0.275705
    31  H    0.223603
    32  N    0.488098
    33  O   -0.460362
    34  O   -0.460435
 Sum of Mulliken charges =  -0.00000

 Dipole moment (field-independent basis, Debye):
    X=             -2.7684    Y=              4.3993    Z=             -0.3873  Tot=              5.2123
 Quadrupole moment (field-independent basis, Debye-Ang):
   XX=           -111.2961   YY=            -94.6861   ZZ=            -93.9002
   XY=             17.1845   XZ=              0.3339   YZ=              0.3359

 Normal termination of Gaussian 16 at Thu May  6 08:48:37 2021.
