 Gaussian 16, Revision A.03,
 Gaussian 16:  EM64L-G16RevA.03 25-Dec-2016

 -------------
 #p 6-31g* mp2
 -------------

 ------------------------------------------------------
 Input file generated by CHIRIPA (05-May-2021 14:53:16)
 ------------------------------------------------------
 Symbolic Z-matrix:
 Charge =  0 Multiplicity = 1

                         Standard orientation:
 ---------------------------------------------------------------------
 Center     Atomic      Atomic             Coordinates (Angstroms)
 Number     Number       Type             X           Y           Z
 ---------------------------------------------------------------------
      1          6           0       -3.857721    0.572080   -0.045725
      2          6           0       -3.218692    1.489028    0.997747
      3          6           0       -1.787335    1.887695    0.637090
      4          1           0       -3.241454   -0.330441   -0.158048
      5          1           0       -3.851744    1.078032   -1.021108
      6          1           0       -3.227125    0.982049    1.971152
      7          1           0       -3.836654    2.389384    1.107739
      8          1           0       -1.764557    2.416306   -0.321374
      9          1           0       -1.151565    1.000975    0.546945
     10          1           0       -1.349697    2.543149    1.396506
     11          6           0       -5.288751    0.164862    0.300763
     12          6           0       -5.927779   -0.752087   -0.742708
     13          6           0       -7.359137   -1.150753   -0.382051
     14          1           0       -5.294728   -0.341090    1.276146
     15          1           0       -5.905017    1.067383    0.413087
     16          1           0       -5.309817   -1.652443   -0.852700
     17          1           0       -5.919346   -0.245108   -1.716113
     18          1           0       -7.994907   -0.264034   -0.291907
     19          1           0       -7.381915   -1.679365    0.576412
     20          1           0       -7.796774   -1.806207   -1.141468
     21          6           0        5.985498    0.450325   -0.108398
     22          6           0        5.599381   -0.671448    0.632587
     23          6           0        4.265370   -1.089556    0.644768
     24          6           0        3.339594   -0.359233   -0.098776
     25          6           0        3.693261    0.762556   -0.846972
     26          6           0        5.032885    1.162491   -0.844516
     27          1           0        7.023971    0.768063   -0.112174
     28          1           0        6.337034   -1.226447    1.205204
     29          1           0        3.939070   -1.954343    1.209648
     30          1           0        2.935189    1.295561   -1.407910
     31          1           0        5.329879    2.034058   -1.420893
     32          7           0        1.924365   -0.792247   -0.093630
     33          8           0        1.127955   -0.131739   -0.757029
     34          8           0        1.638315   -1.783950    0.573705
 ---------------------------------------------------------------------

 SCF Done:  E(RHF) =  -669.536271711     A.U. after   15 cycles
 E2 =    -0.2090777770D+01 EUMP2 =    -0.67162704948137D+03

 The electronic state is 1-A.
 Alpha  occ. eigenvalues --  -20.60967 -20.60944 -15.85979 -11.31287 -11.27850
 Alpha  occ. eigenvalues --  -11.27843 -11.27587 -11.26854 -11.26844 -11.20842
 Alpha  occ. eigenvalues --  -11.20519 -11.20492 -11.20448 -11.20271 -11.19631
 Alpha  occ. eigenvalues --   -1.60016  -1.39571  -1.19455  -1.08863  -1.07467
 Alpha  occ. eigenvalues --   -1.04849  -1.02554  -0.95708  -0.94990  -0.86250
 Alpha  occ. eigenvalues --   -0.86005  -0.82540  -0.78639  -0.77594  -0.77251
 Alpha  occ. eigenvalues --   -0.72201  -0.71326  -0.70564  -0.65110  -0.64852
 Alpha  occ. eigenvalues --   -0.64099  -0.62195  -0.59950  -0.58402  -0.56601
 Alpha  occ. eigenvalues --   -0.55357  -0.54266  -0.53181  -0.52940  -0.51719
 Alpha  occ. eigenvalues --   -0.51402  -0.49116  -0.48961  -0.48768  -0.46936
 Alpha  occ. eigenvalues --   -0.45693  -0.45009  -0.44775  -0.44624  -0.42823
 Alpha  occ. eigenvalues --   -0.37433  -0.36449
 Alpha virt. eigenvalues --    0.04908   0.11207   0.16398   0.21341   0.23802
 Alpha virt. eigenvalues --    0.25328   0.27260   0.27629   0.28175   0.28485
 Alpha virt. eigenvalues --    0.29066   0.30904   0.32387   0.32471   0.32686

 Mulliken charges:
               1
     1  C   -0.298971
     2  C   -0.298645
     3  C   -0.483913
     4  H    0.158698
     5  H    0.147331
     6  H    0.149702
     7  H    0.145746
     8  H    0.150357
     9  H    0.181196
    10  H    0.150440
    11  C   -0.297714
    12  C   -0.299271
    13  C   -0.475193
    14  H    0.148495
    15  H    0.146463
    16  H    0.153786
    17  H    0.150657
    18  H    0.153439
    19  H    0.154478
    20  H    0.158382
    21  C   -0.170534
    22  C   -0.218618
    23  C   -0.170718
    24  C    0.158204
    25  C   -0.170566
    26  C   -0.218608
    27  H    0.225974
    28  H    0.223760
    29  H    0.275747
    30  H    0.276328
    31  H    0.223884
    32  N    0.488326
    33  O   -0.458890
    34  O   -0.459752
 Sum of Mulliken charges =  -0.00000

 Dipole moment (field-independent basis, Debye):
    X=              5.3182    Y=              1.3862    Z=             -0.0784  Tot=              5.4964
 Quadrupole moment (field-independent basis, Debye-Ang):
   XX=            -63.8178   YY=            -93.2671   ZZ=            -93.3842
   XY=              2.1009   XZ=              0.7245   YZ=             -3.4727

 Normal termination of Gaussian 16 at Wed May  5 23:33:07 2021.
