 Gaussian 16, Revision A.03,
 Gaussian 16:  EM64L-G16RevA.03 25-Dec-2016

 -------------
 #p 6-31g* mp2
 -------------

 ------------------------------------------------------
 Input file generated by CHIRIPA (05-May-2021 14:57:22)
 ------------------------------------------------------
 Symbolic Z-matrix:
 Charge =  0 Multiplicity = 1

                         Standard orientation:
 ---------------------------------------------------------------------
 Center     Atomic      Atomic             Coordinates (Angstroms)
 Number     Number       Type             X           Y           Z
 ---------------------------------------------------------------------
      1          6           0       -2.215606    2.736075    0.085460
      2          6           0       -1.980248    1.862430    1.152171
      3          6           0       -2.406223    0.532407    1.087880
      4          6           0       -3.067562    0.107713   -0.063447
      5          6           0       -3.316932    0.953980   -1.142770
      6          6           0       -2.882022    2.279866   -1.056593
      7          1           0       -1.881228    3.767662    0.143904
      8          1           0       -1.462944    2.213968    2.040350
      9          1           0       -2.237145   -0.165264    1.899105
     10          1           0       -3.835168    0.574469   -2.015021
     11          1           0       -3.066180    2.956115   -1.886543
     12          7           0       -3.523252   -1.298133   -0.143094
     13          8           0       -4.103731   -1.647738   -1.168500
     14          8           0       -3.291315   -2.023810    0.821393
     15          6           0        0.791350   -1.295081    0.829900
     16          6           0        1.566800   -0.522595    1.700798
     17          6           0        2.788035    0.011953    1.279618
     18          6           0        3.205254   -0.247024   -0.025046
     19          6           0        2.455215   -1.012795   -0.916296
     20          6           0        1.237247   -1.537289   -0.473570
     21          1           0       -0.156065   -1.706426    1.165451
     22          1           0        1.223012   -0.332860    2.713643
     23          1           0        3.408269    0.613406    1.933057
     24          1           0        2.824271   -1.184722   -1.920117
     25          1           0        0.637110   -2.136854   -1.152099
     26          7           0        4.496392    0.313557   -0.482336
     27          8           0        4.841715    0.070869   -1.636671
     28          8           0        5.138612    0.985015    0.322235
 ---------------------------------------------------------------------

 SCF Done:  E(RHF) =  -868.338477576     A.U. after   16 cycles
 E2 =    -0.2601068448D+01 EUMP2 =    -0.87093954602397D+03

 The electronic state is 1-A.
 Alpha  occ. eigenvalues --  -20.61849 -20.61805 -20.60868 -20.60858 -15.86845
 Alpha  occ. eigenvalues --  -15.85920 -11.32013 -11.31240 -11.28631 -11.28504
 Alpha  occ. eigenvalues --  -11.28189 -11.27867 -11.27792 -11.27525 -11.27456
 Alpha  occ. eigenvalues --  -11.27452 -11.26865 -11.26717  -1.60891  -1.59944
 Alpha  occ. eigenvalues --   -1.40453  -1.39499  -1.20156  -1.19413  -1.09573
 Alpha  occ. eigenvalues --   -1.08801  -1.05533  -1.04819  -0.96451  -0.95641
 Alpha  occ. eigenvalues --   -0.86943  -0.86213  -0.83288  -0.82484  -0.78387
 Alpha  occ. eigenvalues --   -0.77550  -0.73062  -0.72228  -0.72136  -0.71283
 Alpha  occ. eigenvalues --   -0.71270  -0.70443  -0.65807  -0.65527  -0.65060
 Alpha  occ. eigenvalues --   -0.64825  -0.62902  -0.62171  -0.56012  -0.55262
 Alpha  occ. eigenvalues --   -0.53910  -0.53609  -0.53072  -0.52906  -0.49843
 Alpha  occ. eigenvalues --   -0.49794  -0.48896  -0.48891  -0.45882  -0.44915
 Alpha  occ. eigenvalues --   -0.38134  -0.37665  -0.36767  -0.36411
 Alpha virt. eigenvalues --    0.04069   0.05016   0.10479   0.11190   0.15675
 Alpha virt. eigenvalues --    0.16531   0.19756   0.21857   0.25769   0.26901
 Alpha virt. eigenvalues --    0.27526   0.28929   0.30106   0.31107   0.32358

 Mulliken charges:
               1
     1  C   -0.169138
     2  C   -0.214517
     3  C   -0.172866
     4  C    0.157661
     5  C   -0.170700
     6  C   -0.217573
     7  H    0.229817
     8  H    0.223407
     9  H    0.268076
    10  H    0.277108
    11  H    0.227096
    12  N    0.487444
    13  O   -0.454878
    14  O   -0.467275
    15  C   -0.175887
    16  C   -0.221745
    17  C   -0.171632
    18  C    0.157615
    19  C   -0.170785
    20  C   -0.221132
    21  H    0.237659
    22  H    0.217641
    23  H    0.273792
    24  H    0.275939
    25  H    0.228773
    26  N    0.488045
    27  O   -0.460111
    28  O   -0.461834
 Sum of Mulliken charges =  -0.00000

 Dipole moment (field-independent basis, Debye):
    X=             -3.1419    Y=              3.1076    Z=              1.6777  Tot=              4.7268
 Quadrupole moment (field-independent basis, Debye-Ang):
   XX=           -144.5397   YY=           -102.3983   ZZ=            -97.0965
   XY=            -20.8445   XZ=              7.2745   YZ=              0.6912

 Normal termination of Gaussian 16 at Wed May  5 16:18:19 2021.
