 Gaussian 16, Revision A.03,
 Gaussian 16:  EM64L-G16RevA.03 25-Dec-2016

 -------------
 #p 6-31g* mp2
 -------------

 ------------------------------------------------------
 Input file generated by CHIRIPA (05-May-2021 14:57:25)
 ------------------------------------------------------
 Symbolic Z-matrix:
 Charge =  0 Multiplicity = 1

                         Standard orientation:
 ---------------------------------------------------------------------
 Center     Atomic      Atomic             Coordinates (Angstroms)
 Number     Number       Type             X           Y           Z
 ---------------------------------------------------------------------
      1          6           0       -2.310012    2.409998    0.525033
      2          6           0       -2.050246    1.727931   -0.668209
      3          6           0       -2.607391    0.467008   -0.901042
      4          6           0       -3.423365   -0.084692    0.085418
      5          6           0       -3.700970    0.569931    1.284457
      6          6           0       -3.133094    1.829844    1.495846
      7          1           0       -1.873041    3.389120    0.697574
      8          1           0       -1.411407    2.176051   -1.423933
      9          1           0       -2.422871   -0.083030   -1.815826
     10          1           0       -4.341775    0.097570    2.019073
     11          1           0       -3.336571    2.357240    2.423475
     12          7           0       -4.018869   -1.419039   -0.149721
     13          8           0       -4.734383   -1.883430    0.735162
     14          8           0       -3.758836   -1.975245   -1.214453
     15          6           0        5.575860   -0.660917    0.887847
     16          6           0        4.551959   -1.613156    0.925096
     17          6           0        3.300953   -1.332759    0.367503
     18          6           0        3.107634   -0.084403   -0.222010
     19          6           0        4.107841    0.885176   -0.274845
     20          6           0        5.350930    0.583017    0.289050
     21          1           0        6.544597   -0.887188    1.323446
     22          1           0        4.723795   -2.580042    1.389475
     23          1           0        2.490695   -2.051562    0.382468
     24          1           0        3.906546    1.840252   -0.744663
     25          1           0        6.144263    1.324466    0.258668
     26          7           0        1.787442    0.223960   -0.815645
     27          8           0        1.642458    1.331163   -1.329180
     28          8           0        0.922657   -0.647386   -0.756161
 ---------------------------------------------------------------------

 SCF Done:  E(RHF) =  -868.340021280     A.U. after   16 cycles
 E2 =    -0.2599432589D+01 EUMP2 =    -0.87093945386975D+03

 The electronic state is 1-A.
 Alpha  occ. eigenvalues --  -20.61497 -20.61441 -20.59680 -20.59655 -15.86477
 Alpha  occ. eigenvalues --  -15.84711 -11.31627 -11.29831 -11.28192 -11.28135
 Alpha  occ. eigenvalues --  -11.27873 -11.27150 -11.27110 -11.26470 -11.26245
 Alpha  occ. eigenvalues --  -11.26117 -11.25497 -11.25149  -1.60523  -1.58748
 Alpha  occ. eigenvalues --   -1.40081  -1.38308  -1.19779  -1.17985  -1.09218
 Alpha  occ. eigenvalues --   -1.07446  -1.05147  -1.03328  -0.96089  -0.94319
 Alpha  occ. eigenvalues --   -0.86555  -0.84757  -0.82927  -0.81142  -0.77996
 Alpha  occ. eigenvalues --   -0.76205  -0.72718  -0.71817  -0.70945  -0.70883
 Alpha  occ. eigenvalues --   -0.70061  -0.69142  -0.65435  -0.65148  -0.63642
 Alpha  occ. eigenvalues --   -0.63330  -0.62493  -0.60678  -0.55660  -0.53915
 Alpha  occ. eigenvalues --   -0.53491  -0.53234  -0.51729  -0.51428  -0.49473
 Alpha  occ. eigenvalues --   -0.49429  -0.47706  -0.47675  -0.45527  -0.43767
 Alpha  occ. eigenvalues --   -0.37750  -0.36740  -0.36004  -0.34858
 Alpha virt. eigenvalues --    0.04515   0.06299   0.10918   0.12739   0.16056
 Alpha virt. eigenvalues --    0.17834   0.21085   0.22801   0.27013   0.27953
 Alpha virt. eigenvalues --    0.28851   0.29570   0.30671   0.32130   0.32367

 Mulliken charges:
               1
     1  C   -0.174826
     2  C   -0.213577
     3  C   -0.158514
     4  C    0.155174
     5  C   -0.174200
     6  C   -0.219873
     7  H    0.220826
     8  H    0.236434
     9  H    0.277986
    10  H    0.269926
    11  H    0.216615
    12  N    0.488267
    13  O   -0.466620
    14  O   -0.460538
    15  C   -0.170040
    16  C   -0.218697
    17  C   -0.170342
    18  C    0.157988
    19  C   -0.171082
    20  C   -0.218663
    21  H    0.227207
    22  H    0.225922
    23  H    0.278797
    24  H    0.273959
    25  H    0.224134
    26  N    0.489901
    27  O   -0.469914
    28  O   -0.456248
 Sum of Mulliken charges =  -0.00000

 Dipole moment (field-independent basis, Debye):
    X=              7.2258    Y=              3.4997    Z=              2.7128  Tot=              8.4747
 Quadrupole moment (field-independent basis, Debye-Ang):
   XX=            -90.8487   YY=           -102.3680   ZZ=           -102.4037
   XY=            -18.8059   XZ=              1.1258   YZ=             -1.0788

 Normal termination of Gaussian 16 at Thu May  6 08:18:59 2021.
