 Gaussian 16, Revision A.03,
 Gaussian 16:  EM64L-G16RevA.03 25-Dec-2016

 -------------
 #p 6-31g* mp2
 -------------

 ------------------------------------------------------
 Input file generated by CHIRIPA (05-May-2021 14:53:13)
 ------------------------------------------------------
 Symbolic Z-matrix:
 Charge =  0 Multiplicity = 1

                         Standard orientation:
 ---------------------------------------------------------------------
 Center     Atomic      Atomic             Coordinates (Angstroms)
 Number     Number       Type             X           Y           Z
 ---------------------------------------------------------------------
      1          6           0        3.860396    0.771538   -0.213248
      2          6           0        4.927400    1.488678    0.614520
      3          6           0        4.986215    2.989833    0.330147
      4          1           0        4.061345    0.936370   -1.280672
      5          1           0        2.880490    1.223555   -0.006220
      6          1           0        5.904803    1.034533    0.407035
      7          1           0        4.723997    1.321961    1.680095
      8          1           0        4.024647    3.462491    0.555054
      9          1           0        5.212162    3.173430   -0.725239
     10          1           0        5.755658    3.482711    0.932550
     11          6           0        3.789423   -0.729822    0.059895
     12          6           0        2.722419   -1.446962   -0.767873
     13          6           0        2.663604   -2.948117   -0.483500
     14          1           0        4.769328   -1.181839   -0.147133
     15          1           0        3.588474   -0.894654    1.127319
     16          1           0        2.925821   -1.280245   -1.833448
     17          1           0        1.745015   -0.992817   -0.560387
     18          1           0        2.437656   -3.131714    0.571887
     19          1           0        3.625172   -3.420775   -0.708407
     20          1           0        1.894161   -3.440995   -1.085903
     21          6           0       -1.146094   -1.670795    0.544838
     22          6           0       -1.208135   -1.037479   -0.700788
     23          6           0       -2.224376   -0.119019   -0.980493
     24          6           0       -3.166299    0.143656    0.013022
     25          6           0       -3.131340   -0.471059    1.263699
     26          6           0       -2.106202   -1.386065    1.521384
     27          1           0       -0.353197   -2.382935    0.753566
     28          1           0       -0.463859   -1.256660   -1.461088
     29          1           0       -2.296102    0.385632   -1.936317
     30          1           0       -3.887555   -0.232093    2.001570
     31          1           0       -2.060503   -1.876401    2.489644
     32          7           0       -4.246858    1.114160   -0.271433
     33          8           0       -5.064636    1.328290    0.620768
     34          8           0       -4.255561    1.642335   -1.381205
 ---------------------------------------------------------------------

 SCF Done:  E(RHF) =  -669.535166640     A.U. after   15 cycles
 E2 =    -0.2092358502D+01 EUMP2 =    -0.67162752514251D+03

 The electronic state is 1-A.
 Alpha  occ. eigenvalues --  -20.60762 -20.60757 -15.85816 -11.31186 -11.27758
 Alpha  occ. eigenvalues --  -11.27745 -11.27466 -11.26763 -11.26721 -11.22659
 Alpha  occ. eigenvalues --  -11.22321 -11.22186 -11.22070 -11.21961 -11.21415
 Alpha  occ. eigenvalues --   -1.59838  -1.39391  -1.19358  -1.09189  -1.08746
 Alpha  occ. eigenvalues --   -1.04764  -1.04311  -0.96756  -0.95581  -0.87767
 Alpha  occ. eigenvalues --   -0.86164  -0.82413  -0.80411  -0.78947  -0.77461
 Alpha  occ. eigenvalues --   -0.72034  -0.71161  -0.70469  -0.65864  -0.65003
 Alpha  occ. eigenvalues --   -0.64763  -0.62172  -0.61643  -0.60149  -0.58340
 Alpha  occ. eigenvalues --   -0.56072  -0.55199  -0.53464  -0.53196  -0.53074
 Alpha  occ. eigenvalues --   -0.52851  -0.50684  -0.48820  -0.48789  -0.48670
 Alpha  occ. eigenvalues --   -0.47422  -0.46487  -0.46374  -0.44796  -0.44536
 Alpha  occ. eigenvalues --   -0.37314  -0.36353
 Alpha virt. eigenvalues --    0.05062   0.11133   0.16545   0.19428   0.22555
 Alpha virt. eigenvalues --    0.23932   0.25530   0.25926   0.26613   0.27795
 Alpha virt. eigenvalues --    0.29445   0.30124   0.31059   0.31496   0.32074

 Mulliken charges:
               1
     1  C   -0.299702
     2  C   -0.300196
     3  C   -0.476317
     4  H    0.150622
     5  H    0.151560
     6  H    0.152570
     7  H    0.152350
     8  H    0.156792
     9  H    0.155944
    10  H    0.161791
    11  C   -0.297232
    12  C   -0.309919
    13  C   -0.480243
    14  H    0.152064
    15  H    0.149650
    16  H    0.154652
    17  H    0.151634
    18  H    0.152085
    19  H    0.163310
    20  H    0.156716
    21  C   -0.174476
    22  C   -0.221669
    23  C   -0.172233
    24  C    0.158257
    25  C   -0.170766
    26  C   -0.219410
    27  H    0.231732
    28  H    0.228283
    29  H    0.275825
    30  H    0.275564
    31  H    0.223493
    32  N    0.488079
    33  O   -0.460466
    34  O   -0.460344
 Sum of Mulliken charges =  -0.00000

 Dipole moment (field-independent basis, Debye):
    X=              3.9744    Y=             -3.3617    Z=              1.0055  Tot=              5.3017
 Quadrupole moment (field-independent basis, Debye-Ang):
   XX=           -117.7164   YY=            -97.4849   ZZ=            -90.0751
   XY=             11.5078   XZ=             -5.6515   YZ=             -0.4523

 Normal termination of Gaussian 16 at Wed May  5 21:49:46 2021.
