 Gaussian 16, Revision A.03,
 Gaussian 16:  EM64L-G16RevA.03 25-Dec-2016

 -------------
 #p 6-31g* mp2
 -------------

 ------------------------------------------------------
 Input file generated by CHIRIPA (05-May-2021 14:51:09)
 ------------------------------------------------------
 Symbolic Z-matrix:
 Charge =  0 Multiplicity = 1

                         Standard orientation:
 ---------------------------------------------------------------------
 Center     Atomic      Atomic             Coordinates (Angstroms)
 Number     Number       Type             X           Y           Z
 ---------------------------------------------------------------------
      1          6           0        2.607734   -0.788593   -0.210463
      2          6           0        1.386834   -0.625564    0.695523
      3          6           0        0.137036   -1.301334    0.130603
      4          1           0        2.379677   -0.371630   -1.200956
      5          1           0        2.804460   -1.859291   -0.359798
      6          1           0        1.193303    0.444506    0.844227
      7          1           0        1.617891   -1.042791    1.684032
      8          1           0        0.305933   -2.374945   -0.001439
      9          1           0       -0.121067   -0.879197   -0.846015
     10          1           0       -0.723750   -1.172400    0.794141
     11          6           0        3.864999   -0.118413    0.340782
     12          6           0        5.085899   -0.281442   -0.565204
     13          6           0        6.335697    0.394328   -0.000285
     14          1           0        3.668273    0.952285    0.490117
     15          1           0        4.093057   -0.535376    1.331275
     16          1           0        4.854843    0.135785   -1.553713
     17          1           0        5.279430   -1.351512   -0.713908
     18          1           0        6.593800   -0.027809    0.976334
     19          1           0        6.166800    1.467939    0.131757
     20          1           0        7.196484    0.265394   -0.663822
     21          6           0       -3.594061   -0.122824    0.286030
     22          6           0       -3.810767   -1.340120   -0.613532
     23          6           0       -4.527528   -2.484776    0.103274
     24          1           0       -3.013569   -0.425518    1.168271
     25          1           0       -4.566981    0.227875    0.657285
     26          1           0       -2.837845   -1.687576   -0.984091
     27          1           0       -4.390648   -1.034452   -1.493829
     28          1           0       -5.511072   -2.160896    0.458720
     29          1           0       -3.949448   -2.817730    0.971355
     30          1           0       -4.672097   -3.344706   -0.558148
     31          6           0       -2.878672    1.029830   -0.416349
     32          6           0       -2.661966    2.247126    0.483214
     33          6           0       -1.945206    3.391781   -0.233593
     34          1           0       -1.905751    0.679131   -0.787604
     35          1           0       -3.459165    1.332524   -1.298590
     36          1           0       -2.082086    1.941458    1.363511
     37          1           0       -3.634888    2.594583    0.853771
     38          1           0       -2.523286    3.724736   -1.101675
     39          1           0       -0.961661    3.067901   -0.589039
     40          1           0       -1.800636    4.251713    0.427830
 ---------------------------------------------------------------------

 SCF Done:  E(RHF) =  -470.732035064     A.U. after   11 cycles
 E2 =    -0.1584475978D+01 EUMP2 =    -0.47231651104218D+03

 The electronic state is 1-A.
 Alpha  occ. eigenvalues --  -11.21697 -11.21636 -11.21565 -11.21498 -11.21465
 Alpha  occ. eigenvalues --  -11.21402 -11.21326 -11.21237 -11.21153 -11.21096
 Alpha  occ. eigenvalues --  -11.21071 -11.21010  -1.08507  -1.08360  -1.03602
 Alpha  occ. eigenvalues --   -1.03476  -0.96088  -0.95902  -0.87084  -0.86946
 Alpha  occ. eigenvalues --   -0.79679  -0.79539  -0.78317  -0.78172  -0.65267
 Alpha  occ. eigenvalues --   -0.64957  -0.61038  -0.60851  -0.59393  -0.59294
 Alpha  occ. eigenvalues --   -0.57675  -0.57536  -0.55514  -0.55080  -0.52742
 Alpha  occ. eigenvalues --   -0.52611  -0.52482  -0.52351  -0.50080  -0.49812
 Alpha  occ. eigenvalues --   -0.48010  -0.47858  -0.46777  -0.46554  -0.45916
 Alpha  occ. eigenvalues --   -0.45779  -0.45720  -0.45381  -0.43823  -0.43712
 Alpha virt. eigenvalues --    0.20329   0.22875   0.23687   0.24823   0.25593
 Alpha virt. eigenvalues --    0.26308   0.26890   0.27548   0.28040   0.29991
 Alpha virt. eigenvalues --    0.30418   0.31322   0.31766   0.31811   0.32449

 Mulliken charges:
               1
     1  C   -0.298746
     2  C   -0.301439
     3  C   -0.482352
     4  H    0.149790
     5  H    0.149854
     6  H    0.152223
     7  H    0.152447
     8  H    0.155935
     9  H    0.156819
    10  H    0.165997
    11  C   -0.298339
    12  C   -0.299696
    13  C   -0.475754
    14  H    0.149685
    15  H    0.149782
    16  H    0.152045
    17  H    0.151997
    18  H    0.155224
    19  H    0.155305
    20  H    0.160395
    21  C   -0.300110
    22  C   -0.303919
    23  C   -0.475452
    24  H    0.149275
    25  H    0.149984
    26  H    0.158025
    27  H    0.151471
    28  H    0.154831
    29  H    0.154734
    30  H    0.160008
    31  C   -0.304130
    32  C   -0.299552
    33  C   -0.475635
    34  H    0.157400
    35  H    0.148992
    36  H    0.151489
    37  H    0.151825
    38  H    0.155280
    39  H    0.154158
    40  H    0.160153
 Sum of Mulliken charges =  -0.00000

 Dipole moment (field-independent basis, Debye):
    X=              0.0481    Y=             -0.0276    Z=             -0.0123  Tot=              0.0568
 Quadrupole moment (field-independent basis, Debye-Ang):
   XX=            -85.3052   YY=            -84.9814   ZZ=            -84.6910
   XY=             -1.4388   XZ=              0.3455   YZ=             -0.3126

 Normal termination of Gaussian 16 at Wed May  5 19:43:06 2021.
