 Gaussian 16, Revision A.03,
 Gaussian 16:  EM64L-G16RevA.03 25-Dec-2016

 -------------
 #p 6-31g* mp2
 -------------

 ------------------------------------------------------
 Input file generated by CHIRIPA (05-May-2021 14:51:09)
 ------------------------------------------------------
 Symbolic Z-matrix:
 Charge =  0 Multiplicity = 1

                         Standard orientation:
 ---------------------------------------------------------------------
 Center     Atomic      Atomic             Coordinates (Angstroms)
 Number     Number       Type             X           Y           Z
 ---------------------------------------------------------------------
      1          6           0        2.542753   -0.733013    0.470770
      2          6           0        2.200137   -2.056633   -0.213795
      3          6           0        1.280666   -2.938666    0.631417
      4          1           0        3.019468   -0.940676    1.438532
      5          1           0        1.612869   -0.190373    0.690437
      6          1           0        3.130463   -2.595988   -0.433353
      7          1           0        1.724355   -1.845795   -1.180126
      8          1           0        0.337226   -2.423642    0.839439
      9          1           0        1.751324   -3.178097    1.590455
     10          1           0        1.048550   -3.879727    0.123099
     11          6           0        3.461220    0.159693   -0.361829
     12          6           0        3.803835    1.483313    0.322736
     13          6           0        4.723307    2.365346   -0.522476
     14          1           0        4.391103   -0.382947   -0.581497
     15          1           0        2.984504    0.367356   -1.329591
     16          1           0        4.279618    1.272475    1.289066
     17          1           0        2.873509    2.022668    0.542293
     18          1           0        4.252648    2.604777   -1.481515
     19          1           0        5.666746    1.850322   -0.730499
     20          1           0        4.955422    3.306407   -0.014159
     21          6           0       -2.630562   -0.364252    0.093140
     22          6           0       -3.275256   -1.590440   -0.554022
     23          6           0       -2.520758   -2.884980   -0.249573
     24          1           0       -1.592688   -0.276249   -0.256170
     25          1           0       -2.582679   -0.514771    1.180544
     26          1           0       -3.323168   -1.437061   -1.639746
     27          1           0       -4.311776   -1.675425   -0.203279
     28          1           0       -2.484655   -3.065117    0.829709
     29          1           0       -1.490431   -2.825399   -0.614920
     30          1           0       -2.998780   -3.748841   -0.721905
     31          6           0       -3.373410    0.937573   -0.202081
     32          6           0       -2.728716    2.163760    0.445082
     33          6           0       -3.483215    3.458300    0.140632
     34          1           0       -3.421293    1.088092   -1.289485
     35          1           0       -4.411283    0.849569    0.147230
     36          1           0       -1.692196    2.248746    0.094338
     37          1           0       -2.680804    2.010382    1.530805
     38          1           0       -4.513541    3.398719    0.505980
     39          1           0       -3.519317    3.638437   -0.938649
     40          1           0       -3.005192    4.322162    0.612965
 ---------------------------------------------------------------------

 SCF Done:  E(RHF) =  -470.732718210     A.U. after   11 cycles
 E2 =    -0.1583298653D+01 EUMP2 =    -0.47231601686364D+03

 The electronic state is 1-A.
 Alpha  occ. eigenvalues --  -11.21650 -11.21613 -11.21602 -11.21589 -11.21464
 Alpha  occ. eigenvalues --  -11.21403 -11.21401 -11.21341 -11.21107 -11.21074
 Alpha  occ. eigenvalues --  -11.20994 -11.20949  -1.08478  -1.08419  -1.03579
 Alpha  occ. eigenvalues --   -1.03491  -0.96049  -0.95915  -0.87091  -0.86906
 Alpha  occ. eigenvalues --   -0.79694  -0.79507  -0.78315  -0.78210  -0.65161
 Alpha  occ. eigenvalues --   -0.65007  -0.61082  -0.60816  -0.59373  -0.59330
 Alpha  occ. eigenvalues --   -0.57653  -0.57555  -0.55442  -0.55110  -0.52742
 Alpha  occ. eigenvalues --   -0.52677  -0.52442  -0.52287  -0.50082  -0.49762
 Alpha  occ. eigenvalues --   -0.48022  -0.47785  -0.46720  -0.46537  -0.45941
 Alpha  occ. eigenvalues --   -0.45764  -0.45751  -0.45505  -0.43816  -0.43763
 Alpha virt. eigenvalues --    0.20520   0.23311   0.23419   0.24876   0.25707
 Alpha virt. eigenvalues --    0.26708   0.26923   0.27339   0.28734   0.29350
 Alpha virt. eigenvalues --    0.30525   0.31141   0.31483   0.31842   0.32193

 Mulliken charges:
               1
     1  C   -0.299496
     2  C   -0.300648
     3  C   -0.481103
     4  H    0.149915
     5  H    0.150534
     6  H    0.152100
     7  H    0.150752
     8  H    0.162375
     9  H    0.154712
    10  H    0.160144
    11  C   -0.298173
    12  C   -0.299650
    13  C   -0.475685
    14  H    0.149621
    15  H    0.149160
    16  H    0.152050
    17  H    0.151896
    18  H    0.155034
    19  H    0.155213
    20  H    0.160288
    21  C   -0.300468
    22  C   -0.299565
    23  C   -0.480545
    24  H    0.149793
    25  H    0.149775
    26  H    0.151658
    27  H    0.151926
    28  H    0.155198
    29  H    0.162721
    30  H    0.159809
    31  C   -0.298218
    32  C   -0.299613
    33  C   -0.475743
    34  H    0.149655
    35  H    0.150129
    36  H    0.151253
    37  H    0.152175
    38  H    0.155375
    39  H    0.155239
    40  H    0.160406
 Sum of Mulliken charges =  -0.00000

 Dipole moment (field-independent basis, Debye):
    X=             -0.0250    Y=             -0.0082    Z=              0.0129  Tot=              0.0293
 Quadrupole moment (field-independent basis, Debye-Ang):
   XX=            -84.4313   YY=            -86.1543   ZZ=            -84.1575
   XY=             -0.3249   XZ=              0.1461   YZ=              0.1855

 Normal termination of Gaussian 16 at Wed May  5 19:44:53 2021.
