 Gaussian 16, Revision A.03,
 Gaussian 16:  EM64L-G16RevA.03 25-Dec-2016

 -------------
 #p 6-31g* mp2
 -------------

 ------------------------------------------------------
 Input file generated by CHIRIPA (05-May-2021 14:53:14)
 ------------------------------------------------------
 Symbolic Z-matrix:
 Charge =  0 Multiplicity = 1

                         Standard orientation:
 ---------------------------------------------------------------------
 Center     Atomic      Atomic             Coordinates (Angstroms)
 Number     Number       Type             X           Y           Z
 ---------------------------------------------------------------------
      1          6           0        3.096430    0.901114    0.572244
      2          6           0        2.387210    2.182822    0.133819
      3          6           0        1.808722    2.970239    1.309880
      4          1           0        2.388703    0.269016    1.125885
      5          1           0        3.901713    1.157757    1.274419
      6          1           0        1.584395    1.923963   -0.568390
      7          1           0        3.096656    2.811856   -0.419009
      8          1           0        2.601306    3.257025    2.008568
      9          1           0        1.080453    2.364087    1.858338
     10          1           0        1.306242    3.882608    0.973792
     11          6           0        3.680060    0.102999   -0.592280
     12          6           0        4.389280   -1.178709   -0.153855
     13          6           0        4.967768   -1.966126   -1.329916
     14          1           0        2.874777   -0.153644   -1.294455
     15          1           0        4.387788    0.735097   -1.145921
     16          1           0        3.679834   -1.807744    0.398972
     17          1           0        5.192095   -0.919851    0.548354
     18          1           0        5.696037   -1.359974   -1.878374
     19          1           0        4.175184   -2.252912   -2.028605
     20          1           0        5.470248   -2.878496   -0.993828
     21          6           0       -0.799507   -1.559341    1.268900
     22          6           0       -2.131197   -1.730264    1.661212
     23          6           0       -3.163019   -1.088489    0.969825
     24          6           0       -2.825682   -0.279400   -0.114089
     25          6           0       -1.508575   -0.089234   -0.529250
     26          6           0       -0.492987   -0.740814    0.176846
     27          1           0       -0.004269   -2.061695    1.811700
     28          1           0       -2.372199   -2.365348    2.508934
     29          1           0       -4.202518   -1.203279    1.252106
     30          1           0       -1.299464    0.550115   -1.378322
     31          1           0        0.540324   -0.606235   -0.130074
     32          7           0       -3.909432    0.405209   -0.853816
     33          8           0       -3.585955    1.112727   -1.805350
     34          8           0       -5.061832    0.221323   -0.468073
 ---------------------------------------------------------------------

 SCF Done:  E(RHF) =  -669.535173732     A.U. after   15 cycles
 E2 =    -0.2092807021D+01 EUMP2 =    -0.67162798075257D+03

 The electronic state is 1-A.
 Alpha  occ. eigenvalues --  -20.60771 -20.60766 -15.85824 -11.31203 -11.27774
 Alpha  occ. eigenvalues --  -11.27770 -11.27520 -11.26790 -11.26747 -11.22534
 Alpha  occ. eigenvalues --  -11.22424 -11.22393 -11.22333 -11.21804 -11.21608
 Alpha  occ. eigenvalues --   -1.59846  -1.39399  -1.19377  -1.09378  -1.08767
 Alpha  occ. eigenvalues --   -1.04784  -1.04325  -0.96767  -0.95602  -0.87773
 Alpha  occ. eigenvalues --   -0.86182  -0.82435  -0.80399  -0.79186  -0.77487
 Alpha  occ. eigenvalues --   -0.72043  -0.71169  -0.70488  -0.66285  -0.65029
 Alpha  occ. eigenvalues --   -0.64617  -0.62159  -0.61657  -0.60125  -0.58372
 Alpha  occ. eigenvalues --   -0.56080  -0.55268  -0.53406  -0.53183  -0.53104
 Alpha  occ. eigenvalues --   -0.52828  -0.50704  -0.48803  -0.48797  -0.48697
 Alpha  occ. eigenvalues --   -0.47459  -0.46697  -0.46677  -0.44802  -0.44620
 Alpha  occ. eigenvalues --   -0.37354  -0.36371
 Alpha virt. eigenvalues --    0.05042   0.11173   0.16465   0.18413   0.23134
 Alpha virt. eigenvalues --    0.23475   0.24746   0.25333   0.26890   0.28557
 Alpha virt. eigenvalues --    0.29712   0.30814   0.31091   0.31305   0.31776

 Mulliken charges:
               1
     1  C   -0.303966
     2  C   -0.299168
     3  C   -0.477107
     4  H    0.141439
     5  H    0.155918
     6  H    0.146015
     7  H    0.156700
     8  H    0.156366
     9  H    0.156888
    10  H    0.165172
    11  C   -0.302411
    12  C   -0.298590
    13  C   -0.476223
    14  H    0.144015
    15  H    0.156424
    16  H    0.144813
    17  H    0.155667
    18  H    0.158262
    19  H    0.155682
    20  H    0.162504
    21  C   -0.174106
    22  C   -0.218294
    23  C   -0.170972
    24  C    0.158858
    25  C   -0.173845
    26  C   -0.224975
    27  H    0.225898
    28  H    0.223563
    29  H    0.275740
    30  H    0.275847
    31  H    0.236475
    32  N    0.488119
    33  O   -0.460287
    34  O   -0.460421
 Sum of Mulliken charges =  -0.00000

 Dipole moment (field-independent basis, Debye):
    X=              3.9895    Y=             -2.3143    Z=              2.6138  Tot=              5.3013
 Quadrupole moment (field-independent basis, Debye-Ang):
   XX=           -112.8520   YY=            -93.0149   ZZ=            -94.4561
   XY=              8.3664   XZ=             -9.9599   YZ=             -2.3212

 Normal termination of Gaussian 16 at Thu May  6 10:33:08 2021.
