 Gaussian 16, Revision A.03,
 Gaussian 16:  EM64L-G16RevA.03 25-Dec-2016

 -------------
 #p 6-31g* mp2
 -------------

 ------------------------------------------------------
 Input file generated by CHIRIPA (05-May-2021 14:55:22)
 ------------------------------------------------------
 Symbolic Z-matrix:
 Charge =  0 Multiplicity = 1

                         Standard orientation:
 ---------------------------------------------------------------------
 Center     Atomic      Atomic             Coordinates (Angstroms)
 Number     Number       Type             X           Y           Z
 ---------------------------------------------------------------------
      1          6           0        0.512704   -2.597663    0.677570
      2          6           0        0.718667   -2.357377   -0.684914
      3          6           0        1.551041   -1.315321   -1.104223
      4          6           0        2.164340   -0.529618   -0.129633
      5          6           0        1.978981   -0.743932    1.235285
      6          6           0        1.142408   -1.791595    1.631639
      7          1           0       -0.135535   -3.409335    0.994383
      8          1           0        0.230934   -2.981771   -1.428079
      9          1           0        1.728003   -1.107161   -2.152446
     10          1           0        2.478909   -0.104545    1.952692
     11          1           0        0.984290   -1.975884    2.690450
     12          7           0        3.047760    0.576528   -0.561386
     13          8           0        3.576484    1.254413    0.316999
     14          8           0        3.194732    0.744695   -1.770003
     15          6           0       -3.040660    0.321660    0.239931
     16          6           0       -4.213806    0.173347   -0.729460
     17          6           0       -5.118357   -1.010577   -0.386086
     18          1           0       -2.450961   -0.605263    0.236457
     19          1           0       -3.430148    0.440511    1.260503
     20          1           0       -3.822250    0.056197   -1.748075
     21          1           0       -4.800671    1.100802   -0.723821
     22          1           0       -5.536549   -0.896989    0.619306
     23          1           0       -4.552568   -1.947528   -0.410767
     24          1           0       -5.950395   -1.098009   -1.091726
     25          6           0       -2.127319    1.500867   -0.090234
     26          6           0       -0.954174    1.649180    0.879155
     27          6           0       -0.049623    2.833105    0.535781
     28          1           0       -1.737830    1.382017   -1.110808
     29          1           0       -2.717018    2.427791   -0.086761
     30          1           0       -0.367309    0.721724    0.873517
     31          1           0       -1.345729    1.766329    1.897770
     32          1           0       -0.615411    3.770056    0.560462
     33          1           0        0.368569    2.719515   -0.469611
     34          1           0        0.782416    2.920535    1.241421
 ---------------------------------------------------------------------

 SCF Done:  E(RHF) =  -669.534977557     A.U. after   15 cycles
 E2 =    -0.2095049412D+01 EUMP2 =    -0.67163002696843D+03

 The electronic state is 1-A.
 Alpha  occ. eigenvalues --  -20.60878 -20.60870 -15.85921 -11.31306 -11.27908
 Alpha  occ. eigenvalues --  -11.27860 -11.27665 -11.26948 -11.26897 -11.21815
 Alpha  occ. eigenvalues --  -11.21525 -11.21405 -11.21359 -11.21299 -11.20681
 Alpha  occ. eigenvalues --   -1.59941  -1.39495  -1.19522  -1.08895  -1.08470
 Alpha  occ. eigenvalues --   -1.04922  -1.03540  -0.95991  -0.95720  -0.86994
 Alpha  occ. eigenvalues --   -0.86305  -0.82548  -0.79620  -0.78283  -0.77590
 Alpha  occ. eigenvalues --   -0.72141  -0.71275  -0.70607  -0.65158  -0.65129
 Alpha  occ. eigenvalues --   -0.64905  -0.62254  -0.60988  -0.59377  -0.57605
 Alpha  occ. eigenvalues --   -0.55411  -0.55301  -0.53328  -0.52996  -0.52637
 Alpha  occ. eigenvalues --   -0.52404  -0.49929  -0.48902  -0.48895  -0.47914
 Alpha  occ. eigenvalues --   -0.46661  -0.45791  -0.45664  -0.44889  -0.43766
 Alpha  occ. eigenvalues --   -0.37476  -0.36455
 Alpha virt. eigenvalues --    0.04915   0.11086   0.16385   0.21199   0.22739
 Alpha virt. eigenvalues --    0.24105   0.26454   0.27115   0.27329   0.27709
 Alpha virt. eigenvalues --    0.28432   0.30854   0.31243   0.31691   0.31785

 Mulliken charges:
               1
     1  C   -0.170760
     2  C   -0.217981
     3  C   -0.172339
     4  C    0.163513
     5  C   -0.177200
     6  C   -0.215292
     7  H    0.226933
     8  H    0.224426
     9  H    0.276210
    10  H    0.276243
    11  H    0.224855
    12  N    0.489336
    13  O   -0.459635
    14  O   -0.460476
    15  C   -0.298926
    16  C   -0.299463
    17  C   -0.474762
    18  H    0.145759
    19  H    0.148012
    20  H    0.151186
    21  H    0.153732
    22  H    0.155402
    23  H    0.150026
    24  H    0.161122
    25  C   -0.296183
    26  C   -0.310285
    27  C   -0.480557
    28  H    0.149153
    29  H    0.149873
    30  H    0.160962
    31  H    0.147238
    32  H    0.154827
    33  H    0.158538
    34  H    0.166515
 Sum of Mulliken charges =  -0.00000

 Dipole moment (field-independent basis, Debye):
    X=             -2.9384    Y=             -3.9096    Z=              1.5217  Tot=              5.1220
 Quadrupole moment (field-independent basis, Debye-Ang):
   XX=           -109.3241   YY=            -91.1218   ZZ=            -90.2625
   XY=             -7.5399   XZ=              4.5444   YZ=              1.3270

 Normal termination of Gaussian 16 at Thu May  6 12:35:36 2021.
