 Gaussian 16, Revision A.03,
 Gaussian 16:  EM64L-G16RevA.03 25-Dec-2016

 -------------
 #p 6-31g* mp2
 -------------

 ------------------------------------------------------
 Input file generated by CHIRIPA (05-May-2021 14:55:25)
 ------------------------------------------------------
 Symbolic Z-matrix:
 Charge =  0 Multiplicity = 1

                         Standard orientation:
 ---------------------------------------------------------------------
 Center     Atomic      Atomic             Coordinates (Angstroms)
 Number     Number       Type             X           Y           Z
 ---------------------------------------------------------------------
      1          6           0       -4.993699   -1.153668   -0.625814
      2          6           0       -3.829030   -1.245429   -1.394999
      3          6           0       -2.744210   -0.399895   -1.144427
      4          6           0       -2.858813    0.530014   -0.112232
      5          6           0       -4.005753    0.645768    0.671617
      6          6           0       -5.078194   -0.210026    0.403225
      7          1           0       -5.831605   -1.814485   -0.827386
      8          1           0       -3.760596   -1.977325   -2.194806
      9          1           0       -1.830696   -0.449465   -1.724472
     10          1           0       -4.044327    1.385361    1.462143
     11          1           0       -5.981448   -0.136513    1.002203
     12          7           0       -1.716915    1.430574    0.162470
     13          8           0       -1.842908    2.241379    1.077543
     14          8           0       -0.717525    1.308575   -0.542493
     15          6           0        4.299978   -0.184683   -0.373999
     16          6           0        5.710608    0.246526    0.028702
     17          6           0        6.498009    0.852288   -1.133556
     18          1           0        4.366110   -0.913573   -1.193323
     19          1           0        3.757951    0.684424   -0.771811
     20          1           0        6.249354   -0.622836    0.426922
     21          1           0        5.641118    0.974329    0.847292
     22          1           0        5.985235    1.735854   -1.527227
     23          1           0        6.596927    0.129614   -1.949985
     24          1           0        7.503466    1.153581   -0.823492
     25          6           0        3.500370   -0.792188    0.777215
     26          6           0        2.089742   -1.223397    0.374514
     27          6           0        1.302341   -1.829161    1.536772
     28          1           0        4.042398   -1.661295    1.175027
     29          1           0        3.434240   -0.063298    1.596539
     30          1           0        2.159231   -1.951201   -0.444075
     31          1           0        1.550995   -0.354036   -0.023705
     32          1           0        1.203422   -1.106486    2.353202
     33          1           0        1.815114   -2.712726    1.930443
     34          1           0        0.296884   -2.130452    1.226707
 ---------------------------------------------------------------------

 SCF Done:  E(RHF) =  -669.536440072     A.U. after   15 cycles
 E2 =    -0.2091183854D+01 EUMP2 =    -0.67162762392636D+03

 The electronic state is 1-A.
 Alpha  occ. eigenvalues --  -20.60966 -20.60959 -15.85990 -11.31290 -11.27848
 Alpha  occ. eigenvalues --  -11.27845 -11.27585 -11.26854 -11.26844 -11.20961
 Alpha  occ. eigenvalues --  -11.20634 -11.20608 -11.20543 -11.20513 -11.20422
 Alpha  occ. eigenvalues --   -1.60019  -1.39577  -1.19455  -1.08864  -1.07654
 Alpha  occ. eigenvalues --   -1.04848  -1.02804  -0.95710  -0.95291  -0.86310
 Alpha  occ. eigenvalues --   -0.86249  -0.82546  -0.78865  -0.77614  -0.77442
 Alpha  occ. eigenvalues --   -0.72218  -0.71328  -0.70564  -0.65114  -0.64852
 Alpha  occ. eigenvalues --   -0.64268  -0.62195  -0.60185  -0.58666  -0.56901
 Alpha  occ. eigenvalues --   -0.55355  -0.54575  -0.53181  -0.52940  -0.52014
 Alpha  occ. eigenvalues --   -0.51718  -0.49228  -0.48980  -0.48968  -0.47199
 Alpha  occ. eigenvalues --   -0.45916  -0.45173  -0.45010  -0.44617  -0.43061
 Alpha  occ. eigenvalues --   -0.37431  -0.36448
 Alpha virt. eigenvalues --    0.04892   0.11192   0.16358   0.21296   0.23650
 Alpha virt. eigenvalues --    0.24886   0.27185   0.27435   0.27896   0.28616
 Alpha virt. eigenvalues --    0.28659   0.30845   0.31971   0.32148   0.32478

 Mulliken charges:
               1
     1  C   -0.170532
     2  C   -0.218579
     3  C   -0.171015
     4  C    0.158482
     5  C   -0.170687
     6  C   -0.218528
     7  H    0.226022
     8  H    0.223950
     9  H    0.276337
    10  H    0.275800
    11  H    0.223834
    12  N    0.489629
    13  O   -0.458813
    14  O   -0.461266
    15  C   -0.299324
    16  C   -0.299239
    17  C   -0.475488
    18  H    0.145960
    19  H    0.156494
    20  H    0.149407
    21  H    0.152744
    22  H    0.156567
    23  H    0.153254
    24  H    0.158264
    25  C   -0.297231
    26  C   -0.311665
    27  C   -0.474665
    28  H    0.144684
    29  H    0.151845
    30  H    0.143714
    31  H    0.178299
    32  H    0.158069
    33  H    0.151061
    34  H    0.152615
 Sum of Mulliken charges =  -0.00000

 Dipole moment (field-independent basis, Debye):
    X=             -4.2411    Y=             -2.9845    Z=             -0.9958  Tot=              5.2807
 Quadrupole moment (field-independent basis, Debye-Ang):
   XX=            -71.8326   YY=            -97.5727   ZZ=            -92.7419
   XY=              5.6469   XZ=              1.4644   YZ=              2.5070

 Normal termination of Gaussian 16 at Thu May  6 03:13:02 2021.
