 Gaussian 16, Revision A.03,
 Gaussian 16:  EM64L-G16RevA.03 25-Dec-2016

 -------------
 #p 6-31g* mp2
 -------------

 ------------------------------------------------------
 Input file generated by CHIRIPA (05-May-2021 14:57:24)
 ------------------------------------------------------
 Symbolic Z-matrix:
 Charge =  0 Multiplicity = 1

                         Standard orientation:
 ---------------------------------------------------------------------
 Center     Atomic      Atomic             Coordinates (Angstroms)
 Number     Number       Type             X           Y           Z
 ---------------------------------------------------------------------
      1          6           0       -1.630144   -0.164449    2.012012
      2          6           0       -2.679470    0.760344    2.025934
      3          6           0       -3.642573    0.756702    1.012540
      4          6           0       -3.525195   -0.189922   -0.004030
      5          6           0       -2.491452   -1.124229   -0.045731
      6          6           0       -1.539644   -1.102131    0.978046
      7          1           0       -0.886369   -0.154451    2.803273
      8          1           0       -2.752270    1.489705    2.827668
      9          1           0       -4.465274    1.461252    0.998763
     10          1           0       -2.445400   -1.839219   -0.858188
     11          1           0       -0.725808   -1.821531    0.964660
     12          7           0       -4.538810   -0.203547   -1.082361
     13          8           0       -4.413010   -1.047717   -1.966775
     14          8           0       -5.439889    0.630201   -1.022724
     15          6           0        4.412330   -2.098564   -0.007247
     16          6           0        5.169275   -1.009348   -0.451274
     17          6           0        4.595563    0.261933   -0.547441
     18          6           0        3.256223    0.408702   -0.189784
     19          6           0        2.475927   -0.656933    0.256142
     20          6           0        3.070437   -1.919198    0.344424
     21          1           0        4.866082   -3.082624    0.064396
     22          1           0        6.211627   -1.145692   -0.725059
     23          1           0        5.158505    1.122444   -0.888079
     24          1           0        1.439177   -0.489891    0.521969
     25          1           0        2.480166   -2.763288    0.689588
     26          7           0        2.637850    1.749777   -0.287418
     27          8           0        1.455934    1.852802    0.033669
     28          8           0        3.346795    2.672494   -0.683182
 ---------------------------------------------------------------------

 SCF Done:  E(RHF) =  -868.336869272     A.U. after   16 cycles
 E2 =    -0.2600590199D+01 EUMP2 =    -0.87093745947036D+03

 The electronic state is 1-A.
 Alpha  occ. eigenvalues --  -20.61235 -20.61223 -20.60617 -20.60604 -15.86288
 Alpha  occ. eigenvalues --  -15.85672 -11.31743 -11.31063 -11.28368 -11.28285
 Alpha  occ. eigenvalues --  -11.28067 -11.27752 -11.27630 -11.27480 -11.27424
 Alpha  occ. eigenvalues --  -11.27302 -11.26856 -11.26599  -1.60307  -1.59686
 Alpha  occ. eigenvalues --   -1.39858  -1.39240  -1.19925  -1.19265  -1.09296
 Alpha  occ. eigenvalues --   -1.08662  -1.05361  -1.04700  -0.96120  -0.95484
 Alpha  occ. eigenvalues --   -0.86747  -0.86114  -0.82962  -0.82331  -0.78007
 Alpha  occ. eigenvalues --   -0.77365  -0.72504  -0.71897  -0.71634  -0.71037
 Alpha  occ. eigenvalues --   -0.71004  -0.70391  -0.65586  -0.65396  -0.64944
 Alpha  occ. eigenvalues --   -0.64768  -0.62738  -0.62022  -0.55829  -0.55214
 Alpha  occ. eigenvalues --   -0.53662  -0.53505  -0.52928  -0.52810  -0.49271
 Alpha  occ. eigenvalues --   -0.49253  -0.48656  -0.48643  -0.45245  -0.44641
 Alpha  occ. eigenvalues --   -0.37890  -0.37211  -0.36966  -0.36269
 Alpha virt. eigenvalues --    0.04545   0.05218   0.10686   0.11160   0.16031
 Alpha virt. eigenvalues --    0.16681   0.19003   0.22121   0.25066   0.27450
 Alpha virt. eigenvalues --    0.27996   0.29222   0.30146   0.31722   0.32382

 Mulliken charges:
               1
     1  C   -0.162429
     2  C   -0.215128
     3  C   -0.167542
     4  C    0.159150
     5  C   -0.168699
     6  C   -0.220776
     7  H    0.224772
     8  H    0.225877
     9  H    0.276993
    10  H    0.274411
    11  H    0.210140
    12  N    0.488364
    13  O   -0.461555
    14  O   -0.459363
    15  C   -0.169970
    16  C   -0.218546
    17  C   -0.169316
    18  C    0.158089
    19  C   -0.177334
    20  C   -0.220725
    21  H    0.227326
    22  H    0.225759
    23  H    0.277601
    24  H    0.275748
    25  H    0.218655
    26  N    0.487303
    27  O   -0.460633
    28  O   -0.458171
 Sum of Mulliken charges =  -0.00000

 Dipole moment (field-independent basis, Debye):
    X=              5.7282    Y=             -4.4419    Z=              4.1295  Tot=              8.3424
 Quadrupole moment (field-independent basis, Debye-Ang):
   XX=           -110.3363   YY=           -105.9988   ZZ=           -104.7491
   XY=            -16.0765   XZ=            -15.9999   YZ=              1.7745

 Normal termination of Gaussian 16 at Wed May  5 19:27:46 2021.
