 Gaussian 16, Revision A.03,
 Gaussian 16:  EM64L-G16RevA.03 25-Dec-2016

 -------------
 #p 6-31g* mp2
 -------------

 ------------------------------------------------------
 Input file generated by CHIRIPA (05-May-2021 14:55:25)
 ------------------------------------------------------
 Symbolic Z-matrix:
 Charge =  0 Multiplicity = 1

                         Standard orientation:
 ---------------------------------------------------------------------
 Center     Atomic      Atomic             Coordinates (Angstroms)
 Number     Number       Type             X           Y           Z
 ---------------------------------------------------------------------
      1          6           0        1.687207    1.506146    1.293112
      2          6           0        2.002608    0.284772    1.897503
      3          6           0        2.906679   -0.593907    1.293246
      4          6           0        3.479301   -0.217582    0.079255
      5          6           0        3.185345    0.992262   -0.547768
      6          6           0        2.278539    1.855377    0.074554
      7          1           0        0.983841    2.182680    1.769531
      8          1           0        1.544901    0.010930    2.843844
      9          1           0        3.168752   -1.545666    1.739216
     10          1           0        3.657726    1.237586   -1.491214
     11          1           0        2.035471    2.803261   -0.397123
     12          7           0        4.437848   -1.139561   -0.570008
     13          8           0        4.928722   -0.784671   -1.639462
     14          8           0        4.680133   -2.199642    0.002848
     15          6           0       -4.934496   -0.150378   -0.486863
     16          6           0       -5.653268   -1.074182    0.496976
     17          6           0       -7.018714   -1.534653   -0.014215
     18          1           0       -5.567106    0.725273   -0.686827
     19          1           0       -4.811056   -0.672354   -1.445873
     20          1           0       -5.774083   -0.551116    1.454275
     21          1           0       -5.018790   -1.947642    0.694769
     22          1           0       -6.913033   -2.079644   -0.957833
     23          1           0       -7.672617   -0.675184   -0.194011
     24          1           0       -7.515024   -2.194030    0.704644
     25          6           0       -3.568085    0.318387    0.010036
     26          6           0       -2.849313    1.242191   -0.973803
     27          6           0       -1.483867    1.702662   -0.462613
     28          1           0       -3.691526    0.840363    0.969044
     29          1           0       -2.935476   -0.557264    0.209999
     30          1           0       -3.483791    2.115651   -1.171596
     31          1           0       -2.728498    0.719126   -1.931104
     32          1           0       -0.829964    0.843193   -0.282817
     33          1           0       -1.589548    2.247653    0.481006
     34          1           0       -0.987558    2.362039   -1.181472
 ---------------------------------------------------------------------

 SCF Done:  E(RHF) =  -669.535147212     A.U. after   15 cycles
 E2 =    -0.2091828318D+01 EUMP2 =    -0.67162697553047D+03

 The electronic state is 1-A.
 Alpha  occ. eigenvalues --  -20.60741 -20.60736 -15.85796 -11.31146 -11.27735
 Alpha  occ. eigenvalues --  -11.27718 -11.27442 -11.26727 -11.26707 -11.22133
 Alpha  occ. eigenvalues --  -11.21936 -11.21877 -11.21783 -11.21747 -11.21339
 Alpha  occ. eigenvalues --   -1.59818  -1.39372  -1.19331  -1.08879  -1.08719
 Alpha  occ. eigenvalues --   -1.04731  -1.03990  -0.96465  -0.95552  -0.87488
 Alpha  occ. eigenvalues --   -0.86121  -0.82389  -0.80066  -0.78678  -0.77438
 Alpha  occ. eigenvalues --   -0.72014  -0.71143  -0.70427  -0.65500  -0.64977
 Alpha  occ. eigenvalues --   -0.64729  -0.62080  -0.61385  -0.59832  -0.58073
 Alpha  occ. eigenvalues --   -0.55771  -0.55220  -0.53393  -0.53070  -0.52803
 Alpha  occ. eigenvalues --   -0.52665  -0.50377  -0.48772  -0.48769  -0.48370
 Alpha  occ. eigenvalues --   -0.47077  -0.46225  -0.46134  -0.44781  -0.44250
 Alpha  occ. eigenvalues --   -0.37230  -0.36334
 Alpha virt. eigenvalues --    0.05092   0.11274   0.16566   0.20755   0.22505
 Alpha virt. eigenvalues --    0.23947   0.25914   0.26580   0.26709   0.27500
 Alpha virt. eigenvalues --    0.28779   0.29696   0.31234   0.31663   0.32156

 Mulliken charges:
               1
     1  C   -0.166842
     2  C   -0.220838
     3  C   -0.171142
     4  C    0.157948
     5  C   -0.171721
     6  C   -0.216797
     7  H    0.227464
     8  H    0.223405
     9  H    0.275420
    10  H    0.275408
    11  H    0.223798
    12  N    0.488132
    13  O   -0.460602
    14  O   -0.460718
    15  C   -0.298614
    16  C   -0.299934
    17  C   -0.475957
    18  H    0.150076
    19  H    0.151278
    20  H    0.151157
    21  H    0.152459
    22  H    0.156263
    23  H    0.155408
    24  H    0.161030
    25  C   -0.298671
    26  C   -0.300282
    27  C   -0.478942
    28  H    0.147248
    29  H    0.150453
    30  H    0.152267
    31  H    0.155189
    32  H    0.164036
    33  H    0.145908
    34  H    0.156713
 Sum of Mulliken charges =  -0.00000

 Dipole moment (field-independent basis, Debye):
    X=             -3.4551    Y=              3.2131    Z=              2.2626  Tot=              5.2327
 Quadrupole moment (field-independent basis, Debye-Ang):
   XX=           -119.7002   YY=            -94.1376   ZZ=            -91.7325
   XY=             12.0141   XZ=              6.9417   YZ=             -2.7705

 Normal termination of Gaussian 16 at Thu May  6 12:44:36 2021.
