 Gaussian 16, Revision A.03,
 Gaussian 16:  EM64L-G16RevA.03 25-Dec-2016

 -------------
 #p 6-31g* mp2
 -------------

 ------------------------------------------------------
 Input file generated by CHIRIPA (05-May-2021 14:53:11)
 ------------------------------------------------------
 Symbolic Z-matrix:
 Charge =  0 Multiplicity = 1

                         Standard orientation:
 ---------------------------------------------------------------------
 Center     Atomic      Atomic             Coordinates (Angstroms)
 Number     Number       Type             X           Y           Z
 ---------------------------------------------------------------------
      1          6           0        3.456234    0.939067   -0.292558
      2          6           0        3.154034    1.827532    0.914624
      3          6           0        2.247622    3.008814    0.567083
      4          1           0        3.927425    1.546049   -1.077732
      5          1           0        2.510837    0.566445   -0.710615
      6          1           0        4.099792    2.197252    1.331117
      7          1           0        2.683682    1.218324    1.697089
      8          1           0        1.289486    2.656010    0.171982
      9          1           0        2.713641    3.640499   -0.196069
     10          1           0        2.044472    3.630706    1.444488
     11          6           0        4.361241   -0.246167    0.038970
     12          6           0        4.663441   -1.134632   -1.168213
     13          6           0        5.569853   -2.315913   -0.820671
     14          1           0        5.306638    0.126455    0.457027
     15          1           0        3.890050   -0.853148    0.824144
     16          1           0        5.133793   -0.525424   -1.950677
     17          1           0        3.717683   -1.504351   -1.584705
     18          1           0        5.103834   -2.947599   -0.057520
     19          1           0        6.527990   -1.963109   -0.425570
     20          1           0        5.773003   -2.937806   -1.698076
     21          6           0       -1.064210   -0.975424    1.481506
     22          6           0       -2.257367   -1.702149    1.550553
     23          6           0       -3.366068   -1.320791    0.789043
     24          6           0       -3.246038   -0.202530   -0.034592
     25          6           0       -2.070971    0.541993   -0.125109
     26          6           0       -0.974978    0.142358    0.645369
     27          1           0       -0.207880   -1.278770    2.076548
     28          1           0       -2.329544   -2.570657    2.199035
     29          1           0       -4.301863   -1.865337    0.823328
     30          1           0       -2.029355    1.403293   -0.780737
     31          1           0       -0.049624    0.708636    0.589738
     32          7           0       -4.413044    0.210871   -0.845515
     33          8           0       -4.281687    1.199834   -1.563382
     34          8           0       -5.437002   -0.461898   -0.747896
 ---------------------------------------------------------------------

 SCF Done:  E(RHF) =  -669.535333159     A.U. after   15 cycles
 E2 =    -0.2091544513D+01 EUMP2 =    -0.67162687767225D+03

 The electronic state is 1-A.
 Alpha  occ. eigenvalues --  -20.60750 -20.60745 -15.85804 -11.31176 -11.27748
 Alpha  occ. eigenvalues --  -11.27740 -11.27494 -11.26765 -11.26732 -11.22644
 Alpha  occ. eigenvalues --  -11.22315 -11.22237 -11.22159 -11.22132 -11.21616
 Alpha  occ. eigenvalues --   -1.59826  -1.39379  -1.19349  -1.09297  -1.08743
 Alpha  occ. eigenvalues --   -1.04757  -1.04365  -0.96808  -0.95578  -0.87821
 Alpha  occ. eigenvalues --   -0.86154  -0.82413  -0.80427  -0.79079  -0.77459
 Alpha  occ. eigenvalues --   -0.72022  -0.71149  -0.70462  -0.66023  -0.65002
 Alpha  occ. eigenvalues --   -0.64740  -0.62246  -0.61617  -0.60172  -0.58400
 Alpha  occ. eigenvalues --   -0.56130  -0.55249  -0.53481  -0.53235  -0.53080
 Alpha  occ. eigenvalues --   -0.52824  -0.50766  -0.48803  -0.48777  -0.48705
 Alpha  occ. eigenvalues --   -0.47483  -0.46613  -0.46542  -0.44783  -0.44608
 Alpha  occ. eigenvalues --   -0.37332  -0.36355
 Alpha virt. eigenvalues --    0.05079   0.11263   0.16554   0.18369   0.22775
 Alpha virt. eigenvalues --    0.23609   0.25457   0.25580   0.27009   0.28466
 Alpha virt. eigenvalues --    0.28912   0.30395   0.30905   0.31158   0.31976

 Mulliken charges:
               1
     1  C   -0.300663
     2  C   -0.302287
     3  C   -0.477629
     4  H    0.154641
     5  H    0.145651
     6  H    0.158060
     7  H    0.145064
     8  H    0.146194
     9  H    0.162095
    10  H    0.165283
    11  C   -0.297483
    12  C   -0.300543
    13  C   -0.475972
    14  H    0.152247
    15  H    0.145538
    16  H    0.154291
    17  H    0.152757
    18  H    0.154171
    19  H    0.156341
    20  H    0.162760
    21  C   -0.172653
    22  C   -0.218398
    23  C   -0.171132
    24  C    0.158806
    25  C   -0.173221
    26  C   -0.228054
    27  H    0.225536
    28  H    0.223302
    29  H    0.275605
    30  H    0.275508
    31  H    0.236944
    32  N    0.488089
    33  O   -0.460271
    34  O   -0.460577
 Sum of Mulliken charges =  -0.00000

 Dipole moment (field-independent basis, Debye):
    X=              4.3385    Y=             -1.3988    Z=              2.8151  Tot=              5.3576
 Quadrupole moment (field-independent basis, Debye-Ang):
   XX=           -119.3105   YY=            -91.6495   ZZ=            -94.8840
   XY=              7.6104   XZ=            -11.0246   YZ=             -2.2205

 Normal termination of Gaussian 16 at Thu May  6 04:03:51 2021.
