 Gaussian 16, Revision A.03,
 Gaussian 16:  EM64L-G16RevA.03 25-Dec-2016

 -------------
 #p 6-31g* mp2
 -------------

 ------------------------------------------------------
 Input file generated by CHIRIPA (05-May-2021 14:55:20)
 ------------------------------------------------------
 Symbolic Z-matrix:
 Charge =  0 Multiplicity = 1

                         Standard orientation:
 ---------------------------------------------------------------------
 Center     Atomic      Atomic             Coordinates (Angstroms)
 Number     Number       Type             X           Y           Z
 ---------------------------------------------------------------------
      1          6           0        0.696176    0.008509   -0.218352
      2          6           0        1.274327   -1.150821    0.309110
      3          6           0        2.663714   -1.268298    0.410846
      4          6           0        3.448446   -0.202317   -0.026384
      5          6           0        2.902301    0.965611   -0.556441
      6          6           0        1.510572    1.061169   -0.648685
      7          1           0       -0.384043    0.091254   -0.293696
      8          1           0        0.644323   -1.969921    0.644097
      9          1           0        3.137665   -2.154467    0.815189
     10          1           0        3.556313    1.765377   -0.882110
     11          1           0        1.064336    1.962709   -1.058739
     12          7           0        4.920567   -0.315082    0.076295
     13          8           0        5.589972    0.638193   -0.315880
     14          8           0        5.377137   -1.354607    0.547006
     15          6           0       -3.501093    0.697792   -0.025698
     16          6           0       -3.751418    2.115337    0.489947
     17          6           0       -2.537155    3.028968    0.320732
     18          1           0       -2.640374    0.268121    0.504858
     19          1           0       -3.221909    0.745277   -1.087393
     20          1           0       -4.031394    2.065085    1.549995
     21          1           0       -4.611762    2.541613   -0.041763
     22          1           0       -2.259299    3.108812   -0.735214
     23          1           0       -1.675633    2.629577    0.865588
     24          1           0       -2.738061    4.037322    0.695858
     25          6           0       -4.705813   -0.227439    0.136563
     26          6           0       -4.455488   -1.644984   -0.379081
     27          6           0       -5.669752   -2.558615   -0.209867
     28          1           0       -4.984996   -0.274923    1.198258
     29          1           0       -5.566532    0.202232   -0.393992
     30          1           0       -3.595145   -2.071259    0.152628
     31          1           0       -4.175512   -1.594731   -1.439130
     32          1           0       -6.531273   -2.159223   -0.754723
     33          1           0       -5.947608   -2.638460    0.846079
     34          1           0       -5.468845   -3.566970   -0.584992
 ---------------------------------------------------------------------

 SCF Done:  E(RHF) =  -669.535772132     A.U. after   15 cycles
 E2 =    -0.2091604312D+01 EUMP2 =    -0.67162737644413D+03

 The electronic state is 1-A.
 Alpha  occ. eigenvalues --  -20.60697 -20.60692 -15.85751 -11.31097 -11.27669
 Alpha  occ. eigenvalues --  -11.27661 -11.27327 -11.26668 -11.26648 -11.22700
 Alpha  occ. eigenvalues --  -11.22637 -11.22545 -11.22365 -11.22195 -11.21813
 Alpha  occ. eigenvalues --   -1.59774  -1.39328  -1.19264  -1.09511  -1.08654
 Alpha  occ. eigenvalues --   -1.04667  -1.04525  -0.96987  -0.95495  -0.87999
 Alpha  occ. eigenvalues --   -0.86059  -0.82336  -0.80602  -0.79365  -0.77387
 Alpha  occ. eigenvalues --   -0.71968  -0.71097  -0.70362  -0.66128  -0.64911
 Alpha  occ. eigenvalues --   -0.64667  -0.62018  -0.61907  -0.60355  -0.58607
 Alpha  occ. eigenvalues --   -0.56284  -0.55176  -0.53628  -0.53406  -0.52994
 Alpha  occ. eigenvalues --   -0.52751  -0.50921  -0.48906  -0.48726  -0.48724
 Alpha  occ. eigenvalues --   -0.47628  -0.46852  -0.46785  -0.44804  -0.44738
 Alpha  occ. eigenvalues --   -0.37230  -0.36277
 Alpha virt. eigenvalues --    0.05135   0.11352   0.16582   0.19666   0.22393
 Alpha virt. eigenvalues --    0.23411   0.24927   0.25870   0.26220   0.28201
 Alpha virt. eigenvalues --    0.29650   0.30016   0.30626   0.31162   0.31389

 Mulliken charges:
               1
     1  C   -0.179255
     2  C   -0.221465
     3  C   -0.170817
     4  C    0.158167
     5  C   -0.170802
     6  C   -0.222068
     7  H    0.239134
     8  H    0.222722
     9  H    0.275166
    10  H    0.275256
    11  H    0.224935
    12  N    0.488039
    13  O   -0.460664
    14  O   -0.460763
    15  C   -0.305592
    16  C   -0.299102
    17  C   -0.480764
    18  H    0.144121
    19  H    0.149038
    20  H    0.156076
    21  H    0.156428
    22  H    0.152196
    23  H    0.154262
    24  H    0.166805
    25  C   -0.297709
    26  C   -0.300142
    27  C   -0.476270
    28  H    0.152636
    29  H    0.153703
    30  H    0.147168
    31  H    0.152764
    32  H    0.157500
    33  H    0.156881
    34  H    0.162414
 Sum of Mulliken charges =  -0.00000

 Dipole moment (field-independent basis, Debye):
    X=             -5.5192    Y=              0.4509    Z=             -0.3389  Tot=              5.5479
 Quadrupole moment (field-independent basis, Debye-Ang):
   XX=           -130.3641   YY=            -91.0082   ZZ=            -93.8282
   XY=              2.1289   XZ=             -1.0910   YZ=             -2.1574

 Normal termination of Gaussian 16 at Wed May  5 23:46:02 2021.
