 Gaussian 16, Revision A.03,
 Gaussian 16:  EM64L-G16RevA.03 25-Dec-2016

 -------------
 #p 6-31g* mp2
 -------------

 ------------------------------------------------------
 Input file generated by CHIRIPA (05-May-2021 14:53:18)
 ------------------------------------------------------
 Symbolic Z-matrix:
 Charge =  0 Multiplicity = 1

                         Standard orientation:
 ---------------------------------------------------------------------
 Center     Atomic      Atomic             Coordinates (Angstroms)
 Number     Number       Type             X           Y           Z
 ---------------------------------------------------------------------
      1          6           0       -5.624269   -0.341220    0.303485
      2          6           0       -6.638353   -0.463603   -0.834337
      3          6           0       -7.765180   -1.447666   -0.518619
      4          1           0       -5.199218   -1.331854    0.515433
      5          1           0       -6.145280   -0.022687    1.216983
      6          1           0       -6.115362   -0.780474   -1.745759
      7          1           0       -7.060899    0.527470   -1.043731
      8          1           0       -8.312611   -1.132489    0.375574
      9          1           0       -7.361703   -2.447864   -0.330443
     10          1           0       -8.478679   -1.519692   -1.345415
     11          6           0       -4.491724    0.638910    0.002795
     12          6           0       -3.477639    0.761294    1.140617
     13          6           0       -2.350813    1.745356    0.824899
     14          1           0       -3.970713    0.320377   -0.910704
     15          1           0       -4.916775    1.629544   -0.209154
     16          1           0       -3.055094   -0.229780    1.350010
     17          1           0       -4.000631    1.078164    2.052039
     18          1           0       -2.754290    2.745554    0.636722
     19          1           0       -1.803381    1.430179   -0.069295
     20          1           0       -1.637314    1.817382    1.651695
     21          6           0        1.518474    0.506468   -0.360873
     22          6           0        2.513897    1.408580   -0.750549
     23          6           0        3.865208    1.074173   -0.621411
     24          6           0        4.186782   -0.176490   -0.096319
     25          6           0        3.218078   -1.096905    0.300846
     26          6           0        1.873115   -0.741196    0.162657
     27          1           0        0.471209    0.774519   -0.464707
     28          1           0        2.241415    2.378233   -1.157453
     29          1           0        4.656180    1.753482   -0.915214
     30          1           0        3.520658   -2.056112    0.703071
     31          1           0        1.102189   -1.443786    0.466110
     32          7           0        5.613993   -0.541789    0.045185
     33          8           0        5.871163   -1.649866    0.510658
     34          8           0        6.448449    0.286885   -0.312058
 ---------------------------------------------------------------------

 SCF Done:  E(RHF) =  -669.535507226     A.U. after   15 cycles
 E2 =    -0.2090749014D+01 EUMP2 =    -0.67162625623948D+03

 The electronic state is 1-A.
 Alpha  occ. eigenvalues --  -20.60719 -20.60714 -15.85773 -11.31125 -11.27700
 Alpha  occ. eigenvalues --  -11.27695 -11.27391 -11.26704 -11.26691 -11.22584
 Alpha  occ. eigenvalues --  -11.22323 -11.22203 -11.22156 -11.22029 -11.21531
 Alpha  occ. eigenvalues --   -1.59795  -1.39349  -1.19297  -1.09202  -1.08689
 Alpha  occ. eigenvalues --   -1.04701  -1.04328  -0.96793  -0.95527  -0.87814
 Alpha  occ. eigenvalues --   -0.86096  -0.82365  -0.80399  -0.78975  -0.77415
 Alpha  occ. eigenvalues --   -0.71991  -0.71119  -0.70416  -0.65835  -0.64947
 Alpha  occ. eigenvalues --   -0.64707  -0.62052  -0.61738  -0.60167  -0.58378
 Alpha  occ. eigenvalues --   -0.56206  -0.55123  -0.53474  -0.53198  -0.53027
 Alpha  occ. eigenvalues --   -0.52792  -0.50724  -0.48756  -0.48746  -0.48698
 Alpha  occ. eigenvalues --   -0.47424  -0.46525  -0.46428  -0.44757  -0.44560
 Alpha  occ. eigenvalues --   -0.37267  -0.36311
 Alpha virt. eigenvalues --    0.05121   0.11345   0.16604   0.19869   0.22434
 Alpha virt. eigenvalues --    0.23737   0.25457   0.26178   0.26917   0.27410
 Alpha virt. eigenvalues --    0.28821   0.30334   0.30849   0.31296   0.32237

 Mulliken charges:
               1
     1  C   -0.298754
     2  C   -0.300148
     3  C   -0.476093
     4  H    0.149683
     5  H    0.151283
     6  H    0.152007
     7  H    0.152889
     8  H    0.156112
     9  H    0.155609
    10  H    0.161846
    11  C   -0.298818
    12  C   -0.299357
    13  C   -0.481861
    14  H    0.147970
    15  H    0.151716
    16  H    0.150205
    17  H    0.156741
    18  H    0.161152
    19  H    0.145866
    20  H    0.163632
    21  C   -0.176065
    22  C   -0.221434
    23  C   -0.170730
    24  C    0.158143
    25  C   -0.170762
    26  C   -0.221700
    27  H    0.236510
    28  H    0.223832
    29  H    0.275368
    30  H    0.275296
    31  H    0.223122
    32  N    0.488015
    33  O   -0.460672
    34  O   -0.460602
 Sum of Mulliken charges =  -0.00000

 Dipole moment (field-independent basis, Debye):
    X=             -5.2930    Y=              1.3262    Z=             -0.4476  Tot=              5.4749
 Quadrupole moment (field-independent basis, Debye-Ang):
   XX=           -136.7158   YY=            -91.1804   ZZ=            -94.4987
   XY=              6.5672   XZ=             -2.5004   YZ=             -1.5519

 Normal termination of Gaussian 16 at Thu May  6 10:44:21 2021.
