 Gaussian 16, Revision A.03,
 Gaussian 16:  EM64L-G16RevA.03 25-Dec-2016

 -------------
 #p 6-31g* mp2
 -------------

 ------------------------------------------------------
 Input file generated by CHIRIPA (05-May-2021 14:51:11)
 ------------------------------------------------------
 Symbolic Z-matrix:
 Charge =  0 Multiplicity = 1

                         Standard orientation:
 ---------------------------------------------------------------------
 Center     Atomic      Atomic             Coordinates (Angstroms)
 Number     Number       Type             X           Y           Z
 ---------------------------------------------------------------------
      1          6           0        1.948513    0.809298   -0.270152
      2          6           0        2.345405    2.282779   -0.366661
      3          6           0        1.188631    3.228971   -0.043566
      4          1           0        1.112180    0.615748   -0.955740
      5          1           0        1.576498    0.602567    0.742894
      6          1           0        2.717858    2.486346   -1.378815
      7          1           0        3.181016    2.472800    0.319096
      8          1           0        0.820763    3.054706    0.972754
      9          1           0        0.354974    3.068329   -0.734804
     10          1           0        1.494411    4.277172   -0.118615
     11          6           0        3.094340   -0.148969   -0.590357
     12          6           0        2.697448   -1.622451   -0.493847
     13          6           0        3.854222   -2.568642   -0.816942
     14          1           0        3.466356    0.057762   -1.603403
     15          1           0        3.930673    0.044580    0.095231
     16          1           0        1.861837   -1.812472   -1.179604
     17          1           0        2.324995   -1.826017    0.518306
     18          1           0        4.687880   -2.408000   -0.125704
     19          1           0        4.222090   -2.394377   -1.833262
     20          1           0        3.548443   -3.616844   -0.741894
     21          6           0       -1.839088   -0.184128    0.740930
     22          6           0       -1.721809   -0.649242    2.192791
     23          6           0       -0.351033   -0.350099    2.800474
     24          1           0       -1.056940   -0.670836    0.142344
     25          1           0       -1.643222    0.895995    0.692286
     26          1           0       -1.919200   -1.727912    2.238871
     27          1           0       -2.504447   -0.161517    2.787953
     28          1           0       -0.148717    0.725722    2.783798
     29          1           0        0.439856   -0.849574    2.231597
     30          1           0       -0.289113   -0.690897    3.838686
     31          6           0       -3.203766   -0.476201    0.119579
     32          6           0       -3.321044   -0.011087   -1.332282
     33          6           0       -4.691821   -0.310230   -1.939966
     34          1           0       -3.399631   -1.556324    0.168222
     35          1           0       -3.985913    0.010507    0.718165
     36          1           0       -2.538406   -0.498812   -1.927445
     37          1           0       -3.123654    1.067583   -1.378363
     38          1           0       -5.482709    0.189245   -1.371088
     39          1           0       -4.894137   -1.386050   -1.923289
     40          1           0       -4.753741    0.030568   -2.978177
 ---------------------------------------------------------------------

 SCF Done:  E(RHF) =  -470.732292091     A.U. after   11 cycles
 E2 =    -0.1585078406D+01 EUMP2 =    -0.47231737049645D+03

 The electronic state is 1-A.
 Alpha  occ. eigenvalues --  -11.21649 -11.21604 -11.21598 -11.21543 -11.21360
 Alpha  occ. eigenvalues --  -11.21344 -11.21279 -11.21187 -11.21099 -11.21097
 Alpha  occ. eigenvalues --  -11.21071 -11.21065  -1.08452  -1.08350  -1.03547
 Alpha  occ. eigenvalues --   -1.03508  -0.95997  -0.95948  -0.87013  -0.86974
 Alpha  occ. eigenvalues --   -0.79675  -0.79557  -0.78486  -0.77907  -0.65057
 Alpha  occ. eigenvalues --   -0.65028  -0.60996  -0.60868  -0.59392  -0.59288
 Alpha  occ. eigenvalues --   -0.57659  -0.57528  -0.55349  -0.55174  -0.52692
 Alpha  occ. eigenvalues --   -0.52666  -0.52470  -0.52366  -0.49964  -0.49878
 Alpha  occ. eigenvalues --   -0.48127  -0.47857  -0.46739  -0.46542  -0.46268
 Alpha  occ. eigenvalues --   -0.45686  -0.45552  -0.44991  -0.43774  -0.43743
 Alpha virt. eigenvalues --    0.20757   0.22363   0.23081   0.23794   0.24942
 Alpha virt. eigenvalues --    0.25972   0.26433   0.28101   0.28908   0.29687
 Alpha virt. eigenvalues --    0.30676   0.31114   0.31625   0.31813   0.32525

 Mulliken charges:
               1
     1  C   -0.308280
     2  C   -0.299107
     3  C   -0.477201
     4  H    0.151196
     5  H    0.161533
     6  H    0.151362
     7  H    0.151473
     8  H    0.155192
     9  H    0.155662
    10  H    0.160056
    11  C   -0.297805
    12  C   -0.303688
    13  C   -0.475480
    14  H    0.149111
    15  H    0.149296
    16  H    0.151440
    17  H    0.153965
    18  H    0.155520
    19  H    0.155522
    20  H    0.160091
    21  C   -0.302925
    22  C   -0.299027
    23  C   -0.483231
    24  H    0.154081
    25  H    0.151901
    26  H    0.151798
    27  H    0.151799
    28  H    0.155729
    29  H    0.160638
    30  H    0.160573
    31  C   -0.298249
    32  C   -0.299621
    33  C   -0.475605
    34  H    0.149261
    35  H    0.149450
    36  H    0.151192
    37  H    0.151760
    38  H    0.155316
    39  H    0.155203
    40  H    0.160099
 Sum of Mulliken charges =  -0.00000

 Dipole moment (field-independent basis, Debye):
    X=             -0.0015    Y=             -0.0096    Z=              0.0181  Tot=              0.0206
 Quadrupole moment (field-independent basis, Debye-Ang):
   XX=            -86.1089   YY=            -84.7083   ZZ=            -84.1394
   XY=              0.0999   XZ=             -0.1946   YZ=              0.0445

 Normal termination of Gaussian 16 at Wed May  5 15:15:18 2021.
