 Gaussian 16, Revision A.03,
 Gaussian 16:  EM64L-G16RevA.03 25-Dec-2016

 -------------
 #p 6-31g* mp2
 -------------

 ------------------------------------------------------
 Input file generated by CHIRIPA (05-May-2021 14:53:16)
 ------------------------------------------------------
 Symbolic Z-matrix:
 Charge =  0 Multiplicity = 1

                         Standard orientation:
 ---------------------------------------------------------------------
 Center     Atomic      Atomic             Coordinates (Angstroms)
 Number     Number       Type             X           Y           Z
 ---------------------------------------------------------------------
      1          6           0       -2.650489    1.253383   -0.197349
      2          6           0       -1.747175    2.013899    0.774055
      3          6           0       -0.845062    3.028748    0.071154
      4          1           0       -2.027091    0.738600   -0.941203
      5          1           0       -3.268841    1.972826   -0.751820
      6          1           0       -1.131698    1.293146    1.327514
      7          1           0       -2.372788    2.526776    1.515797
      8          1           0       -1.445021    3.769878   -0.466783
      9          1           0       -0.196879    2.529238   -0.656135
     10          1           0       -0.207813    3.561020    0.784218
     11          6           0       -3.558250    0.235172    0.490360
     12          6           0       -4.461563   -0.525344   -0.481044
     13          6           0       -5.363676   -1.540192    0.221856
     14          1           0       -2.939898   -0.484271    1.044830
     15          1           0       -4.181647    0.749955    1.234213
     16          1           0       -3.835951   -1.038221   -1.222787
     17          1           0       -5.077041    0.195409   -1.034504
     18          1           0       -6.011860   -1.040683    0.949146
     19          1           0       -4.763717   -2.281322    0.759793
     20          1           0       -6.000926   -2.072464   -0.491207
     21          6           0        4.276850    1.123284    0.062933
     22          6           0        4.405616   -0.118275    0.694179
     23          6           0        3.386059   -1.070468    0.602632
     24          6           0        2.246287   -0.746276   -0.131606
     25          6           0        2.088405    0.481954   -0.771775
     26          6           0        3.120694    1.418915   -0.666742
     27          1           0        5.073811    1.857054    0.139287
     28          1           0        5.302380   -0.350608    1.261524
     29          1           0        3.459637   -2.039377    1.081402
     30          1           0        1.182640    0.684661   -1.330272
     31          1           0        3.017956    2.382316   -1.158015
     32          7           0        1.160188   -1.746257   -0.235661
     33          8           0        0.166030   -1.436249   -0.888487
     34          8           0        1.323627   -2.821117    0.337577
 ---------------------------------------------------------------------

 SCF Done:  E(RHF) =  -669.535777585     A.U. after   15 cycles
 E2 =    -0.2092649894D+01 EUMP2 =    -0.67162842747885D+03

 The electronic state is 1-A.
 Alpha  occ. eigenvalues --  -20.60958 -20.60952 -15.85991 -11.31280 -11.27840
 Alpha  occ. eigenvalues --  -11.27830 -11.27567 -11.26843 -11.26825 -11.21349
 Alpha  occ. eigenvalues --  -11.21240 -11.20760 -11.20736 -11.20590 -11.20300
 Alpha  occ. eigenvalues --   -1.60018  -1.39574  -1.19447  -1.08855  -1.07824
 Alpha  occ. eigenvalues --   -1.04841  -1.03049  -0.95706  -0.95516  -0.86555
 Alpha  occ. eigenvalues --   -0.86239  -0.82537  -0.79132  -0.77658  -0.77524
 Alpha  occ. eigenvalues --   -0.72216  -0.71334  -0.70569  -0.65105  -0.64871
 Alpha  occ. eigenvalues --   -0.64411  -0.62232  -0.60413  -0.58929  -0.57112
 Alpha  occ. eigenvalues --   -0.55366  -0.54807  -0.53154  -0.52930  -0.52265
 Alpha  occ. eigenvalues --   -0.51949  -0.49496  -0.48962  -0.48945  -0.47445
 Alpha  occ. eigenvalues --   -0.46124  -0.45215  -0.45011  -0.44889  -0.43249
 Alpha  occ. eigenvalues --   -0.37422  -0.36414
 Alpha virt. eigenvalues --    0.04893   0.11174   0.16371   0.20241   0.23276
 Alpha virt. eigenvalues --    0.24471   0.26113   0.27238   0.27786   0.28427
 Alpha virt. eigenvalues --    0.29510   0.30835   0.31558   0.31881   0.32527

 Mulliken charges:
               1
     1  C   -0.303603
     2  C   -0.299227
     3  C   -0.474628
     4  H    0.163975
     5  H    0.144567
     6  H    0.153229
     7  H    0.151381
     8  H    0.156146
     9  H    0.142528
    10  H    0.157938
    11  C   -0.297552
    12  C   -0.301135
    13  C   -0.476035
    14  H    0.157045
    15  H    0.144519
    16  H    0.161518
    17  H    0.147080
    18  H    0.151424
    19  H    0.158987
    20  H    0.158438
    21  C   -0.170734
    22  C   -0.218499
    23  C   -0.170941
    24  C    0.157645
    25  C   -0.171423
    26  C   -0.218365
    27  H    0.226077
    28  H    0.223783
    29  H    0.275656
    30  H    0.278199
    31  H    0.224919
    32  N    0.489548
    33  O   -0.463384
    34  O   -0.459073
 Sum of Mulliken charges =  -0.00000

 Dipole moment (field-independent basis, Debye):
    X=              3.9360    Y=              3.3440    Z=              0.3612  Tot=              5.1773
 Quadrupole moment (field-independent basis, Debye-Ang):
   XX=            -76.9460   YY=            -98.8289   ZZ=            -94.0495
   XY=              2.5313   XZ=              2.3909   YZ=             -2.4536

 Normal termination of Gaussian 16 at Thu May  6 01:10:45 2021.
