 Gaussian 16, Revision A.03,
 Gaussian 16:  EM64L-G16RevA.03 25-Dec-2016

 -------------
 #p 6-31g* mp2
 -------------

 ------------------------------------------------------
 Input file generated by CHIRIPA (05-May-2021 14:53:13)
 ------------------------------------------------------
 Symbolic Z-matrix:
 Charge =  0 Multiplicity = 1

                         Standard orientation:
 ---------------------------------------------------------------------
 Center     Atomic      Atomic             Coordinates (Angstroms)
 Number     Number       Type             X           Y           Z
 ---------------------------------------------------------------------
      1          6           0        2.786943    1.102794    0.122930
      2          6           0        3.429291    2.401312   -0.366176
      3          6           0        2.542241    3.624449   -0.131928
      4          1           0        1.824241    0.962489   -0.387427
      5          1           0        2.562194    1.194061    1.194635
      6          1           0        3.654026    2.307113   -1.436333
      7          1           0        4.390665    2.538445    0.145263
      8          1           0        2.328123    3.746441    0.934783
      9          1           0        1.587298    3.513794   -0.655800
     10          1           0        3.020770    4.541722   -0.488972
     11          6           0        3.661646   -0.128863   -0.104321
     12          6           0        3.019298   -1.427382    0.384785
     13          6           0        3.906348   -2.650519    0.150537
     14          1           0        3.886395   -0.220130   -1.176027
     15          1           0        4.624348    0.011442    0.406036
     16          1           0        2.057924   -1.564514   -0.126654
     17          1           0        2.794563   -1.333182    1.454942
     18          1           0        4.861291   -2.539864    0.674409
     19          1           0        4.120466   -2.772510   -0.916174
     20          1           0        3.427819   -3.567791    0.507581
     21          6           0       -4.387050    1.297863    0.236726
     22          6           0       -3.642944    0.911011    1.356178
     23          6           0       -2.605637   -0.018131    1.232748
     24          6           0       -2.338382   -0.542694   -0.030857
     25          6           0       -3.061773   -0.177244   -1.165072
     26          6           0       -4.094605    0.753460   -1.018114
     27          1           0       -5.191116    2.020250    0.341748
     28          1           0       -3.867830    1.332152    2.331941
     29          1           0       -2.013710   -0.335248    2.082735
     30          1           0       -2.814093   -0.614443   -2.124723
     31          1           0       -4.670825    1.052046   -1.889241
     32          7           0       -1.242600   -1.527162   -0.173981
     33          8           0       -1.026990   -1.974625   -1.298226
     34          8           0       -0.620085   -1.832686    0.840793
 ---------------------------------------------------------------------

 SCF Done:  E(RHF) =  -669.536257299     A.U. after   15 cycles
 E2 =    -0.2091664234D+01 EUMP2 =    -0.67162792153382D+03

 The electronic state is 1-A.
 Alpha  occ. eigenvalues --  -20.60991 -20.60969 -15.85997 -11.31309 -11.27869
 Alpha  occ. eigenvalues --  -11.27862 -11.27602 -11.26869 -11.26858 -11.21105
 Alpha  occ. eigenvalues --  -11.20778 -11.20679 -11.20367 -11.20019 -11.19775
 Alpha  occ. eigenvalues --   -1.60036  -1.39590  -1.19473  -1.08880  -1.07551
 Alpha  occ. eigenvalues --   -1.04865  -1.02603  -0.95723  -0.95127  -0.86266
 Alpha  occ. eigenvalues --   -0.86154  -0.82558  -0.78723  -0.77614  -0.77257
 Alpha  occ. eigenvalues --   -0.72206  -0.71350  -0.70580  -0.65126  -0.64869
 Alpha  occ. eigenvalues --   -0.64192  -0.62212  -0.60003  -0.58537  -0.56682
 Alpha  occ. eigenvalues --   -0.55371  -0.54444  -0.53198  -0.52956  -0.51832
 Alpha  occ. eigenvalues --   -0.51542  -0.49164  -0.48982  -0.48974  -0.47006
 Alpha  occ. eigenvalues --   -0.45769  -0.45152  -0.44739  -0.44524  -0.42875
 Alpha  occ. eigenvalues --   -0.37448  -0.36464
 Alpha virt. eigenvalues --    0.04886   0.11191   0.16391   0.21326   0.23605
 Alpha virt. eigenvalues --    0.25244   0.27242   0.27428   0.28033   0.28479
 Alpha virt. eigenvalues --    0.28779   0.30927   0.32235   0.32414   0.32585

 Mulliken charges:
               1
     1  C   -0.295540
     2  C   -0.298820
     3  C   -0.474870
     4  H    0.147179
     5  H    0.147426
     6  H    0.151483
     7  H    0.151016
     8  H    0.153083
     9  H    0.152794
    10  H    0.158291
    11  C   -0.298569
    12  C   -0.303363
    13  C   -0.475442
    14  H    0.147434
    15  H    0.144738
    16  H    0.174895
    17  H    0.149793
    18  H    0.147696
    19  H    0.152246
    20  H    0.163678
    21  C   -0.170426
    22  C   -0.218518
    23  C   -0.170276
    24  C    0.159115
    25  C   -0.170995
    26  C   -0.218612
    27  H    0.226123
    28  H    0.223970
    29  H    0.276041
    30  H    0.275730
    31  H    0.223861
    32  N    0.487435
    33  O   -0.461003
    34  O   -0.457592
 Sum of Mulliken charges =  -0.00000

 Dipole moment (field-independent basis, Debye):
    X=             -4.1463    Y=              3.3261    Z=              0.5166  Tot=              5.3406
 Quadrupole moment (field-independent basis, Debye-Ang):
   XX=            -78.2291   YY=           -100.5474   ZZ=            -89.1747
   XY=             -5.7873   XZ=              0.3591   YZ=              0.0446

 Normal termination of Gaussian 16 at Wed May  5 21:47:47 2021.
