 Gaussian 16, Revision A.03,
 Gaussian 16:  EM64L-G16RevA.03 25-Dec-2016

 -------------
 #p 6-31g* mp2
 -------------

 ------------------------------------------------------
 Input file generated by CHIRIPA (05-May-2021 14:53:12)
 ------------------------------------------------------
 Symbolic Z-matrix:
 Charge =  0 Multiplicity = 1

                         Standard orientation:
 ---------------------------------------------------------------------
 Center     Atomic      Atomic             Coordinates (Angstroms)
 Number     Number       Type             X           Y           Z
 ---------------------------------------------------------------------
      1          6           0        4.261507   -0.192528   -0.123631
      2          6           0        4.338634   -1.284531    0.943873
      3          6           0        5.290818   -2.418268    0.562063
      4          1           0        3.939082   -0.639712   -1.073902
      5          1           0        5.267628    0.214512   -0.295192
      6          1           0        3.332447   -1.688433    1.114364
      7          1           0        4.660728   -0.834663    1.891760
      8          1           0        6.305278   -2.035105    0.411534
      9          1           0        4.969450   -2.893726   -0.370279
     10          1           0        5.330697   -3.187913    1.339184
     11          6           0        3.313610    0.947801    0.243613
     12          6           0        3.236483    2.039804   -0.823891
     13          6           0        2.284298    3.173541   -0.442081
     14          1           0        2.307489    0.540760    0.415174
     15          1           0        3.636035    1.394984    1.193884
     16          1           0        2.914389    1.589935   -1.771778
     17          1           0        4.242670    2.443706   -0.994382
     18          1           0        2.605667    3.648999    0.490261
     19          1           0        1.269839    2.790378   -0.291552
     20          1           0        2.244420    3.943186   -1.219202
     21          6           0       -5.280487    0.383948    0.671293
     22          6           0       -4.169130    1.100977    1.126572
     23          6           0       -2.878215    0.733738    0.735135
     24          6           0       -2.734600   -0.360669   -0.116297
     25          6           0       -3.822064   -1.095012   -0.586885
     26          6           0       -5.103717   -0.709830   -0.182477
     27          1           0       -6.279703    0.676197    0.980408
     28          1           0       -4.303405    1.950850    1.789694
     29          1           0       -2.000363    1.271235    1.072611
     30          1           0       -3.656535   -1.937676   -1.247140
     31          1           0       -5.964979   -1.268529   -0.537624
     32          7           0       -1.372869   -0.758947   -0.537559
     33          8           0       -1.273087   -1.726947   -1.288330
     34          8           0       -0.431110   -0.095575   -0.108998
 ---------------------------------------------------------------------

 SCF Done:  E(RHF) =  -669.536526637     A.U. after   15 cycles
 E2 =    -0.2091198767D+01 EUMP2 =    -0.67162772540484D+03

 The electronic state is 1-A.
 Alpha  occ. eigenvalues --  -20.61058 -20.61050 -15.86091 -11.31355 -11.27912
 Alpha  occ. eigenvalues --  -11.27909 -11.27642 -11.26909 -11.26899 -11.20498
 Alpha  occ. eigenvalues --  -11.20433 -11.20158 -11.20150 -11.20097 -11.19897
 Alpha  occ. eigenvalues --   -1.60114  -1.39672  -1.19519  -1.08934  -1.07195
 Alpha  occ. eigenvalues --   -1.04908  -1.02429  -0.95784  -0.94886  -0.86311
 Alpha  occ. eigenvalues --   -0.85916  -0.82622  -0.78500  -0.77683  -0.76993
 Alpha  occ. eigenvalues --   -0.72319  -0.71423  -0.70628  -0.65180  -0.64911
 Alpha  occ. eigenvalues --   -0.63786  -0.62256  -0.59813  -0.58266  -0.56509
 Alpha  occ. eigenvalues --   -0.55415  -0.54158  -0.53242  -0.52999  -0.51644
 Alpha  occ. eigenvalues --   -0.51335  -0.49126  -0.49064  -0.48767  -0.46829
 Alpha  occ. eigenvalues --   -0.45503  -0.45089  -0.44574  -0.44355  -0.42643
 Alpha  occ. eigenvalues --   -0.37496  -0.36506
 Alpha virt. eigenvalues --    0.04839   0.11149   0.16341   0.21170   0.24064
 Alpha virt. eigenvalues --    0.25166   0.26984   0.27495   0.28200   0.28975
 Alpha virt. eigenvalues --    0.29068   0.30729   0.31777   0.32637   0.32867

 Mulliken charges:
               1
     1  C   -0.296949
     2  C   -0.300141
     3  C   -0.475225
     4  H    0.153225
     5  H    0.143320
     6  H    0.158435
     7  H    0.147199
     8  H    0.151929
     9  H    0.156316
    10  H    0.156746
    11  C   -0.310584
    12  C   -0.296225
    13  C   -0.478190
    14  H    0.178975
    15  H    0.140806
    16  H    0.155030
    17  H    0.145719
    18  H    0.149523
    19  H    0.161418
    20  H    0.154581
    21  C   -0.170425
    22  C   -0.218542
    23  C   -0.170750
    24  C    0.157233
    25  C   -0.170328
    26  C   -0.218626
    27  H    0.226268
    28  H    0.224258
    29  H    0.275982
    30  H    0.275928
    31  H    0.224021
    32  N    0.495442
    33  O   -0.458425
    34  O   -0.467943
 Sum of Mulliken charges =  -0.00000

 Dipole moment (field-independent basis, Debye):
    X=             -5.2005    Y=              1.2518    Z=              1.4414  Tot=              5.5398
 Quadrupole moment (field-independent basis, Debye-Ang):
   XX=            -69.4720   YY=            -94.6437   ZZ=            -94.1872
   XY=              0.0929   XZ=             -2.2116   YZ=              1.9814

 Normal termination of Gaussian 16 at Wed May  5 18:32:52 2021.
