 Gaussian 16, Revision A.03,
 Gaussian 16:  EM64L-G16RevA.03 25-Dec-2016

 -------------
 #p 6-31g* mp2
 -------------

 ------------------------------------------------------
 Input file generated by CHIRIPA (05-May-2021 14:53:13)
 ------------------------------------------------------
 Symbolic Z-matrix:
 Charge =  0 Multiplicity = 1

                         Standard orientation:
 ---------------------------------------------------------------------
 Center     Atomic      Atomic             Coordinates (Angstroms)
 Number     Number       Type             X           Y           Z
 ---------------------------------------------------------------------
      1          6           0        3.973525   -0.087380   -0.348857
      2          6           0        3.633914   -1.460425    0.232000
      3          6           0        4.648497   -2.535252   -0.159359
      4          1           0        4.026525   -0.162354   -1.443624
      5          1           0        4.974552    0.210192   -0.007109
      6          1           0        2.633259   -1.754704   -0.109623
      7          1           0        3.581528   -1.382132    1.325500
      8          1           0        5.649130   -2.267890    0.195398
      9          1           0        4.695474   -2.642579   -1.247878
     10          1           0        4.386438   -3.508800    0.266542
     11          6           0        2.968443    0.997647    0.033575
     12          6           0        3.308055    2.370693   -0.547282
     13          6           0        2.293471    3.445520   -0.155924
     14          1           0        1.967417    0.700075   -0.308174
     15          1           0        2.915444    1.072621    1.128342
     16          1           0        3.360441    2.292400   -1.640782
     17          1           0        4.308710    2.664972   -0.205660
     18          1           0        2.246495    3.552846    0.932596
     19          1           0        1.292839    3.178157   -0.510681
     20          1           0        2.555531    4.419067   -0.581824
     21          6           0       -0.456700   -1.299846    0.747030
     22          6           0       -0.994988   -0.233804    1.475261
     23          6           0       -2.243588    0.297371    1.138514
     24          6           0       -2.929712   -0.264284    0.062843
     25          6           0       -2.419996   -1.326692   -0.681985
     26          6           0       -1.169665   -1.841932   -0.327375
     27          1           0        0.513915   -1.706286    1.015561
     28          1           0       -0.443530    0.189182    2.310140
     29          1           0       -2.683777    1.122415    1.685281
     30          1           0       -2.993322   -1.727332   -1.509151
     31          1           0       -0.754083   -2.669860   -0.894711
     32          7           0       -4.252466    0.289612   -0.303110
     33          8           0       -4.837013   -0.222949   -1.255068
     34          8           0       -4.679645    1.225828    0.368942
 ---------------------------------------------------------------------

 SCF Done:  E(RHF) =  -669.535593456     A.U. after   15 cycles
 E2 =    -0.2092202926D+01 EUMP2 =    -0.67162779638157D+03

 The electronic state is 1-A.
 Alpha  occ. eigenvalues --  -20.60751 -20.60746 -15.85805 -11.31169 -11.27743
 Alpha  occ. eigenvalues --  -11.27731 -11.27421 -11.26752 -11.26732 -11.22740
 Alpha  occ. eigenvalues --  -11.22218 -11.22162 -11.22088 -11.21977 -11.21518
 Alpha  occ. eigenvalues --   -1.59827  -1.39380  -1.19342  -1.09241  -1.08728
 Alpha  occ. eigenvalues --   -1.04743  -1.04301  -0.96710  -0.95567  -0.87731
 Alpha  occ. eigenvalues --   -0.86136  -0.82405  -0.80415  -0.79055  -0.77449
 Alpha  occ. eigenvalues --   -0.72022  -0.71151  -0.70442  -0.65861  -0.64988
 Alpha  occ. eigenvalues --   -0.64741  -0.62090  -0.61694  -0.60115  -0.58336
 Alpha  occ. eigenvalues --   -0.55981  -0.55255  -0.53410  -0.53169  -0.53036
 Alpha  occ. eigenvalues --   -0.52829  -0.50653  -0.48800  -0.48778  -0.48675
 Alpha  occ. eigenvalues --   -0.47446  -0.46570  -0.46469  -0.44786  -0.44546
 Alpha  occ. eigenvalues --   -0.37278  -0.36350
 Alpha virt. eigenvalues --    0.05051   0.11268   0.16447   0.20301   0.22549
 Alpha virt. eigenvalues --    0.23503   0.25411   0.25887   0.27263   0.27527
 Alpha virt. eigenvalues --    0.29291   0.30146   0.30863   0.31291   0.31964

 Mulliken charges:
               1
     1  C   -0.297510
     2  C   -0.304699
     3  C   -0.475501
     4  H    0.152623
     5  H    0.152696
     6  H    0.144722
     7  H    0.149805
     8  H    0.159249
     9  H    0.157895
    10  H    0.159900
    11  C   -0.303612
    12  C   -0.299867
    13  C   -0.476673
    14  H    0.153775
    15  H    0.144698
    16  H    0.154131
    17  H    0.152989
    18  H    0.153099
    19  H    0.157963
    20  H    0.163187
    21  C   -0.173637
    22  C   -0.219391
    23  C   -0.171226
    24  C    0.158242
    25  C   -0.170870
    26  C   -0.221762
    27  H    0.234219
    28  H    0.224327
    29  H    0.275626
    30  H    0.275459
    31  H    0.223052
    32  N    0.488068
    33  O   -0.460584
    34  O   -0.460393
 Sum of Mulliken charges =  -0.00000

 Dipole moment (field-independent basis, Debye):
    X=              4.8078    Y=             -1.8863    Z=              1.2300  Tot=              5.3091
 Quadrupole moment (field-independent basis, Debye-Ang):
   XX=           -122.3262   YY=            -92.4959   ZZ=            -91.5027
   XY=              5.4729   XZ=             -2.8603   YZ=              2.3546

 Normal termination of Gaussian 16 at Thu May  6 13:43:32 2021.
