 Gaussian 16, Revision A.03,
 Gaussian 16:  EM64L-G16RevA.03 25-Dec-2016

 -------------
 #p 6-31g* mp2
 -------------

 ------------------------------------------------------
 Input file generated by CHIRIPA (05-May-2021 14:55:22)
 ------------------------------------------------------
 Symbolic Z-matrix:
 Charge =  0 Multiplicity = 1

                         Standard orientation:
 ---------------------------------------------------------------------
 Center     Atomic      Atomic             Coordinates (Angstroms)
 Number     Number       Type             X           Y           Z
 ---------------------------------------------------------------------
      1          6           0        1.763939    1.483724    0.580503
      2          6           0        2.837103    1.965661   -0.176184
      3          6           0        3.936010    1.146538   -0.451845
      4          6           0        3.928650   -0.155113    0.047092
      5          6           0        2.874530   -0.664295    0.803964
      6          6           0        1.786038    0.172596    1.067304
      7          1           0        0.914327    2.126939    0.789858
      8          1           0        2.822658    2.983470   -0.555528
      9          1           0        4.780143    1.494035   -1.035030
     10          1           0        2.917561   -1.683437    1.168541
     11          1           0        0.954001   -0.204367    1.655231
     12          7           0        5.086500   -1.031687   -0.238216
     13          8           0        5.055843   -2.174611    0.212807
     14          8           0        6.002757   -0.559223   -0.907461
     15          6           0       -5.329947   -0.443612   -0.397522
     16          6           0       -6.675106   -0.280988    0.311057
     17          6           0       -7.756337   -1.202382   -0.254422
     18          1           0       -5.460851   -0.242819   -1.469665
     19          1           0       -5.002931   -1.489226   -0.312989
     20          1           0       -6.998824    0.764313    0.226404
     21          1           0       -6.540947   -0.482005    1.381670
     22          1           0       -7.458818   -2.251354   -0.155726
     23          1           0       -7.919297   -0.997955   -1.317556
     24          1           0       -8.709642   -1.069662    0.266591
     25          6           0       -4.238877    0.470859    0.156589
     26          6           0       -2.893718    0.308235   -0.551991
     27          6           0       -1.812488    1.229630    0.013488
     28          1           0       -4.565895    1.516473    0.072055
     29          1           0       -4.107975    0.270067    1.228732
     30          1           0       -3.027878    0.509251   -1.622603
     31          1           0       -2.570001   -0.737067   -0.467337
     32          1           0       -1.649528    1.025202    1.076623
     33          1           0       -2.110007    2.278602   -0.085207
     34          1           0       -0.859183    1.096910   -0.507524
 ---------------------------------------------------------------------

 SCF Done:  E(RHF) =  -669.534667709     A.U. after   15 cycles
 E2 =    -0.2091938205D+01 EUMP2 =    -0.67162660591418D+03

 The electronic state is 1-A.
 Alpha  occ. eigenvalues --  -20.60727 -20.60722 -15.85782 -11.31134 -11.27712
 Alpha  occ. eigenvalues --  -11.27705 -11.27369 -11.26704 -11.26688 -11.22431
 Alpha  occ. eigenvalues --  -11.22195 -11.22062 -11.22044 -11.21894 -11.21430
 Alpha  occ. eigenvalues --   -1.59804  -1.39358  -1.19311  -1.09072  -1.08702
 Alpha  occ. eigenvalues --   -1.04713  -1.04211  -0.96706  -0.95531  -0.87737
 Alpha  occ. eigenvalues --   -0.86101  -0.82374  -0.80297  -0.78844  -0.77423
 Alpha  occ. eigenvalues --   -0.71999  -0.71128  -0.70417  -0.65704  -0.64958
 Alpha  occ. eigenvalues --   -0.64718  -0.62076  -0.61593  -0.60091  -0.58273
 Alpha  occ. eigenvalues --   -0.55986  -0.55269  -0.53479  -0.53147  -0.52813
 Alpha  occ. eigenvalues --   -0.52793  -0.50634  -0.48756  -0.48755  -0.48595
 Alpha  occ. eigenvalues --   -0.47302  -0.46397  -0.46295  -0.44766  -0.44446
 Alpha  occ. eigenvalues --   -0.37227  -0.36321
 Alpha virt. eigenvalues --    0.05086   0.11297   0.16523   0.20534   0.22349
 Alpha virt. eigenvalues --    0.23772   0.25730   0.26215   0.27083   0.27531
 Alpha virt. eigenvalues --    0.28822   0.29987   0.31078   0.31363   0.31885

 Mulliken charges:
               1
     1  C   -0.173741
     2  C   -0.220773
     3  C   -0.170831
     4  C    0.158230
     5  C   -0.171164
     6  C   -0.219624
     7  H    0.234620
     8  H    0.223382
     9  H    0.275368
    10  H    0.275293
    11  H    0.224295
    12  N    0.488107
    13  O   -0.460668
    14  O   -0.460621
    15  C   -0.298898
    16  C   -0.300007
    17  C   -0.476055
    18  H    0.151019
    19  H    0.150540
    20  H    0.152290
    21  H    0.152043
    22  H    0.155934
    23  H    0.155938
    24  H    0.161421
    25  C   -0.298950
    26  C   -0.299431
    27  C   -0.487182
    28  H    0.150234
    29  H    0.148920
    30  H    0.155768
    31  H    0.153789
    32  H    0.147697
    33  H    0.156185
    34  H    0.166874
 Sum of Mulliken charges =  -0.00000

 Dipole moment (field-independent basis, Debye):
    X=             -4.2581    Y=              3.0794    Z=              0.9481  Tot=              5.3398
 Quadrupole moment (field-independent basis, Debye-Ang):
   XX=           -126.6838   YY=            -93.1249   ZZ=            -93.6330
   XY=             14.1102   XZ=              2.5838   YZ=             -2.9402

 Normal termination of Gaussian 16 at Thu May  6 20:47:06 2021.
