 Gaussian 16, Revision A.03,
 Gaussian 16:  EM64L-G16RevA.03 25-Dec-2016

 -------------
 #p 6-31g* mp2
 -------------

 ------------------------------------------------------
 Input file generated by CHIRIPA (05-May-2021 14:55:22)
 ------------------------------------------------------
 Symbolic Z-matrix:
 Charge =  0 Multiplicity = 1

                         Standard orientation:
 ---------------------------------------------------------------------
 Center     Atomic      Atomic             Coordinates (Angstroms)
 Number     Number       Type             X           Y           Z
 ---------------------------------------------------------------------
      1          6           0        2.058394    1.865956    1.266412
      2          6           0        2.979106    1.489883    0.282858
      3          6           0        2.945392    0.205011   -0.267155
      4          6           0        1.973185   -0.682405    0.191755
      5          6           0        1.042182   -0.337544    1.170322
      6          6           0        1.094569    0.952652    1.706230
      7          1           0        2.091836    2.866143    1.688197
      8          1           0        3.728727    2.197083   -0.060626
      9          1           0        3.646110   -0.112453   -1.029801
     10          1           0        0.306543   -1.064475    1.492541
     11          1           0        0.378267    1.241956    2.469944
     12          7           0        1.927610   -2.045460   -0.383053
     13          8           0        1.061283   -2.808734    0.038286
     14          8           0        2.759077   -2.324738   -1.244042
     15          6           0       -3.108259    0.366619    0.088313
     16          6           0       -3.604550   -1.050280   -0.201651
     17          6           0       -4.750928   -1.474641    0.716788
     18          1           0       -2.782378    0.426970    1.135740
     19          1           0       -3.945414    1.070125   -0.019604
     20          1           0       -2.766392   -1.750737   -0.094570
     21          1           0       -3.929108   -1.107318   -1.248562
     22          1           0       -5.604988   -0.798975    0.604280
     23          1           0       -4.435666   -1.446052    1.764830
     24          1           0       -5.090235   -2.490652    0.492172
     25          6           0       -1.962325    0.805238   -0.821728
     26          6           0       -1.466035    2.222137   -0.531764
     27          6           0       -0.319656    2.646498   -1.450203
     28          1           0       -1.125170    0.101732   -0.713810
     29          1           0       -2.288206    0.744886   -1.869155
     30          1           0       -1.141476    2.279174    0.515148
     31          1           0       -2.304192    2.922594   -0.638845
     32          1           0       -0.634919    2.617908   -2.498245
     33          1           0        0.534405    1.970833   -1.337695
     34          1           0        0.019651    3.662509   -1.225587
 ---------------------------------------------------------------------

 SCF Done:  E(RHF) =  -669.533378714     A.U. after   15 cycles
 E2 =    -0.2097176342D+01 EUMP2 =    -0.67163055505620D+03

 The electronic state is 1-A.
 Alpha  occ. eigenvalues --  -20.60911 -20.60906 -15.85962 -11.31367 -11.27921
 Alpha  occ. eigenvalues --  -11.27909 -11.27630 -11.26920 -11.26904 -11.21761
 Alpha  occ. eigenvalues --  -11.21567 -11.21502 -11.21400 -11.21143 -11.21037
 Alpha  occ. eigenvalues --   -1.59982  -1.39535  -1.19555  -1.08932  -1.08516
 Alpha  occ. eigenvalues --   -1.04952  -1.03585  -0.96062  -0.95738  -0.87070
 Alpha  occ. eigenvalues --   -0.86341  -0.82577  -0.79662  -0.78339  -0.77628
 Alpha  occ. eigenvalues --   -0.72176  -0.71310  -0.70626  -0.65250  -0.65175
 Alpha  occ. eigenvalues --   -0.64936  -0.62274  -0.61093  -0.59423  -0.57662
 Alpha  occ. eigenvalues --   -0.55481  -0.55403  -0.53159  -0.53031  -0.52726
 Alpha  occ. eigenvalues --   -0.52425  -0.50017  -0.48940  -0.48931  -0.47931
 Alpha  occ. eigenvalues --   -0.46692  -0.45888  -0.45779  -0.44911  -0.43860
 Alpha  occ. eigenvalues --   -0.37435  -0.36453
 Alpha virt. eigenvalues --    0.04874   0.10989   0.16316   0.20060   0.23061
 Alpha virt. eigenvalues --    0.24175   0.25443   0.26508   0.27476   0.28443
 Alpha virt. eigenvalues --    0.29648   0.30298   0.31340   0.31752   0.31918

 Mulliken charges:
               1
     1  C   -0.166977
     2  C   -0.218872
     3  C   -0.172432
     4  C    0.160461
     5  C   -0.173486
     6  C   -0.215791
     7  H    0.226874
     8  H    0.224778
     9  H    0.276576
    10  H    0.276834
    11  H    0.224771
    12  N    0.488371
    13  O   -0.460757
    14  O   -0.459359
    15  C   -0.297185
    16  C   -0.302872
    17  C   -0.475286
    18  H    0.139345
    19  H    0.149938
    20  H    0.159855
    21  H    0.154066
    22  H    0.154067
    23  H    0.152230
    24  H    0.163155
    25  C   -0.302687
    26  C   -0.296609
    27  C   -0.480154
    28  H    0.153286
    29  H    0.152417
    30  H    0.142594
    31  H    0.151064
    32  H    0.155790
    33  H    0.163916
    34  H    0.152079
 Sum of Mulliken charges =  -0.00000

 Dipole moment (field-independent basis, Debye):
    X=              0.3111    Y=              4.6695    Z=              2.0017  Tot=              5.0900
 Quadrupole moment (field-independent basis, Debye-Ang):
   XX=            -91.4883   YY=           -102.0746   ZZ=            -92.6850
   XY=             10.2982   XZ=              2.6171   YZ=             -0.9705

 Normal termination of Gaussian 16 at Thu May  6 14:13:08 2021.
