 Gaussian 16, Revision A.03,
 Gaussian 16:  EM64L-G16RevA.03 25-Dec-2016

 -------------
 #p 6-31g* mp2
 -------------

 ------------------------------------------------------
 Input file generated by CHIRIPA (05-May-2021 14:53:15)
 ------------------------------------------------------
 Symbolic Z-matrix:
 Charge =  0 Multiplicity = 1

                         Standard orientation:
 ---------------------------------------------------------------------
 Center     Atomic      Atomic             Coordinates (Angstroms)
 Number     Number       Type             X           Y           Z
 ---------------------------------------------------------------------
      1          6           0        3.458792   -0.287541    0.776225
      2          6           0        2.000549   -0.007569    0.411357
      3          6           0        1.044988   -0.227097    1.584602
      4          1           0        3.548195   -1.322000    1.135178
      5          1           0        3.750701    0.360436    1.614264
      6          1           0        1.711893   -0.654901   -0.426650
      7          1           0        1.914642    1.026283    0.053050
      8          1           0        1.305120    0.429275    2.421327
      9          1           0        1.101219   -1.261462    1.938902
     10          1           0        0.007945   -0.021301    1.301672
     11          6           0        4.426200   -0.072484   -0.386359
     12          6           0        5.884443   -0.352456   -0.021491
     13          6           0        6.840004   -0.132928   -1.194736
     14          1           0        4.134291   -0.720461   -1.224398
     15          1           0        4.336797    0.961974   -0.745312
     16          1           0        5.970350   -1.386309    0.336816
     17          1           0        6.173099    0.294876    0.816516
     18          1           0        6.783773    0.901437   -1.549036
     19          1           0        6.579872   -0.789300   -2.031461
     20          1           0        7.877047   -0.338724   -0.911806
     21          6           0       -2.220233    2.504783    0.041101
     22          6           0       -2.270482    1.683472    1.172226
     23          6           0       -2.745042    0.371894    1.076811
     24          6           0       -3.163201   -0.087922   -0.170988
     25          6           0       -3.125383    0.705980   -1.316230
     26          6           0       -2.647092    2.014280   -1.197334
     27          1           0       -1.850134    3.522376    0.124342
     28          1           0       -1.939637    2.061732    2.135298
     29          1           0       -2.794747   -0.285458    1.936367
     30          1           0       -3.462134    0.300763   -2.262705
     31          1           0       -2.609200    2.649865   -2.077471
     32          7           0       -3.667572   -1.474696   -0.284429
     33          8           0       -4.030105   -1.856030   -1.395191
     34          8           0       -3.690814   -2.154057    0.739566
 ---------------------------------------------------------------------

 SCF Done:  E(RHF) =  -669.534527689     A.U. after   15 cycles
 E2 =    -0.2092597232D+01 EUMP2 =    -0.67162712492072D+03

 The electronic state is 1-A.
 Alpha  occ. eigenvalues --  -20.60808 -20.60802 -15.85863 -11.31258 -11.27815
 Alpha  occ. eigenvalues --  -11.27802 -11.27560 -11.26842 -11.26824 -11.21760
 Alpha  occ. eigenvalues --  -11.21715 -11.21537 -11.21477 -11.21178 -11.21126
 Alpha  occ. eigenvalues --   -1.59883  -1.39435  -1.19442  -1.08820  -1.08561
 Alpha  occ. eigenvalues --   -1.04856  -1.03655  -0.96112  -0.95650  -0.87136
 Alpha  occ. eigenvalues --   -0.86230  -0.82484  -0.79730  -0.78376  -0.77524
 Alpha  occ. eigenvalues --   -0.72079  -0.71208  -0.70531  -0.65194  -0.65086
 Alpha  occ. eigenvalues --   -0.64830  -0.62187  -0.61057  -0.59534  -0.57761
 Alpha  occ. eigenvalues --   -0.55398  -0.55329  -0.53571  -0.52919  -0.52636
 Alpha  occ. eigenvalues --   -0.52281  -0.50053  -0.48841  -0.48832  -0.48037
 Alpha  occ. eigenvalues --   -0.46762  -0.45918  -0.45845  -0.44835  -0.43935
 Alpha  occ. eigenvalues --   -0.37419  -0.36326
 Alpha virt. eigenvalues --    0.04992   0.11163   0.16453   0.21266   0.22759
 Alpha virt. eigenvalues --    0.24264   0.26494   0.26886   0.27394   0.28146
 Alpha virt. eigenvalues --    0.28419   0.30772   0.31343   0.31839   0.32112

 Mulliken charges:
               1
     1  C   -0.298433
     2  C   -0.297285
     3  C   -0.486291
     4  H    0.151577
     5  H    0.147948
     6  H    0.154436
     7  H    0.147533
     8  H    0.148569
     9  H    0.158203
    10  H    0.168515
    11  C   -0.298199
    12  C   -0.299712
    13  C   -0.475736
    14  H    0.150680
    15  H    0.147752
    16  H    0.153032
    17  H    0.151310
    18  H    0.154320
    19  H    0.155849
    20  H    0.160638
    21  C   -0.170770
    22  C   -0.216238
    23  C   -0.176277
    24  C    0.161224
    25  C   -0.171259
    26  C   -0.217968
    27  H    0.225997
    28  H    0.225606
    29  H    0.277415
    30  H    0.275903
    31  H    0.223857
    32  N    0.488144
    33  O   -0.460280
    34  O   -0.460059
 Sum of Mulliken charges =  -0.00000

 Dipole moment (field-independent basis, Debye):
    X=              1.6959    Y=              4.8777    Z=              0.3602  Tot=              5.1766
 Quadrupole moment (field-independent basis, Debye-Ang):
   XX=           -107.3596   YY=            -95.1253   ZZ=            -90.7090
   XY=            -16.0166   XZ=             -0.1844   YZ=             -1.3037

 Normal termination of Gaussian 16 at Wed May  5 20:15:47 2021.
