 Gaussian 16, Revision A.03,
 Gaussian 16:  EM64L-G16RevA.03 25-Dec-2016

 -------------
 #p 6-31g* mp2
 -------------

 ------------------------------------------------------
 Input file generated by CHIRIPA (05-May-2021 14:53:18)
 ------------------------------------------------------
 Symbolic Z-matrix:
 Charge =  0 Multiplicity = 1

                         Standard orientation:
 ---------------------------------------------------------------------
 Center     Atomic      Atomic             Coordinates (Angstroms)
 Number     Number       Type             X           Y           Z
 ---------------------------------------------------------------------
      1          6           0       -3.268436   -0.438877   -0.157942
      2          6           0       -4.176700   -1.656413    0.017125
      3          6           0       -3.480881   -2.969574   -0.342369
      4          1           0       -2.918365   -0.397116   -1.198447
      5          1           0       -2.374057   -0.564315    0.467955
      6          1           0       -5.069752   -1.528076   -0.607858
      7          1           0       -4.524803   -1.695172    1.057287
      8          1           0       -2.600167   -3.124374    0.289281
      9          1           0       -3.148212   -2.956329   -1.385326
     10          1           0       -4.148237   -3.826880   -0.209995
     11          6           0       -3.949841    0.881367    0.197546
     12          6           0       -3.041577    2.098904    0.022479
     13          6           0       -3.737396    3.412065    0.381973
     14          1           0       -4.844220    1.006805   -0.428351
     15          1           0       -4.299912    0.839607    1.238051
     16          1           0       -2.693474    2.137663   -1.017683
     17          1           0       -2.148525    1.970567    0.647462
     18          1           0       -4.070065    3.398820    1.424929
     19          1           0       -4.618109    3.566865   -0.249677
     20          1           0       -3.070040    4.269371    0.249599
     21          6           0        1.443562   -2.279307    0.172050
     22          6           0        0.841222   -1.083358   -0.232193
     23          6           0        1.593934    0.089859   -0.339586
     24          6           0        2.952674    0.030797   -0.033600
     25          6           0        3.581673   -1.145331    0.371831
     26          6           0        2.809457   -2.306429    0.472243
     27          1           0        0.851262   -3.185984    0.252764
     28          1           0       -0.219353   -1.059331   -0.465966
     29          1           0        1.153099    1.029334   -0.650180
     30          1           0        4.640987   -1.138056    0.598144
     31          1           0        3.279914   -3.233792    0.786431
     32          7           0        3.759859    1.266414   -0.143596
     33          8           0        4.955154    1.188017    0.131655
     34          8           0        3.181954    2.289891   -0.502979
 ---------------------------------------------------------------------

 SCF Done:  E(RHF) =  -669.535761386     A.U. after   15 cycles
 E2 =    -0.2091724504D+01 EUMP2 =    -0.67162748588987D+03

 The electronic state is 1-A.
 Alpha  occ. eigenvalues --  -20.60701 -20.60696 -15.85753 -11.31099 -11.27672
 Alpha  occ. eigenvalues --  -11.27643 -11.27394 -11.26686 -11.26585 -11.22519
 Alpha  occ. eigenvalues --  -11.22417 -11.22197 -11.22134 -11.22083 -11.21437
 Alpha  occ. eigenvalues --   -1.59777  -1.39331  -1.19265  -1.09263  -1.08663
 Alpha  occ. eigenvalues --   -1.04660  -1.04281  -0.96748  -0.95504  -0.87761
 Alpha  occ. eigenvalues --   -0.86063  -0.82337  -0.80375  -0.79109  -0.77373
 Alpha  occ. eigenvalues --   -0.71972  -0.71100  -0.70376  -0.65895  -0.64913
 Alpha  occ. eigenvalues --   -0.64657  -0.62020  -0.61660  -0.60122  -0.58355
 Alpha  occ. eigenvalues --   -0.56048  -0.55164  -0.53402  -0.53222  -0.52997
 Alpha  occ. eigenvalues --   -0.52716  -0.50684  -0.48764  -0.48728  -0.48636
 Alpha  occ. eigenvalues --   -0.47403  -0.46582  -0.46510  -0.44741  -0.44553
 Alpha  occ. eigenvalues --   -0.37249  -0.36262
 Alpha virt. eigenvalues --    0.05137   0.11329   0.16595   0.19697   0.22601
 Alpha virt. eigenvalues --    0.23391   0.25258   0.25684   0.26455   0.28354
 Alpha virt. eigenvalues --    0.29622   0.29816   0.31078   0.31196   0.31788

 Mulliken charges:
               1
     1  C   -0.306980
     2  C   -0.298911
     3  C   -0.478226
     4  H    0.148337
     5  H    0.147253
     6  H    0.156354
     7  H    0.155481
     8  H    0.147758
     9  H    0.155594
    10  H    0.165669
    11  C   -0.297427
    12  C   -0.302154
    13  C   -0.476335
    14  H    0.152663
    15  H    0.152578
    16  H    0.151553
    17  H    0.151515
    18  H    0.156556
    19  H    0.156244
    20  H    0.164881
    21  C   -0.173576
    22  C   -0.226996
    23  C   -0.174172
    24  C    0.158875
    25  C   -0.171344
    26  C   -0.218410
    27  H    0.226055
    28  H    0.236174
    29  H    0.276177
    30  H    0.275204
    31  H    0.222970
    32  N    0.488071
    33  O   -0.460804
    34  O   -0.460628
 Sum of Mulliken charges =  -0.00000

 Dipole moment (field-independent basis, Debye):
    X=             -3.1227    Y=             -4.2751    Z=              0.4057  Tot=              5.3097
 Quadrupole moment (field-independent basis, Debye-Ang):
   XX=           -107.4941   YY=            -94.8893   ZZ=            -94.2942
   XY=            -15.1531   XZ=              2.9410   YZ=             -0.9809

 Normal termination of Gaussian 16 at Wed May  5 22:04:29 2021.
