 Gaussian 16, Revision A.03,
 Gaussian 16:  EM64L-G16RevA.03 25-Dec-2016

 -------------
 #p 6-31g* mp2
 -------------

 ------------------------------------------------------
 Input file generated by CHIRIPA (05-May-2021 14:55:21)
 ------------------------------------------------------
 Symbolic Z-matrix:
 Charge =  0 Multiplicity = 1

                         Standard orientation:
 ---------------------------------------------------------------------
 Center     Atomic      Atomic             Coordinates (Angstroms)
 Number     Number       Type             X           Y           Z
 ---------------------------------------------------------------------
      1          6           0       -1.511974    2.295777    0.184718
      2          6           0       -1.038611    0.994779   -0.014915
      3          6           0       -1.931361   -0.072204   -0.153089
      4          6           0       -3.297096    0.199057   -0.086192
      5          6           0       -3.799624    1.484200    0.111705
      6          6           0       -2.888543    2.535911    0.247281
      7          1           0       -0.811344    3.118703    0.291046
      8          1           0        0.029917    0.805327   -0.063925
      9          1           0       -1.592169   -1.089164   -0.308523
     10          1           0       -4.870413    1.641860    0.156112
     11          1           0       -3.259021    3.545259    0.402226
     12          7           0       -4.251914   -0.922427   -0.231095
     13          8           0       -5.450377   -0.657109   -0.168404
     14          8           0       -3.783758   -2.045528   -0.404619
     15          6           0        4.540364    0.020815    0.301379
     16          6           0        5.666013    0.218480   -0.714412
     17          6           0        6.701510    1.246159   -0.256795
     18          1           0        4.046341    0.984951    0.483934
     19          1           0        4.972948   -0.295338    1.260708
     20          1           0        5.231317    0.532829   -1.671929
     21          1           0        6.157291   -0.746276   -0.894714
     22          1           0        7.162278    0.935068    0.686347
     23          1           0        6.231043    2.221442   -0.095283
     24          1           0        7.497080    1.371817   -0.997834
     25          6           0        3.497346   -1.003575   -0.141864
     26          6           0        2.371698   -1.201240    0.873926
     27          6           0        1.336200   -2.228920    0.416309
     28          1           0        3.064762   -0.687422   -1.101193
     29          1           0        3.991370   -1.967712   -0.324420
     30          1           0        1.880420   -0.236484    1.054229
     31          1           0        2.806394   -1.515590    1.831443
     32          1           0        1.806667   -3.204201    0.254797
     33          1           0        0.875433   -1.917829   -0.526833
     34          1           0        0.540631   -2.354578    1.157348
 ---------------------------------------------------------------------

 SCF Done:  E(RHF) =  -669.535150494     A.U. after   15 cycles
 E2 =    -0.2092134620D+01 EUMP2 =    -0.67162728511326D+03

 The electronic state is 1-A.
 Alpha  occ. eigenvalues --  -20.60712 -20.60707 -15.85764 -11.31115 -11.27703
 Alpha  occ. eigenvalues --  -11.27646 -11.27448 -11.26718 -11.26671 -11.22535
 Alpha  occ. eigenvalues --  -11.22178 -11.22161 -11.22061 -11.21952 -11.21568
 Alpha  occ. eigenvalues --   -1.59787  -1.39341  -1.19296  -1.09186  -1.08696
 Alpha  occ. eigenvalues --   -1.04710  -1.04259  -0.96705  -0.95529  -0.87721
 Alpha  occ. eigenvalues --   -0.86100  -0.82363  -0.80334  -0.78972  -0.77414
 Alpha  occ. eigenvalues --   -0.71983  -0.71110  -0.70415  -0.65896  -0.64948
 Alpha  occ. eigenvalues --   -0.64695  -0.62320  -0.61409  -0.60053  -0.58296
 Alpha  occ. eigenvalues --   -0.56004  -0.55181  -0.53402  -0.53122  -0.53011
 Alpha  occ. eigenvalues --   -0.52806  -0.50639  -0.48756  -0.48737  -0.48614
 Alpha  occ. eigenvalues --   -0.47374  -0.46507  -0.46436  -0.44749  -0.44504
 Alpha  occ. eigenvalues --   -0.37285  -0.36295
 Alpha virt. eigenvalues --    0.05110   0.11314   0.16558   0.19032   0.22662
 Alpha virt. eigenvalues --    0.23744   0.25509   0.25811   0.26858   0.28492
 Alpha virt. eigenvalues --    0.29446   0.29898   0.31121   0.31313   0.32211

 Mulliken charges:
               1
     1  C   -0.171900
     2  C   -0.224854
     3  C   -0.177433
     4  C    0.159467
     5  C   -0.170671
     6  C   -0.218756
     7  H    0.225255
     8  H    0.231224
     9  H    0.280973
    10  H    0.275356
    11  H    0.223134
    12  N    0.488095
    13  O   -0.460815
    14  O   -0.460326
    15  C   -0.297715
    16  C   -0.300189
    17  C   -0.475940
    18  H    0.145443
    19  H    0.152076
    20  H    0.151952
    21  H    0.154193
    22  H    0.156426
    23  H    0.154189
    24  H    0.162210
    25  C   -0.299915
    26  C   -0.304347
    27  C   -0.482850
    28  H    0.147884
    29  H    0.154439
    30  H    0.144008
    31  H    0.158646
    32  H    0.163947
    33  H    0.150101
    34  H    0.166690
 Sum of Mulliken charges =  -0.00000

 Dipole moment (field-independent basis, Debye):
    X=              3.5764    Y=              3.8119    Z=              0.5486  Tot=              5.2557
 Quadrupole moment (field-independent basis, Debye-Ang):
   XX=           -113.9258   YY=            -91.0873   ZZ=            -95.4836
   XY=            -16.5721   XZ=             -2.3251   YZ=             -0.4342

 Normal termination of Gaussian 16 at Wed May  5 18:58:03 2021.
