 Gaussian 16, Revision A.03,
 Gaussian 16:  EM64L-G16RevA.03 25-Dec-2016

 -------------
 #p 6-31g* mp2
 -------------

 ------------------------------------------------------
 Input file generated by CHIRIPA (05-May-2021 14:57:27)
 ------------------------------------------------------
 Symbolic Z-matrix:
 Charge =  0 Multiplicity = 1

                         Standard orientation:
 ---------------------------------------------------------------------
 Center     Atomic      Atomic             Coordinates (Angstroms)
 Number     Number       Type             X           Y           Z
 ---------------------------------------------------------------------
      1          6           0        0.375446   -2.349495   -0.063641
      2          6           0        1.358431   -2.298428    0.930167
      3          6           0        2.382615   -1.348855    0.867663
      4          6           0        2.393301   -0.461681   -0.207558
      5          6           0        1.428241   -0.487372   -1.213187
      6          6           0        0.413422   -1.445398   -1.130266
      7          1           0       -0.416527   -3.090429   -0.007156
      8          1           0        1.331450   -2.999303    1.759679
      9          1           0        3.156237   -1.287094    1.623382
     10          1           0        1.481596    0.224550   -2.027888
     11          1           0       -0.348654   -1.482728   -1.903501
     12          7           0        3.472601    0.548063   -0.284536
     13          8           0        3.459678    1.318473   -1.242105
     14          8           0        4.311044    0.549972    0.614156
     15          6           0       -0.897687    2.703176    0.763695
     16          6           0       -0.999497    1.662138    1.692346
     17          6           0       -1.727019    0.507757    1.387936
     18          6           0       -2.342812    0.427489    0.139880
     19          6           0       -2.259807    1.447643   -0.806527
     20          6           0       -1.527057    2.592801   -0.480584
     21          1           0       -0.330500    3.596345    1.008533
     22          1           0       -0.511761    1.745110    2.659442
     23          1           0       -1.822099   -0.313231    2.088190
     24          1           0       -2.756983    1.335987   -1.762439
     25          1           0       -1.449695    3.399708   -1.203745
     26          7           0       -3.115775   -0.789720   -0.193784
     27          8           0       -3.649023   -0.836000   -1.300193
     28          8           0       -3.173738   -1.674442    0.657418
 ---------------------------------------------------------------------

 SCF Done:  E(RHF) =  -868.339662489     A.U. after   16 cycles
 E2 =    -0.2603706579D+01 EUMP2 =    -0.87094336906759D+03

 The electronic state is 1-A.
 Alpha  occ. eigenvalues --  -20.61658 -20.61644 -20.60976 -20.60969 -15.86643
 Alpha  occ. eigenvalues --  -15.86022 -11.31605 -11.31207 -11.28169 -11.28152
 Alpha  occ. eigenvalues --  -11.27790 -11.27787 -11.27763 -11.27294 -11.27082
 Alpha  occ. eigenvalues --  -11.27065 -11.26692 -11.26629  -1.60721  -1.60058
 Alpha  occ. eigenvalues --   -1.40284  -1.39615  -1.19779  -1.19348  -1.09233
 Alpha  occ. eigenvalues --   -1.08752  -1.05123  -1.04741  -0.96127  -0.95619
 Alpha  occ. eigenvalues --   -0.86535  -0.86136  -0.82982  -0.82466  -0.78084
 Alpha  occ. eigenvalues --   -0.77573  -0.72883  -0.72258  -0.72072  -0.71384
 Alpha  occ. eigenvalues --   -0.70859  -0.70332  -0.65424  -0.65117  -0.64991
 Alpha  occ. eigenvalues --   -0.64712  -0.62488  -0.62095  -0.55599  -0.55115
 Alpha  occ. eigenvalues --   -0.53999  -0.53209  -0.52813  -0.52539  -0.49667
 Alpha  occ. eigenvalues --   -0.49604  -0.49009  -0.48982  -0.45759  -0.45063
 Alpha  occ. eigenvalues --   -0.38147  -0.37087  -0.36596  -0.36167
 Alpha virt. eigenvalues --    0.04368   0.04951   0.10864   0.11316   0.15997
 Alpha virt. eigenvalues --    0.16525   0.21041   0.21715   0.26879   0.27381
 Alpha virt. eigenvalues --    0.27972   0.28708   0.30786   0.31157   0.32072

 Mulliken charges:
               1
     1  C   -0.173475
     2  C   -0.222875
     3  C   -0.173558
     4  C    0.157262
     5  C   -0.167408
     6  C   -0.228331
     7  H    0.242204
     8  H    0.224083
     9  H    0.273440
    10  H    0.272815
    11  H    0.230686
    12  N    0.487615
    13  O   -0.462856
    14  O   -0.462133
    15  C   -0.168819
    16  C   -0.218522
    17  C   -0.165632
    18  C    0.160513
    19  C   -0.176942
    20  C   -0.218624
    21  H    0.231804
    22  H    0.225902
    23  H    0.272163
    24  H    0.273724
    25  H    0.226745
    26  N    0.486012
    27  O   -0.461342
    28  O   -0.464450
 Sum of Mulliken charges =  -0.00000

 Dipole moment (field-independent basis, Debye):
    X=             -1.1681    Y=              0.8010    Z=              1.5018  Tot=              2.0643
 Quadrupole moment (field-independent basis, Debye-Ang):
   XX=           -137.1098   YY=            -96.8093   ZZ=            -97.2996
   XY=            -17.0526   XZ=              2.0516   YZ=             -1.7815

 Normal termination of Gaussian 16 at Thu May  6 05:15:37 2021.
