 Gaussian 16, Revision A.03,
 Gaussian 16:  EM64L-G16RevA.03 25-Dec-2016

 -------------
 #p 6-31g* mp2
 -------------

 ------------------------------------------------------
 Input file generated by CHIRIPA (05-May-2021 14:55:23)
 ------------------------------------------------------
 Symbolic Z-matrix:
 Charge =  0 Multiplicity = 1

                         Standard orientation:
 ---------------------------------------------------------------------
 Center     Atomic      Atomic             Coordinates (Angstroms)
 Number     Number       Type             X           Y           Z
 ---------------------------------------------------------------------
      1          6           0        0.943030   -0.385597    1.676703
      2          6           0        0.757888   -0.255461    0.296374
      3          6           0        1.857412   -0.150366   -0.560685
      4          6           0        3.133770   -0.179116   -0.000888
      5          6           0        3.350783   -0.307711    1.370118
      6          6           0        2.236606   -0.411262    2.208232
      7          1           0        0.083202   -0.466637    2.335128
      8          1           0       -0.245567   -0.235235   -0.119214
      9          1           0        1.742803   -0.048681   -1.633039
     10          1           0        4.363223   -0.324774    1.754945
     11          1           0        2.383400   -0.512229    3.279821
     12          7           0        4.305543   -0.068674   -0.898190
     13          8           0        5.419762   -0.096619   -0.380143
     14          8           0        4.087572    0.043743   -2.102553
     15          6           0       -4.107327   -0.359537    0.113349
     16          6           0       -4.156195   -1.556708   -0.836587
     17          6           0       -4.845979   -2.773548   -0.219099
     18          1           0       -3.584076   -0.651368    1.034211
     19          1           0       -5.131605   -0.091590    0.407378
     20          1           0       -3.132214   -1.821448   -1.129827
     21          1           0       -4.679223   -1.261938   -1.755373
     22          1           0       -5.877490   -2.532529    0.057478
     23          1           0       -4.321690   -3.095218    0.686579
     24          1           0       -4.869811   -3.617749   -0.915243
     25          6           0       -3.420732    0.864672   -0.489664
     26          6           0       -3.371863    2.061842    0.460273
     27          6           0       -2.682080    3.278683   -0.157216
     28          1           0       -2.396453    0.596725   -0.783692
     29          1           0       -3.943984    1.156503   -1.410526
     30          1           0       -2.848835    1.767073    1.379059
     31          1           0       -4.395846    2.326583    0.753512
     32          1           0       -3.206368    3.600352   -1.062893
     33          1           0       -1.650569    3.037664   -0.433792
     34          1           0       -2.658249    4.122883    0.538929
 ---------------------------------------------------------------------

 SCF Done:  E(RHF) =  -669.535466757     A.U. after   15 cycles
 E2 =    -0.2091489151D+01 EUMP2 =    -0.67162695590788D+03

 The electronic state is 1-A.
 Alpha  occ. eigenvalues --  -20.60766 -20.60761 -15.85820 -11.31195 -11.27768
 Alpha  occ. eigenvalues --  -11.27764 -11.27518 -11.26784 -11.26766 -11.22485
 Alpha  occ. eigenvalues --  -11.22429 -11.22407 -11.22307 -11.21752 -11.21749
 Alpha  occ. eigenvalues --   -1.59841  -1.39394  -1.19370  -1.09349  -1.08764
 Alpha  occ. eigenvalues --   -1.04776  -1.04333  -0.96777  -0.95597  -0.87785
 Alpha  occ. eigenvalues --   -0.86176  -0.82431  -0.80398  -0.79175  -0.77474
 Alpha  occ. eigenvalues --   -0.72038  -0.71164  -0.70481  -0.66080  -0.65023
 Alpha  occ. eigenvalues --   -0.64734  -0.62137  -0.61716  -0.60138  -0.58385
 Alpha  occ. eigenvalues --   -0.56080  -0.55278  -0.53425  -0.53206  -0.53103
 Alpha  occ. eigenvalues --   -0.52864  -0.50716  -0.48803  -0.48792  -0.48701
 Alpha  occ. eigenvalues --   -0.47448  -0.46680  -0.46648  -0.44798  -0.44623
 Alpha  occ. eigenvalues --   -0.37352  -0.36378
 Alpha virt. eigenvalues --    0.05061   0.11235   0.16527   0.18223   0.23071
 Alpha virt. eigenvalues --    0.23639   0.24639   0.25522   0.27073   0.28514
 Alpha virt. eigenvalues --    0.29635   0.30708   0.31024   0.31315   0.31564

 Mulliken charges:
               1
     1  C   -0.173129
     2  C   -0.226457
     3  C   -0.173204
     4  C    0.158896
     5  C   -0.170984
     6  C   -0.218464
     7  H    0.225749
     8  H    0.234533
     9  H    0.276100
    10  H    0.275688
    11  H    0.223474
    12  N    0.488076
    13  O   -0.460472
    14  O   -0.460294
    15  C   -0.298297
    16  C   -0.299906
    17  C   -0.475895
    18  H    0.143757
    19  H    0.154089
    20  H    0.148114
    21  H    0.155586
    22  H    0.157233
    23  H    0.154158
    24  H    0.163416
    25  C   -0.303249
    26  C   -0.299386
    27  C   -0.476336
    28  H    0.142291
    29  H    0.155846
    30  H    0.146916
    31  H    0.155810
    32  H    0.158045
    33  H    0.155062
    34  H    0.163234
 Sum of Mulliken charges =  -0.00000

 Dipole moment (field-independent basis, Debye):
    X=             -4.3288    Y=             -0.3396    Z=              3.1285  Tot=              5.3518
 Quadrupole moment (field-independent basis, Debye-Ang):
   XX=           -117.5438   YY=            -95.8733   ZZ=            -91.8046
   XY=             -1.5616   XZ=             13.4551   YZ=             -0.7048

 Normal termination of Gaussian 16 at Wed May  5 20:42:38 2021.
