 Gaussian 16, Revision A.03,
 Gaussian 16:  EM64L-G16RevA.03 25-Dec-2016

 -------------
 #p 6-31g* mp2
 -------------

 ------------------------------------------------------
 Input file generated by CHIRIPA (05-May-2021 14:55:21)
 ------------------------------------------------------
 Symbolic Z-matrix:
 Charge =  0 Multiplicity = 1

                         Standard orientation:
 ---------------------------------------------------------------------
 Center     Atomic      Atomic             Coordinates (Angstroms)
 Number     Number       Type             X           Y           Z
 ---------------------------------------------------------------------
      1          6           0       -2.380977    1.408699    2.055484
      2          6           0       -1.525417    1.588226    0.963556
      3          6           0       -1.602752    0.741008   -0.145853
      4          6           0       -2.551669   -0.280063   -0.129747
      5          6           0       -3.418048   -0.484522    0.943041
      6          6           0       -3.322902    0.374721    2.041766
      7          1           0       -2.313984    2.071509    2.913150
      8          1           0       -0.792939    2.390385    0.971456
      9          1           0       -0.952726    0.857411   -1.004535
     10          1           0       -4.138029   -1.293030    0.906149
     11          1           0       -3.988632    0.232930    2.888373
     12          7           0       -2.642968   -1.183340   -1.298574
     13          8           0       -3.487568   -2.075411   -1.259887
     14          8           0       -1.868200   -0.982153   -2.231255
     15          6           0        2.651926    0.638485   -0.170160
     16          6           0        2.951227    1.826963   -1.084449
     17          6           0        1.751285    2.759264   -1.254005
     18          1           0        1.802394    0.074410   -0.578889
     19          1           0        2.334866    1.012124    0.813334
     20          1           0        3.268958    1.451188   -2.065498
     21          1           0        3.800267    2.388165   -0.673599
     22          1           0        1.436453    3.161922   -0.285837
     23          1           0        0.902125    2.219622   -1.685645
     24          1           0        1.987316    3.601913   -1.911343
     25          6           0        3.841827   -0.302634    0.009164
     26          6           0        3.542527   -1.491113    0.923453
     27          6           0        4.742468   -2.423413    1.093008
     28          1           0        4.158886   -0.676273   -0.974331
     29          1           0        4.691359    0.261441    0.417893
     30          1           0        2.693486   -2.052314    0.512602
     31          1           0        3.224795   -1.115336    1.904501
     32          1           0        5.591628   -1.883771    1.524649
     33          1           0        5.057300   -2.826072    0.124841
     34          1           0        4.506436   -3.266062    1.750346
 ---------------------------------------------------------------------

 SCF Done:  E(RHF) =  -669.535380831     A.U. after   15 cycles
 E2 =    -0.2092365221D+01 EUMP2 =    -0.67162774605185D+03

 The electronic state is 1-A.
 Alpha  occ. eigenvalues --  -20.60751 -20.60745 -15.85800 -11.31120 -11.27694
 Alpha  occ. eigenvalues --  -11.27656 -11.27427 -11.26710 -11.26659 -11.22105
 Alpha  occ. eigenvalues --  -11.21946 -11.21787 -11.21719 -11.21590 -11.21134
 Alpha  occ. eigenvalues --   -1.59825  -1.39380  -1.19291  -1.08771  -1.08697
 Alpha  occ. eigenvalues --   -1.04689  -1.03900  -0.96380  -0.95539  -0.87402
 Alpha  occ. eigenvalues --   -0.86092  -0.82374  -0.79982  -0.78566  -0.77407
 Alpha  occ. eigenvalues --   -0.72021  -0.71146  -0.70419  -0.65420  -0.64944
 Alpha  occ. eigenvalues --   -0.64680  -0.62096  -0.61278  -0.59734  -0.57967
 Alpha  occ. eigenvalues --   -0.55696  -0.55202  -0.53082  -0.53011  -0.52824
 Alpha  occ. eigenvalues --   -0.52769  -0.50320  -0.48781  -0.48775  -0.48277
 Alpha  occ. eigenvalues --   -0.46975  -0.46098  -0.45985  -0.44793  -0.44128
 Alpha  occ. eigenvalues --   -0.37277  -0.36272
 Alpha virt. eigenvalues --    0.05086   0.11320   0.16570   0.19549   0.22896
 Alpha virt. eigenvalues --    0.23842   0.24490   0.25966   0.27411   0.27931
 Alpha virt. eigenvalues --    0.29084   0.30459   0.31500   0.31572   0.32543

 Mulliken charges:
               1
     1  C   -0.171400
     2  C   -0.223027
     3  C   -0.178649
     4  C    0.159647
     5  C   -0.170561
     6  C   -0.218653
     7  H    0.225388
     8  H    0.228056
     9  H    0.283356
    10  H    0.275264
    11  H    0.223103
    12  N    0.487774
    13  O   -0.460386
    14  O   -0.461431
    15  C   -0.302215
    16  C   -0.299386
    17  C   -0.482729
    18  H    0.154223
    19  H    0.145000
    20  H    0.158060
    21  H    0.153491
    22  H    0.147791
    23  H    0.154719
    24  H    0.167043
    25  C   -0.298610
    26  C   -0.300508
    27  C   -0.476042
    28  H    0.153008
    29  H    0.149255
    30  H    0.156049
    31  H    0.149942
    32  H    0.154313
    33  H    0.157027
    34  H    0.161090
 Sum of Mulliken charges =  -0.00000

 Dipole moment (field-independent basis, Debye):
    X=              0.4816    Y=              3.1356    Z=              4.0480  Tot=              5.1430
 Quadrupole moment (field-independent basis, Debye-Ang):
   XX=            -94.1275   YY=            -96.0904   ZZ=            -94.6973
   XY=             -5.3843   XZ=            -12.8516   YZ=             -2.3177

 Normal termination of Gaussian 16 at Wed May  5 20:38:05 2021.
