 Gaussian 16, Revision A.03,
 Gaussian 16:  EM64L-G16RevA.03 25-Dec-2016

 -------------
 #p 6-31g* mp2
 -------------

 ------------------------------------------------------
 Input file generated by CHIRIPA (05-May-2021 14:55:22)
 ------------------------------------------------------
 Symbolic Z-matrix:
 Charge =  0 Multiplicity = 1

                         Standard orientation:
 ---------------------------------------------------------------------
 Center     Atomic      Atomic             Coordinates (Angstroms)
 Number     Number       Type             X           Y           Z
 ---------------------------------------------------------------------
      1          6           0        1.856534    2.285314    0.619848
      2          6           0        1.395597    1.682990   -0.555424
      3          6           0        1.813916    0.395522   -0.904686
      4          6           0        2.697708   -0.263748   -0.051713
      5          6           0        3.174746    0.309596    1.125997
      6          6           0        2.743075    1.597907    1.455334
      7          1           0        1.526388    3.285778    0.883424
      8          1           0        0.707051    2.214471   -1.206175
      9          1           0        1.472775   -0.094394   -1.808579
     10          1           0        3.860625   -0.245170    1.754664
     11          1           0        3.102691    2.063204    2.368691
     12          7           0        3.147631   -1.627179   -0.410914
     13          8           0        3.926674   -2.186926    0.357470
     14          8           0        2.712720   -2.110273   -1.454039
     15          6           0       -3.360610   -0.701561   -0.146068
     16          6           0       -4.301376   -1.481651    0.772847
     17          6           0       -4.295257   -2.983776    0.487578
     18          1           0       -3.648814   -0.878914   -1.191261
     19          1           0       -2.340246   -1.093148   -0.032436
     20          1           0       -5.319425   -1.087789    0.658539
     21          1           0       -4.011018   -1.302269    1.815982
     22          1           0       -3.290222   -3.397068    0.620599
     23          1           0       -4.606062   -3.181370   -0.543420
     24          1           0       -4.974629   -3.522091    1.155807
     25          6           0       -3.355692    0.801500    0.126899
     26          6           0       -2.414926    1.581590   -0.792015
     27          6           0       -2.421045    3.083715   -0.506746
     28          1           0       -4.376056    1.193087    0.013267
     29          1           0       -3.067489    0.978853    1.172093
     30          1           0       -2.705284    1.402207   -1.835149
     31          1           0       -1.396878    1.187727   -0.677707
     32          1           0       -2.110241    3.281308    0.524252
     33          1           0       -3.426080    3.497008   -0.639766
     34          1           0       -1.741673    3.622029   -1.174975
 ---------------------------------------------------------------------

 SCF Done:  E(RHF) =  -669.534976585     A.U. after   15 cycles
 E2 =    -0.2092583902D+01 EUMP2 =    -0.67162756048662D+03

 The electronic state is 1-A.
 Alpha  occ. eigenvalues --  -20.60800 -20.60794 -15.85853 -11.31235 -11.27801
 Alpha  occ. eigenvalues --  -11.27793 -11.27529 -11.26821 -11.26773 -11.22222
 Alpha  occ. eigenvalues --  -11.21990 -11.21823 -11.21756 -11.21615 -11.21095
 Alpha  occ. eigenvalues --   -1.59875  -1.39428  -1.19411  -1.08845  -1.08777
 Alpha  occ. eigenvalues --   -1.04822  -1.03957  -0.96412  -0.95628  -0.87423
 Alpha  occ. eigenvalues --   -0.86208  -0.82469  -0.80050  -0.78599  -0.77502
 Alpha  occ. eigenvalues --   -0.72070  -0.71199  -0.70500  -0.65520  -0.65056
 Alpha  occ. eigenvalues --   -0.64793  -0.62230  -0.61295  -0.59815  -0.58008
 Alpha  occ. eigenvalues --   -0.55686  -0.55294  -0.53181  -0.53121  -0.52903
 Alpha  occ. eigenvalues --   -0.52789  -0.50333  -0.48831  -0.48825  -0.48350
 Alpha  occ. eigenvalues --   -0.47054  -0.46140  -0.46028  -0.44829  -0.44195
 Alpha  occ. eigenvalues --   -0.37377  -0.36364
 Alpha virt. eigenvalues --    0.05002   0.11176   0.16390   0.20103   0.22805
 Alpha virt. eigenvalues --    0.23948   0.26087   0.26319   0.26682   0.28324
 Alpha virt. eigenvalues --    0.29300   0.29692   0.31118   0.31607   0.32182

 Mulliken charges:
               1
     1  C   -0.173714
     2  C   -0.219049
     3  C   -0.172933
     4  C    0.158688
     5  C   -0.170979
     6  C   -0.218586
     7  H    0.226672
     8  H    0.230421
     9  H    0.276574
    10  H    0.275757
    11  H    0.223650
    12  N    0.488014
    13  O   -0.460360
    14  O   -0.460111
    15  C   -0.299608
    16  C   -0.300019
    17  C   -0.476376
    18  H    0.150405
    19  H    0.152304
    20  H    0.151575
    21  H    0.151935
    22  H    0.158237
    23  H    0.155804
    24  H    0.160738
    25  C   -0.297177
    26  C   -0.308723
    27  C   -0.478120
    28  H    0.150414
    29  H    0.149967
    30  H    0.153118
    31  H    0.154126
    32  H    0.154151
    33  H    0.161274
    34  H    0.151931
 Sum of Mulliken charges =  -0.00000

 Dipole moment (field-independent basis, Debye):
    X=             -1.6322    Y=              4.7285    Z=              1.3051  Tot=              5.1697
 Quadrupole moment (field-independent basis, Debye-Ang):
   XX=           -101.4666   YY=            -99.2155   ZZ=            -91.2774
   XY=             13.3134   XZ=              6.7041   YZ=             -0.8025

 Normal termination of Gaussian 16 at Thu May  6 15:53:31 2021.
