 Gaussian 16, Revision A.03,
 Gaussian 16:  EM64L-G16RevA.03 25-Dec-2016

 -------------
 #p 6-31g* mp2
 -------------

 ------------------------------------------------------
 Input file generated by CHIRIPA (05-May-2021 14:55:21)
 ------------------------------------------------------
 Symbolic Z-matrix:
 Charge =  0 Multiplicity = 1

                         Standard orientation:
 ---------------------------------------------------------------------
 Center     Atomic      Atomic             Coordinates (Angstroms)
 Number     Number       Type             X           Y           Z
 ---------------------------------------------------------------------
      1          6           0       -2.588011   -2.404001    0.484012
      2          6           0       -2.947890   -1.874111   -0.759461
      3          6           0       -3.075338   -0.492686   -0.932576
      4          6           0       -2.834427    0.333383    0.164175
      5          6           0       -2.474360   -0.164227    1.415585
      6          6           0       -2.352810   -1.548876    1.565659
      7          1           0       -2.491298   -3.478378    0.609542
      8          1           0       -3.131159   -2.535817   -1.601248
      9          1           0       -3.352611   -0.055699   -1.884195
     10          1           0       -2.298075    0.520648    2.236125
     11          1           0       -2.073183   -1.957590    2.532513
     12          7           0       -2.966228    1.797542   -0.006898
     13          8           0       -2.748577    2.503988    0.975039
     14          8           0       -3.284690    2.210981   -1.119682
     15          6           0        2.902992   -0.372332   -0.065993
     16          6           0        1.936351   -0.382853   -1.250679
     17          6           0        0.545537   -0.894480   -0.874292
     18          1           0        2.982935   -1.388886    0.342875
     19          1           0        2.484839    0.254315    0.733918
     20          1           0        2.356851   -1.008178   -2.048654
     21          1           0        1.858849    0.633807   -1.656894
     22          1           0        0.101846   -0.266357   -0.095060
     23          1           0        0.602679   -1.917671   -0.489047
     24          1           0       -0.129322   -0.893582   -1.735932
     25          6           0        4.297531    0.136628   -0.426474
     26          6           0        5.264171    0.147150    0.758212
     27          6           0        6.654986    0.658775    0.381825
     28          1           0        4.715684   -0.490019   -1.226384
     29          1           0        4.217589    1.153182   -0.835342
     30          1           0        5.341674   -0.869511    1.164427
     31          1           0        4.843672    0.772475    1.556188
     32          1           0        6.597845    1.681968   -0.003420
     33          1           0        7.098676    0.030653   -0.397406
     34          1           0        7.329845    0.657877    1.243466
 ---------------------------------------------------------------------

 SCF Done:  E(RHF) =  -669.533480951     A.U. after   15 cycles
 E2 =    -0.2094234258D+01 EUMP2 =    -0.67162771520934D+03

 The electronic state is 1-A.
 Alpha  occ. eigenvalues --  -20.60775 -20.60769 -15.85827 -11.31151 -11.27736
 Alpha  occ. eigenvalues --  -11.27728 -11.27499 -11.26772 -11.26761 -11.21607
 Alpha  occ. eigenvalues --  -11.21535 -11.21408 -11.21343 -11.21061 -11.20970
 Alpha  occ. eigenvalues --   -1.59852  -1.39406  -1.19367  -1.08757  -1.08420
 Alpha  occ. eigenvalues --   -1.04771  -1.03512  -0.95973  -0.95592  -0.86995
 Alpha  occ. eigenvalues --   -0.86166  -0.82430  -0.79591  -0.78244  -0.77476
 Alpha  occ. eigenvalues --   -0.72048  -0.71180  -0.70478  -0.65054  -0.65016
 Alpha  occ. eigenvalues --   -0.64775  -0.62118  -0.60927  -0.59367  -0.57598
 Alpha  occ. eigenvalues --   -0.55341  -0.55271  -0.53681  -0.52863  -0.52527
 Alpha  occ. eigenvalues --   -0.51933  -0.49881  -0.48805  -0.48803  -0.47874
 Alpha  occ. eigenvalues --   -0.46616  -0.45767  -0.45706  -0.44816  -0.43772
 Alpha  occ. eigenvalues --   -0.37284  -0.36277
 Alpha virt. eigenvalues --    0.05029   0.11225   0.16475   0.21368   0.22862
 Alpha virt. eigenvalues --    0.24279   0.26650   0.27179   0.27495   0.27970
 Alpha virt. eigenvalues --    0.28262   0.30909   0.31388   0.31902   0.32060

 Mulliken charges:
               1
     1  C   -0.168956
     2  C   -0.214787
     3  C   -0.170857
     4  C    0.163189
     5  C   -0.175887
     6  C   -0.214448
     7  H    0.225434
     8  H    0.223329
     9  H    0.275210
    10  H    0.275265
    11  H    0.223474
    12  N    0.487640
    13  O   -0.461010
    14  O   -0.460644
    15  C   -0.298090
    16  C   -0.301178
    17  C   -0.472943
    18  H    0.146299
    19  H    0.150076
    20  H    0.149446
    21  H    0.154921
    22  H    0.158451
    23  H    0.147948
    24  H    0.157323
    25  C   -0.298305
    26  C   -0.299611
    27  C   -0.475741
    28  H    0.148821
    29  H    0.151749
    30  H    0.150314
    31  H    0.152470
    32  H    0.156325
    33  H    0.154766
    34  H    0.160007
 Sum of Mulliken charges =  -0.00000

 Dipole moment (field-independent basis, Debye):
    X=              0.3656    Y=             -5.1603    Z=              0.6124  Tot=              5.2094
 Quadrupole moment (field-independent basis, Debye-Ang):
   XX=            -99.0533   YY=            -97.9673   ZZ=            -90.0305
   XY=             14.8069   XZ=             -0.1686   YZ=              0.2733

 Normal termination of Gaussian 16 at Thu May  6 02:58:43 2021.
