 Gaussian 16, Revision A.03,
 Gaussian 16:  EM64L-G16RevA.03 25-Dec-2016

 -------------
 #p 6-31g* mp2
 -------------

 ------------------------------------------------------
 Input file generated by CHIRIPA (05-May-2021 14:51:14)
 ------------------------------------------------------
 Symbolic Z-matrix:
 Charge =  0 Multiplicity = 1

                         Standard orientation:
 ---------------------------------------------------------------------
 Center     Atomic      Atomic             Coordinates (Angstroms)
 Number     Number       Type             X           Y           Z
 ---------------------------------------------------------------------
      1          6           0        3.244418   -0.330589   -0.604293
      2          6           0        3.187037   -1.837906   -0.353918
      3          6           0        2.051335   -2.520997   -1.116390
      4          1           0        2.284582    0.119382   -0.315872
      5          1           0        3.363566   -0.149139   -1.681453
      6          1           0        3.069421   -2.016486    0.722600
      7          1           0        4.147188   -2.284314   -0.642789
      8          1           0        2.167263   -2.372258   -2.194832
      9          1           0        1.083373   -2.102908   -0.821685
     10          1           0        2.028761   -3.597998   -0.922949
     11          6           0        4.374600    0.366408    0.151095
     12          6           0        4.431981    1.873725   -0.099279
     13          6           0        5.567683    2.556816    0.663192
     14          1           0        4.255452    0.184958    1.228255
     15          1           0        5.334436   -0.083563   -0.137325
     16          1           0        3.471830    2.320133    0.189591
     17          1           0        4.549597    2.052305   -1.175798
     18          1           0        6.535645    2.138727    0.368488
     19          1           0        5.451755    2.408077    1.741635
     20          1           0        5.590256    3.633817    0.469752
     21          6           0       -4.527137    0.232839    0.301216
     22          6           0       -4.906812    1.299222   -0.726724
     23          6           0       -6.345468    1.790928   -0.564584
     24          1           0       -5.218593   -0.616185    0.211819
     25          1           0       -4.663969    0.642338    1.311652
     26          1           0       -4.767984    0.888293   -1.734930
     27          1           0       -4.214253    2.145723   -0.634998
     28          1           0       -6.494205    2.226029    0.428978
     29          1           0       -7.051083    0.961455   -0.677204
     30          1           0       -6.595721    2.552734   -1.309489
     31          6           0       -3.091881   -0.268658    0.151982
     32          6           0       -2.712206   -1.335041    1.179922
     33          6           0       -1.273550   -1.826747    1.017781
     34          1           0       -2.955049   -0.678158   -0.858454
     35          1           0       -2.400425    0.580365    0.241379
     36          1           0       -3.404765   -2.181542    1.088195
     37          1           0       -2.851034   -0.924112    2.188128
     38          1           0       -0.567935   -0.997274    1.130402
     39          1           0       -1.124813   -2.261848    0.024220
     40          1           0       -1.023297   -2.588554    1.762687
 ---------------------------------------------------------------------

 SCF Done:  E(RHF) =  -470.732985543     A.U. after   11 cycles
 E2 =    -0.1582649575D+01 EUMP2 =    -0.47231563511805D+03

 The electronic state is 1-A.
 Alpha  occ. eigenvalues --  -11.21642 -11.21618 -11.21580 -11.21510 -11.21435
 Alpha  occ. eigenvalues --  -11.21375 -11.21361 -11.21300 -11.21133 -11.21084
 Alpha  occ. eigenvalues --  -11.21056 -11.20885  -1.08463  -1.08376  -1.03574
 Alpha  occ. eigenvalues --   -1.03457  -0.96044  -0.95892  -0.87083  -0.86892
 Alpha  occ. eigenvalues --   -0.79678  -0.79491  -0.78280  -0.78184  -0.65092
 Alpha  occ. eigenvalues --   -0.65010  -0.60978  -0.60865  -0.59387  -0.59280
 Alpha  occ. eigenvalues --   -0.57698  -0.57478  -0.55391  -0.55149  -0.52724
 Alpha  occ. eigenvalues --   -0.52610  -0.52564  -0.52219  -0.50064  -0.49748
 Alpha  occ. eigenvalues --   -0.48065  -0.47726  -0.46692  -0.46501  -0.45860
 Alpha  occ. eigenvalues --   -0.45739  -0.45696  -0.45583  -0.43818  -0.43725
 Alpha virt. eigenvalues --    0.21739   0.22968   0.23705   0.24722   0.26170
 Alpha virt. eigenvalues --    0.26302   0.27245   0.27606   0.27725   0.29111
 Alpha virt. eigenvalues --    0.30692   0.31143   0.31748   0.31860   0.32100

 Mulliken charges:
               1
     1  C   -0.298825
     2  C   -0.298876
     3  C   -0.483588
     4  H    0.149534
     5  H    0.149417
     6  H    0.151894
     7  H    0.151323
     8  H    0.153718
     9  H    0.165616
    10  H    0.159172
    11  C   -0.298265
    12  C   -0.299543
    13  C   -0.475669
    14  H    0.149391
    15  H    0.149652
    16  H    0.151589
    17  H    0.151924
    18  H    0.155198
    19  H    0.155097
    20  H    0.160121
    21  C   -0.298299
    22  C   -0.299689
    23  C   -0.475732
    24  H    0.149777
    25  H    0.149544
    26  H    0.152080
    27  H    0.151952
    28  H    0.155177
    29  H    0.155226
    30  H    0.160340
    31  C   -0.298414
    32  C   -0.299830
    33  C   -0.479054
    34  H    0.149781
    35  H    0.149373
    36  H    0.152300
    37  H    0.151908
    38  H    0.154738
    39  H    0.158883
    40  H    0.161060
 Sum of Mulliken charges =  -0.00000

 Dipole moment (field-independent basis, Debye):
    X=             -0.0555    Y=             -0.0099    Z=              0.0120  Tot=              0.0576
 Quadrupole moment (field-independent basis, Debye-Ang):
   XX=            -86.0200   YY=            -84.8689   ZZ=            -84.0119
   XY=              0.2011   XZ=             -0.6343   YZ=              0.2428

 Normal termination of Gaussian 16 at Wed May  5 15:23:23 2021.
