 Gaussian 16, Revision A.03,
 Gaussian 16:  EM64L-G16RevA.03 25-Dec-2016

 -------------
 #p 6-31g* mp2
 -------------

 ------------------------------------------------------
 Input file generated by CHIRIPA (05-May-2021 14:53:11)
 ------------------------------------------------------
 Symbolic Z-matrix:
 Charge =  0 Multiplicity = 1

                         Standard orientation:
 ---------------------------------------------------------------------
 Center     Atomic      Atomic             Coordinates (Angstroms)
 Number     Number       Type             X           Y           Z
 ---------------------------------------------------------------------
      1          6           0       -2.369642    1.068264   -0.341646
      2          6           0       -2.299979    2.580157   -0.124128
      3          6           0       -0.948011    3.173002   -0.522263
      4          1           0       -1.570743    0.583879    0.236347
      5          1           0       -2.168424    0.847317   -1.399043
      6          1           0       -2.502634    2.798288    0.932265
      7          1           0       -3.099257    3.060982   -0.702554
      8          1           0       -0.741372    2.984481   -1.580734
      9          1           0       -0.141359    2.720294    0.063373
     10          1           0       -0.920160    4.254804   -0.358596
     11          6           0       -3.715057    0.460968    0.051775
     12          6           0       -3.784720   -1.050924   -0.165743
     13          6           0       -5.136688   -1.643769    0.232392
     14          1           0       -3.916275    0.681915    1.109172
     15          1           0       -4.513957    0.945353   -0.526217
     16          1           0       -2.985442   -1.531749    0.412684
     17          1           0       -3.582065   -1.269055   -1.222135
     18          1           0       -5.943340   -1.191062   -0.353244
     19          1           0       -5.343327   -1.455248    1.290864
     20          1           0       -5.164540   -2.725572    0.068725
     21          6           0        4.344636    0.981748    0.102517
     22          6           0        4.238964   -0.011666   -0.876506
     23          6           0        3.152998   -0.892126   -0.880300
     24          6           0        2.186596   -0.750019    0.114266
     25          6           0        2.263727    0.229495    1.103151
     26          6           0        3.358419    1.098951    1.087484
     27          1           0        5.191630    1.661436    0.097905
     28          1           0        5.003376   -0.105030   -1.642667
     29          1           0        3.046350   -1.670235   -1.626350
     30          1           0        1.485945    0.297875    1.854016
     31          1           0        3.437882    1.869501    1.849051
     32          7           0        1.032314   -1.676297    0.120551
     33          8           0        0.194233   -1.530255    1.007642
     34          8           0        0.987524   -2.530818   -0.761734
 ---------------------------------------------------------------------

 SCF Done:  E(RHF) =  -669.536805023     A.U. after   15 cycles
 E2 =    -0.2092353027D+01 EUMP2 =    -0.67162915805091D+03

 The electronic state is 1-A.
 Alpha  occ. eigenvalues --  -20.61045 -20.61035 -15.86042 -11.31333 -11.27900
 Alpha  occ. eigenvalues --  -11.27879 -11.27610 -11.26894 -11.26880 -11.21134
 Alpha  occ. eigenvalues --  -11.20883 -11.20520 -11.20457 -11.20320 -11.20087
 Alpha  occ. eigenvalues --   -1.60077  -1.39639  -1.19493  -1.08901  -1.07602
 Alpha  occ. eigenvalues --   -1.04886  -1.02771  -0.95751  -0.95262  -0.86293
 Alpha  occ. eigenvalues --   -0.86286  -0.82591  -0.78841  -0.77661  -0.77335
 Alpha  occ. eigenvalues --   -0.72272  -0.71374  -0.70601  -0.65154  -0.64888
 Alpha  occ. eigenvalues --   -0.64227  -0.62237  -0.60173  -0.58662  -0.56842
 Alpha  occ. eigenvalues --   -0.55389  -0.54575  -0.53207  -0.52977  -0.51995
 Alpha  occ. eigenvalues --   -0.51687  -0.49264  -0.49027  -0.49021  -0.47158
 Alpha  occ. eigenvalues --   -0.45900  -0.45369  -0.44893  -0.44360  -0.42996
 Alpha  occ. eigenvalues --   -0.37458  -0.36475
 Alpha virt. eigenvalues --    0.04824   0.11130   0.16288   0.21129   0.23503
 Alpha virt. eigenvalues --    0.24883   0.26739   0.27497   0.27887   0.28614
 Alpha virt. eigenvalues --    0.28958   0.31008   0.31734   0.32237   0.32659

 Mulliken charges:
               1
     1  C   -0.307083
     2  C   -0.298666
     3  C   -0.474911
     4  H    0.163768
     5  H    0.146957
     6  H    0.149482
     7  H    0.150498
     8  H    0.154951
     9  H    0.148896
    10  H    0.156929
    11  C   -0.296562
    12  C   -0.306115
    13  C   -0.475404
    14  H    0.146746
    15  H    0.144654
    16  H    0.173879
    17  H    0.150241
    18  H    0.150258
    19  H    0.152579
    20  H    0.160397
    21  C   -0.170244
    22  C   -0.218253
    23  C   -0.170577
    24  C    0.159129
    25  C   -0.171081
    26  C   -0.218373
    27  H    0.226315
    28  H    0.224046
    29  H    0.275911
    30  H    0.275582
    31  H    0.224365
    32  N    0.489076
    33  O   -0.460075
    34  O   -0.457312
 Sum of Mulliken charges =  -0.00000

 Dipole moment (field-independent basis, Debye):
    X=              4.3383    Y=              3.0231    Z=              0.0064  Tot=              5.2877
 Quadrupole moment (field-independent basis, Debye-Ang):
   XX=            -78.3089   YY=            -99.9035   ZZ=            -90.9542
   XY=              3.0230   XZ=             -0.9232   YZ=              2.6346

 Normal termination of Gaussian 16 at Thu May  6 04:03:35 2021.
