 Gaussian 16, Revision A.03,
 Gaussian 16:  EM64L-G16RevA.03 25-Dec-2016

 -------------
 #p 6-31g* mp2
 -------------

 ------------------------------------------------------
 Input file generated by CHIRIPA (05-May-2021 14:55:22)
 ------------------------------------------------------
 Symbolic Z-matrix:
 Charge =  0 Multiplicity = 1

                         Standard orientation:
 ---------------------------------------------------------------------
 Center     Atomic      Atomic             Coordinates (Angstroms)
 Number     Number       Type             X           Y           Z
 ---------------------------------------------------------------------
      1          6           0        0.976848   -1.669180    0.796308
      2          6           0        2.279242   -1.988461    1.194239
      3          6           0        3.361220   -1.209177    0.774017
      4          6           0        3.103367   -0.112792   -0.047410
      5          6           0        1.817222    0.230992   -0.460852
      6          6           0        0.750393   -0.562423   -0.028513
      7          1           0        0.142225   -2.280035    1.127453
      8          1           0        2.458090   -2.847400    1.834772
      9          1           0        4.379605   -1.433698    1.067104
     10          1           0        1.670349    1.093368   -1.099721
     11          1           0       -0.260003   -0.312091   -0.339121
     12          7           0        4.240790    0.719682   -0.498694
     13          8           0        3.987101    1.680411   -1.222074
     14          8           0        5.364453    0.395682   -0.120487
     15          6           0       -3.952752    1.049043    0.023306
     16          6           0       -2.867715    1.967702    0.586106
     17          6           0       -3.323675    3.422991    0.695768
     18          1           0       -4.256863    1.415104   -0.966876
     19          1           0       -4.842613    1.108071    0.665223
     20          1           0       -1.979675    1.905902   -0.055908
     21          1           0       -2.566016    1.599300    1.574981
     22          1           0       -4.195559    3.505054    1.352795
     23          1           0       -3.605887    3.813398   -0.287360
     24          1           0       -2.532665    4.062136    1.100311
     25          6           0       -3.511967   -0.409059   -0.092341
     26          6           0       -4.597004   -1.327719   -0.655141
     27          6           0       -4.141043   -2.783009   -0.764803
     28          1           0       -2.622106   -0.468088   -0.734258
     29          1           0       -3.207856   -0.775121    0.897842
     30          1           0       -4.898703   -0.959316   -1.644016
     31          1           0       -5.485044   -1.265920   -0.013127
     32          1           0       -3.858832   -3.173415    0.218325
     33          1           0       -3.269160   -2.865071   -1.421830
     34          1           0       -4.932055   -3.422153   -1.169346
 ---------------------------------------------------------------------

 SCF Done:  E(RHF) =  -669.535563339     A.U. after   15 cycles
 E2 =    -0.2091691202D+01 EUMP2 =    -0.67162725454124D+03

 The electronic state is 1-A.
 Alpha  occ. eigenvalues --  -20.60704 -20.60699 -15.85756 -11.31102 -11.27670
 Alpha  occ. eigenvalues --  -11.27656 -11.27390 -11.26684 -11.26612 -11.22570
 Alpha  occ. eigenvalues --  -11.22492 -11.22454 -11.22248 -11.21971 -11.21663
 Alpha  occ. eigenvalues --   -1.59780  -1.39334  -1.19268  -1.09382  -1.08663
 Alpha  occ. eigenvalues --   -1.04667  -1.04374  -0.96827  -0.95504  -0.87835
 Alpha  occ. eigenvalues --   -0.86068  -0.82340  -0.80452  -0.79247  -0.77384
 Alpha  occ. eigenvalues --   -0.71975  -0.71102  -0.70373  -0.66038  -0.64917
 Alpha  occ. eigenvalues --   -0.64656  -0.62024  -0.61762  -0.60191  -0.58441
 Alpha  occ. eigenvalues --   -0.56119  -0.55162  -0.53480  -0.53265  -0.52998
 Alpha  occ. eigenvalues --   -0.52757  -0.50761  -0.48769  -0.48734  -0.48731
 Alpha  occ. eigenvalues --   -0.47493  -0.46709  -0.46661  -0.44744  -0.44660
 Alpha  occ. eigenvalues --   -0.37246  -0.36269
 Alpha virt. eigenvalues --    0.05138   0.11361   0.16617   0.19404   0.22691
 Alpha virt. eigenvalues --    0.23167   0.24434   0.25816   0.27083   0.28268
 Alpha virt. eigenvalues --    0.29549   0.30573   0.30830   0.31413   0.31873

 Mulliken charges:
               1
     1  C   -0.174319
     2  C   -0.218463
     3  C   -0.171469
     4  C    0.158976
     5  C   -0.173630
     6  C   -0.226367
     7  H    0.226274
     8  H    0.222968
     9  H    0.275207
    10  H    0.275197
    11  H    0.236858
    12  N    0.488027
    13  O   -0.460700
    14  O   -0.460771
    15  C   -0.298536
    16  C   -0.301138
    17  C   -0.476423
    18  H    0.152818
    19  H    0.153446
    20  H    0.146136
    21  H    0.153270
    22  H    0.157197
    23  H    0.157241
    24  H    0.164077
    25  C   -0.304416
    26  C   -0.299123
    27  C   -0.476994
    28  H    0.143924
    29  H    0.147684
    30  H    0.155563
    31  H    0.155658
    32  H    0.152685
    33  H    0.154228
    34  H    0.164918
 Sum of Mulliken charges =  -0.00000

 Dipole moment (field-independent basis, Debye):
    X=             -4.2945    Y=             -2.8658    Z=              1.6073  Tot=              5.4073
 Quadrupole moment (field-independent basis, Debye-Ang):
   XX=           -116.9194   YY=            -93.5788   ZZ=            -93.3390
   XY=            -10.7444   XZ=              6.7627   YZ=             -2.0089

 Normal termination of Gaussian 16 at Thu May  6 19:14:28 2021.
