 Gaussian 16, Revision A.03,
 Gaussian 16:  EM64L-G16RevA.03 25-Dec-2016

 -------------
 #p 6-31g* mp2
 -------------

 ------------------------------------------------------
 Input file generated by CHIRIPA (05-May-2021 14:55:25)
 ------------------------------------------------------
 Symbolic Z-matrix:
 Charge =  0 Multiplicity = 1

                         Standard orientation:
 ---------------------------------------------------------------------
 Center     Atomic      Atomic             Coordinates (Angstroms)
 Number     Number       Type             X           Y           Z
 ---------------------------------------------------------------------
      1          6           0       -1.824419    2.216882    0.186271
      2          6           0       -2.022986    1.631729   -1.068595
      3          6           0       -2.586240    0.356706   -1.176340
      4          6           0       -2.940888   -0.307765   -0.003313
      5          6           0       -2.755661    0.248573    1.261389
      6          6           0       -2.190745    1.524657    1.345214
      7          1           0       -1.386224    3.207763    0.260679
      8          1           0       -1.739448    2.166989   -1.970342
      9          1           0       -2.751090   -0.119828   -2.135067
     10          1           0       -3.048374   -0.309570    2.142419
     11          1           0       -2.037702    1.976628    2.321096
     12          7           0       -3.538060   -1.658137   -0.104716
     13          8           0       -3.842005   -2.222794    0.943815
     14          8           0       -3.690870   -2.126331   -1.230807
     15          6           0        3.575187    0.865769   -0.099858
     16          6           0        2.132872    1.366540   -0.016558
     17          6           0        2.022799    2.882354   -0.183857
     18          1           0        4.175432    1.365889    0.672496
     19          1           0        4.003051    1.160771   -1.068002
     20          1           0        1.707408    1.069484    0.950579
     21          1           0        1.535948    0.865028   -0.789076
     22          1           0        2.421733    3.192722   -1.155003
     23          1           0        2.594168    3.398339    0.594536
     24          1           0        0.983216    3.218762   -0.120934
     25          6           0        3.701528   -0.647638    0.065555
     26          6           0        5.143845   -1.148409   -0.017746
     27          6           0        5.253917   -2.664222    0.149554
     28          1           0        3.273665   -0.942639    1.033698
     29          1           0        3.101283   -1.147758   -0.706800
     30          1           0        5.740767   -0.646897    0.754772
     31          1           0        5.569308   -0.851352   -0.984883
     32          1           0        4.682548   -3.180208   -0.628841
     33          1           0        4.854982   -2.974591    1.120699
     34          1           0        6.293499   -3.000630    0.086629
 ---------------------------------------------------------------------

 SCF Done:  E(RHF) =  -669.535254097     A.U. after   15 cycles
 E2 =    -0.2092049118D+01 EUMP2 =    -0.67162730321465D+03

 The electronic state is 1-A.
 Alpha  occ. eigenvalues --  -20.60782 -20.60776 -15.85836 -11.31211 -11.27789
 Alpha  occ. eigenvalues --  -11.27784 -11.27532 -11.26811 -11.26799 -11.22085
 Alpha  occ. eigenvalues --  -11.21852 -11.21782 -11.21756 -11.21606 -11.21165
 Alpha  occ. eigenvalues --   -1.59857  -1.39410  -1.19391  -1.08809  -1.08744
 Alpha  occ. eigenvalues --   -1.04795  -1.03901  -0.96378  -0.95615  -0.87391
 Alpha  occ. eigenvalues --   -0.86192  -0.82451  -0.79958  -0.78543  -0.77490
 Alpha  occ. eigenvalues --   -0.72055  -0.71180  -0.70539  -0.65395  -0.65046
 Alpha  occ. eigenvalues --   -0.64802  -0.62142  -0.61293  -0.59817  -0.58000
 Alpha  occ. eigenvalues --   -0.55650  -0.55329  -0.53220  -0.52972  -0.52888
 Alpha  occ. eigenvalues --   -0.52725  -0.50296  -0.48815  -0.48808  -0.48270
 Alpha  occ. eigenvalues --   -0.46981  -0.46092  -0.46003  -0.44814  -0.44156
 Alpha  occ. eigenvalues --   -0.37334  -0.36391
 Alpha virt. eigenvalues --    0.05014   0.11212   0.16409   0.20438   0.22708
 Alpha virt. eigenvalues --    0.24133   0.26324   0.26455   0.27170   0.27294
 Alpha virt. eigenvalues --    0.28494   0.30349   0.31037   0.31689   0.32281

 Mulliken charges:
               1
     1  C   -0.167623
     2  C   -0.218659
     3  C   -0.171275
     4  C    0.158919
     5  C   -0.170728
     6  C   -0.219797
     7  H    0.226686
     8  H    0.224067
     9  H    0.275657
    10  H    0.275696
    11  H    0.223700
    12  N    0.488072
    13  O   -0.460346
    14  O   -0.460447
    15  C   -0.299106
    16  C   -0.298403
    17  C   -0.477049
    18  H    0.149527
    19  H    0.149553
    20  H    0.152404
    21  H    0.153938
    22  H    0.156622
    23  H    0.156955
    24  H    0.147715
    25  C   -0.298614
    26  C   -0.299933
    27  C   -0.476008
    28  H    0.150366
    29  H    0.151324
    30  H    0.151637
    31  H    0.151867
    32  H    0.156599
    33  H    0.155972
    34  H    0.160710
 Sum of Mulliken charges =  -0.00000

 Dipole moment (field-independent basis, Debye):
    X=              2.1383    Y=              4.6720    Z=              0.3635  Tot=              5.1510
 Quadrupole moment (field-independent basis, Debye-Ang):
   XX=           -107.8276   YY=            -99.7710   ZZ=            -88.7224
   XY=            -14.6405   XZ=             -1.3983   YZ=             -0.1193

 Normal termination of Gaussian 16 at Thu May  6 04:47:28 2021.
