 Gaussian 16, Revision A.03,
 Gaussian 16:  EM64L-G16RevA.03 25-Dec-2016

 -------------
 #p 6-31g* mp2
 -------------

 ------------------------------------------------------
 Input file generated by CHIRIPA (05-May-2021 14:51:09)
 ------------------------------------------------------
 Symbolic Z-matrix:
 Charge =  0 Multiplicity = 1

                         Standard orientation:
 ---------------------------------------------------------------------
 Center     Atomic      Atomic             Coordinates (Angstroms)
 Number     Number       Type             X           Y           Z
 ---------------------------------------------------------------------
      1          6           0        4.062939    0.995980    0.068022
      2          6           0        2.620839    1.286243   -0.349207
      3          6           0        2.176854    2.705497    0.006305
      4          1           0        4.163281    1.152701    1.150757
      5          1           0        4.730575    1.722118   -0.416107
      6          1           0        1.956266    0.558912    0.134474
      7          1           0        2.523874    1.128627   -1.431044
      8          1           0        2.815907    3.444274   -0.488086
      9          1           0        2.245074    2.871322    1.086328
     10          1           0        1.142973    2.891514   -0.300854
     11          6           0        4.521371   -0.418934   -0.280673
     12          6           0        5.963470   -0.709197    0.136557
     13          6           0        6.407456   -2.128452   -0.218955
     14          1           0        3.853735   -1.145072    0.203457
     15          1           0        4.421029   -0.575656   -1.363408
     16          1           0        6.060436   -0.551581    1.218393
     17          1           0        6.628044    0.018133   -0.347125
     18          1           0        6.339236   -2.294277   -1.298978
     19          1           0        5.768403   -2.867228    0.275435
     20          1           0        7.441337   -2.314468    0.088204
     21          6           0       -3.641508   -0.665182    0.241296
     22          6           0       -2.431728    0.254861    0.408446
     23          6           0       -1.137527   -0.513404    0.677902
     24          1           0       -3.757717   -1.275791    1.147164
     25          1           0       -3.450335   -1.364357   -0.584538
     26          1           0       -2.625692    0.953000    1.232822
     27          1           0       -2.318498    0.863488   -0.497848
     28          1           0       -0.916902   -1.197940   -0.147530
     29          1           0       -1.225841   -1.107918    1.592974
     30          1           0       -0.285507    0.163660    0.794117
     31          6           0       -4.942802    0.088136   -0.028646
     32          6           0       -6.152582   -0.831907   -0.195796
     33          6           0       -7.446783   -0.063642   -0.465252
     34          1           0       -5.133974    0.787311    0.797189
     35          1           0       -4.826593    0.698746   -0.934514
     36          1           0       -6.265811   -1.440533    0.710499
     37          1           0       -5.958618   -1.530046   -1.020172
     38          1           0       -7.358469    0.530872   -1.380323
     39          1           0       -7.667409    0.620893    0.360180
     40          1           0       -8.298803   -0.740706   -0.581467
 ---------------------------------------------------------------------

 SCF Done:  E(RHF) =  -470.733268247     A.U. after   11 cycles
 E2 =    -0.1582413840D+01 EUMP2 =    -0.47231568208732D+03

 The electronic state is 1-A.
 Alpha  occ. eigenvalues --  -11.21608 -11.21603 -11.21581 -11.21557 -11.21407
 Alpha  occ. eigenvalues --  -11.21379 -11.21348 -11.21320 -11.21073 -11.21072
 Alpha  occ. eigenvalues --  -11.21060 -11.21053  -1.08434  -1.08406  -1.03548
 Alpha  occ. eigenvalues --   -1.03499  -0.96001  -0.95948  -0.87009  -0.86973
 Alpha  occ. eigenvalues --   -0.79643  -0.79532  -0.78249  -0.78215  -0.65065
 Alpha  occ. eigenvalues --   -0.65045  -0.60964  -0.60916  -0.59488  -0.59205
 Alpha  occ. eigenvalues --   -0.57692  -0.57464  -0.55272  -0.55248  -0.52725
 Alpha  occ. eigenvalues --   -0.52629  -0.52410  -0.52381  -0.49934  -0.49891
 Alpha  occ. eigenvalues --   -0.47976  -0.47836  -0.46644  -0.46582  -0.45788
 Alpha  occ. eigenvalues --   -0.45763  -0.45712  -0.45683  -0.43795  -0.43706
 Alpha virt. eigenvalues --    0.21686   0.23020   0.23487   0.25032   0.26341
 Alpha virt. eigenvalues --    0.26645   0.27115   0.27350   0.27888   0.28780
 Alpha virt. eigenvalues --    0.30597   0.31306   0.31499   0.31639   0.32246

 Mulliken charges:
               1
     1  C   -0.297590
     2  C   -0.306359
     3  C   -0.476376
     4  H    0.149462
     5  H    0.149327
     6  H    0.158141
     7  H    0.151870
     8  H    0.155437
     9  H    0.154955
    10  H    0.160538
    11  C   -0.298464
    12  C   -0.299632
    13  C   -0.475709
    14  H    0.150068
    15  H    0.149540
    16  H    0.151911
    17  H    0.151834
    18  H    0.155112
    19  H    0.155269
    20  H    0.160166
    21  C   -0.298572
    22  C   -0.299061
    23  C   -0.482750
    24  H    0.149626
    25  H    0.149585
    26  H    0.151925
    27  H    0.151897
    28  H    0.155455
    29  H    0.154837
    30  H    0.167463
    31  C   -0.298255
    32  C   -0.299637
    33  C   -0.475705
    34  H    0.149536
    35  H    0.149655
    36  H    0.151928
    37  H    0.151942
    38  H    0.155188
    39  H    0.155189
    40  H    0.160255
 Sum of Mulliken charges =  -0.00000

 Dipole moment (field-independent basis, Debye):
    X=             -0.0067    Y=             -0.0042    Z=              0.0011  Tot=              0.0080
 Quadrupole moment (field-independent basis, Debye-Ang):
   XX=            -85.9917   YY=            -85.8685   ZZ=            -82.9864
   XY=              0.9600   XZ=             -0.5958   YZ=             -0.3617

 Normal termination of Gaussian 16 at Thu May  6 00:34:03 2021.
