 Gaussian 16, Revision A.03,
 Gaussian 16:  EM64L-G16RevA.03 25-Dec-2016

 -------------
 #p 6-31g* mp2
 -------------

 ------------------------------------------------------
 Input file generated by CHIRIPA (05-May-2021 14:53:16)
 ------------------------------------------------------
 Symbolic Z-matrix:
 Charge =  0 Multiplicity = 1

                         Standard orientation:
 ---------------------------------------------------------------------
 Center     Atomic      Atomic             Coordinates (Angstroms)
 Number     Number       Type             X           Y           Z
 ---------------------------------------------------------------------
      1          6           0        4.541120    0.206958   -0.106535
      2          6           0        5.939981   -0.110925   -0.635802
      3          6           0        6.621718    1.101772   -1.270149
      4          1           0        3.922186    0.588087   -0.930311
      5          1           0        4.611587    1.017266    0.632268
      6          1           0        5.867065   -0.921336   -1.372371
      7          1           0        6.555600   -0.491522    0.189289
      8          1           0        6.723734    1.911725   -0.540650
      9          1           0        6.031286    1.479469   -2.111182
     10          1           0        7.620432    0.852112   -1.641768
     11          6           0        3.846738   -0.995412    0.530545
     12          6           0        2.447877   -0.677529    1.059811
     13          6           0        1.766140   -1.890226    1.694158
     14          1           0        3.776271   -1.805719   -0.208259
     15          1           0        4.465673   -1.376541    1.354320
     16          1           0        1.832258   -0.296932    0.234721
     17          1           0        2.520793    0.132882    1.796380
     18          1           0        2.356572   -2.267923    2.535191
     19          1           0        1.664125   -2.700179    0.964659
     20          1           0        0.767427   -1.640566    2.065777
     21          6           0       -1.606604    2.080680    0.493852
     22          6           0       -1.187578    0.958104   -0.227787
     23          6           0       -2.104104   -0.030367   -0.598532
     24          6           0       -3.437947    0.136613   -0.229385
     25          6           0       -3.886233    1.243658    0.489488
     26          6           0       -2.952221    2.219630    0.849559
     27          1           0       -0.887833    2.843693    0.777710
     28          1           0       -0.143185    0.847555   -0.505397
     29          1           0       -1.806886   -0.909491   -1.157300
     30          1           0       -4.933990    1.326045    0.751851
     31          1           0       -3.280491    3.090383    1.409981
     32          7           0       -4.417488   -0.903221   -0.616226
     33          8           0       -5.586986   -0.732628   -0.278873
     34          8           0       -3.997205   -1.869147   -1.249461
 ---------------------------------------------------------------------

 SCF Done:  E(RHF) =  -669.535524072     A.U. after   15 cycles
 E2 =    -0.2091174347D+01 EUMP2 =    -0.67162669841889D+03

 The electronic state is 1-A.
 Alpha  occ. eigenvalues --  -20.60747 -20.60742 -15.85801 -11.31165 -11.27739
 Alpha  occ. eigenvalues --  -11.27732 -11.27474 -11.26752 -11.26721 -11.22451
 Alpha  occ. eigenvalues --  -11.22111 -11.22046 -11.21989 -11.21635 -11.21524
 Alpha  occ. eigenvalues --   -1.59823  -1.39376  -1.19339  -1.09075  -1.08732
 Alpha  occ. eigenvalues --   -1.04744  -1.04136  -0.96551  -0.95567  -0.87566
 Alpha  occ. eigenvalues --   -0.86140  -0.82403  -0.80224  -0.78900  -0.77446
 Alpha  occ. eigenvalues --   -0.72019  -0.71146  -0.70444  -0.65731  -0.64990
 Alpha  occ. eigenvalues --   -0.64747  -0.62140  -0.61497  -0.59921  -0.58172
 Alpha  occ. eigenvalues --   -0.55832  -0.55238  -0.53249  -0.53072  -0.52965
 Alpha  occ. eigenvalues --   -0.52841  -0.50489  -0.48791  -0.48774  -0.48504
 Alpha  occ. eigenvalues --   -0.47257  -0.46426  -0.46348  -0.44782  -0.44387
 Alpha  occ. eigenvalues --   -0.37316  -0.36339
 Alpha virt. eigenvalues --    0.05081   0.11271   0.16524   0.20042   0.22549
 Alpha virt. eigenvalues --    0.23818   0.25008   0.26426   0.27401   0.28307
 Alpha virt. eigenvalues --    0.28546   0.30162   0.31131   0.31425   0.32023

 Mulliken charges:
               1
     1  C   -0.298156
     2  C   -0.300086
     3  C   -0.476049
     4  H    0.145808
     5  H    0.149035
     6  H    0.153484
     7  H    0.153564
     8  H    0.155093
     9  H    0.154890
    10  H    0.162291
    11  C   -0.298101
    12  C   -0.302487
    13  C   -0.477352
    14  H    0.151757
    15  H    0.152833
    16  H    0.142307
    17  H    0.151761
    18  H    0.158430
    19  H    0.157616
    20  H    0.163214
    21  C   -0.172324
    22  C   -0.221488
    23  C   -0.172673
    24  C    0.158517
    25  C   -0.171006
    26  C   -0.218629
    27  H    0.226116
    28  H    0.230198
    29  H    0.275473
    30  H    0.275540
    31  H    0.223306
    32  N    0.488131
    33  O   -0.460563
    34  O   -0.460450
 Sum of Mulliken charges =  -0.00000

 Dipole moment (field-independent basis, Debye):
    X=              3.5911    Y=              3.6010    Z=              1.4244  Tot=              5.2813
 Quadrupole moment (field-independent basis, Debye-Ang):
   XX=           -115.7889   YY=            -93.2864   ZZ=            -94.3869
   XY=            -15.0065   XZ=             -6.6502   YZ=              1.2608

 Normal termination of Gaussian 16 at Thu May  6 18:51:43 2021.
