 Gaussian 16, Revision A.03,
 Gaussian 16:  EM64L-G16RevA.03 25-Dec-2016

 -------------
 #p 6-31g* mp2
 -------------

 ------------------------------------------------------
 Input file generated by CHIRIPA (05-May-2021 14:51:08)
 ------------------------------------------------------
 Symbolic Z-matrix:
 Charge =  0 Multiplicity = 1

                         Standard orientation:
 ---------------------------------------------------------------------
 Center     Atomic      Atomic             Coordinates (Angstroms)
 Number     Number       Type             X           Y           Z
 ---------------------------------------------------------------------
      1          6           0       -2.483156   -0.947421    0.654642
      2          6           0       -0.968429   -0.887736    0.454575
      3          6           0       -0.214880   -1.873870    1.347602
      4          1           0       -2.715815   -0.741632    1.708428
      5          1           0       -2.832916   -1.968996    0.451055
      6          1           0       -0.621822    0.133757    0.657136
      7          1           0       -0.739362   -1.093502   -0.598897
      8          1           0       -0.532379   -2.901025    1.140843
      9          1           0       -0.414171   -1.666792    2.404012
     10          1           0        0.866301   -1.814401    1.188318
     11          6           0       -3.250313    0.032640   -0.231178
     12          6           0       -4.765040   -0.027045   -0.031112
     13          6           0       -5.518589    0.959089   -0.924138
     14          1           0       -2.900553    1.054215   -0.027591
     15          1           0       -3.017654   -0.173149   -1.284964
     16          1           0       -4.994107    0.178721    1.022361
     17          1           0       -5.111647   -1.048538   -0.233672
     18          1           0       -5.319298    0.752011   -1.980548
     19          1           0       -5.201091    1.986244   -0.717379
     20          1           0       -6.599770    0.899620   -0.764854
     21          6           0        3.194870   -0.206091   -0.023180
     22          6           0        2.920748   -1.325351   -1.028216
     23          6           0        3.583839   -2.646424   -0.637227
     24          1           0        4.280067   -0.060691    0.067111
     25          1           0        2.837663   -0.517408    0.968223
     26          1           0        3.277115   -1.011459   -2.017707
     27          1           0        1.836073   -1.467973   -1.116267
     28          1           0        3.220675   -2.985879    0.338213
     29          1           0        4.669905   -2.526771   -0.568347
     30          1           0        3.374903   -3.432640   -1.369396
     31          6           0        2.538599    1.120871   -0.400283
     32          6           0        2.812720    2.240133    0.604752
     33          6           0        2.149630    3.561205    0.213763
     34          1           0        2.895807    1.432188   -1.391687
     35          1           0        1.453403    0.975473   -0.490575
     36          1           0        3.897396    2.382754    0.692804
     37          1           0        2.456354    1.926239    1.594242
     38          1           0        1.063565    3.441551    0.144882
     39          1           0        2.512795    3.900659   -0.761678
     40          1           0        2.358567    4.347420    0.945931
 ---------------------------------------------------------------------

 SCF Done:  E(RHF) =  -470.732045646     A.U. after   11 cycles
 E2 =    -0.1585163745D+01 EUMP2 =    -0.47231720939115D+03

 The electronic state is 1-A.
 Alpha  occ. eigenvalues --  -11.21708 -11.21641 -11.21581 -11.21555 -11.21470
 Alpha  occ. eigenvalues --  -11.21408 -11.21361 -11.21283 -11.21113 -11.21099
 Alpha  occ. eigenvalues --  -11.21070 -11.21058  -1.08530  -1.08384  -1.03628
 Alpha  occ. eigenvalues --   -1.03493  -0.96048  -0.95960  -0.87085  -0.86959
 Alpha  occ. eigenvalues --   -0.79692  -0.79575  -0.78396  -0.78129  -0.65192
 Alpha  occ. eigenvalues --   -0.65120  -0.61197  -0.60875  -0.59343  -0.59271
 Alpha  occ. eigenvalues --   -0.57600  -0.57567  -0.55403  -0.55169  -0.52733
 Alpha  occ. eigenvalues --   -0.52657  -0.52468  -0.52386  -0.50039  -0.49864
 Alpha  occ. eigenvalues --   -0.48074  -0.47856  -0.46831  -0.46488  -0.46102
 Alpha  occ. eigenvalues --   -0.45747  -0.45729  -0.45378  -0.43801  -0.43756
 Alpha virt. eigenvalues --    0.20117   0.22970   0.23263   0.24876   0.25821
 Alpha virt. eigenvalues --    0.26299   0.26858   0.27764   0.28163   0.29590
 Alpha virt. eigenvalues --    0.30255   0.30587   0.31696   0.31813   0.32304

 Mulliken charges:
               1
     1  C   -0.297888
     2  C   -0.304351
     3  C   -0.485074
     4  H    0.149926
     5  H    0.149943
     6  H    0.154049
     7  H    0.153300
     8  H    0.155753
     9  H    0.155268
    10  H    0.170182
    11  C   -0.298403
    12  C   -0.299700
    13  C   -0.475769
    14  H    0.149244
    15  H    0.149885
    16  H    0.152046
    17  H    0.152074
    18  H    0.155300
    19  H    0.155290
    20  H    0.160413
    21  C   -0.301391
    22  C   -0.307236
    23  C   -0.476628
    24  H    0.150258
    25  H    0.150778
    26  H    0.152846
    27  H    0.158292
    28  H    0.155741
    29  H    0.155329
    30  H    0.160235
    31  C   -0.304489
    32  C   -0.299821
    33  C   -0.475519
    34  H    0.149276
    35  H    0.157359
    36  H    0.151932
    37  H    0.151616
    38  H    0.154421
    39  H    0.155372
    40  H    0.160142
 Sum of Mulliken charges =  -0.00000

 Dipole moment (field-independent basis, Debye):
    X=             -0.0362    Y=             -0.0115    Z=             -0.0080  Tot=              0.0389
 Quadrupole moment (field-independent basis, Debye-Ang):
   XX=            -84.7770   YY=            -85.7202   ZZ=            -84.3417
   XY=              1.1381   XZ=             -0.8337   YZ=              0.9226

 Normal termination of Gaussian 16 at Wed May  5 16:34:40 2021.
