 Gaussian 16, Revision A.03,
 Gaussian 16:  EM64L-G16RevA.03 25-Dec-2016

 -------------
 #p 6-31g* mp2
 -------------

 ------------------------------------------------------
 Input file generated by CHIRIPA (05-May-2021 14:57:24)
 ------------------------------------------------------
 Symbolic Z-matrix:
 Charge =  0 Multiplicity = 1

                         Standard orientation:
 ---------------------------------------------------------------------
 Center     Atomic      Atomic             Coordinates (Angstroms)
 Number     Number       Type             X           Y           Z
 ---------------------------------------------------------------------
      1          6           0       -3.913172   -1.722771    0.388665
      2          6           0       -4.352554   -0.403655    0.541626
      3          6           0       -3.574393    0.661987    0.079651
      4          6           0       -2.356652    0.370924   -0.533276
      5          6           0       -1.891576   -0.932559   -0.700392
      6          6           0       -2.686249   -1.982555   -0.230764
      7          1           0       -4.524080   -2.544511    0.750511
      8          1           0       -5.304967   -0.198922    1.022291
      9          1           0       -3.890451    1.692720    0.185081
     10          1           0       -0.937609   -1.105232   -1.183662
     11          1           0       -2.342493   -3.006000   -0.350916
     12          7           0       -1.524108    1.490790   -1.026399
     13          8           0       -0.455122    1.207841   -1.562912
     14          8           0       -1.956310    2.630285   -0.867060
     15          6           0        0.968958    0.404279    2.373390
     16          6           0        0.726319   -0.745819    1.615153
     17          6           0        1.564651   -1.082854    0.548310
     18          6           0        2.641288   -0.243457    0.266250
     19          6           0        2.909259    0.909156    1.003112
     20          6           0        2.057734    1.226646    2.065493
     21          1           0        0.312597    0.658504    3.200406
     22          1           0       -0.118486   -1.386334    1.851986
     23          1           0        1.399949   -1.967271   -0.055095
     24          1           0        3.759333    1.528112    0.742947
     25          1           0        2.248595    2.120450    2.652630
     26          7           0        3.535776   -0.589915   -0.860806
     27          8           0        4.477598    0.166094   -1.088972
     28          8           0        3.278117   -1.610916   -1.494687
 ---------------------------------------------------------------------

 SCF Done:  E(RHF) =  -868.336352562     A.U. after   16 cycles
 E2 =    -0.2603792403D+01 EUMP2 =    -0.87094014496545D+03

 The electronic state is 1-A.
 Alpha  occ. eigenvalues --  -20.61129 -20.61080 -20.60382 -20.60355 -15.86160
 Alpha  occ. eigenvalues --  -15.85425 -11.31681 -11.30829 -11.28308 -11.28292
 Alpha  occ. eigenvalues --  -11.28088 -11.27501 -11.27349 -11.27325 -11.27313
 Alpha  occ. eigenvalues --  -11.27157 -11.26490 -11.26398  -1.60173  -1.59432
 Alpha  occ. eigenvalues --   -1.39723  -1.38993  -1.19912  -1.18992  -1.09257
 Alpha  occ. eigenvalues --   -1.08389  -1.05359  -1.04435  -0.96066  -0.95230
 Alpha  occ. eigenvalues --   -0.86715  -0.85838  -0.82902  -0.82084  -0.77924
 Alpha  occ. eigenvalues --   -0.77117  -0.72385  -0.71663  -0.71506  -0.71009
 Alpha  occ. eigenvalues --   -0.70721  -0.70157  -0.65550  -0.65335  -0.64678
 Alpha  occ. eigenvalues --   -0.64481  -0.62708  -0.61790  -0.55817  -0.54958
 Alpha  occ. eigenvalues --   -0.53753  -0.53449  -0.52633  -0.52502  -0.49154
 Alpha  occ. eigenvalues --   -0.49122  -0.48419  -0.48401  -0.45081  -0.44396
 Alpha  occ. eigenvalues --   -0.37999  -0.37197  -0.36858  -0.35714
 Alpha virt. eigenvalues --    0.04511   0.05517   0.10602   0.11615   0.15974
 Alpha virt. eigenvalues --    0.16996   0.20364   0.21922   0.25751   0.27436
 Alpha virt. eigenvalues --    0.27970   0.29354   0.30163   0.31041   0.31996

 Mulliken charges:
               1
     1  C   -0.171359
     2  C   -0.220027
     3  C   -0.171773
     4  C    0.159081
     5  C   -0.172802
     6  C   -0.226787
     7  H    0.227199
     8  H    0.224706
     9  H    0.276660
    10  H    0.280765
    11  H    0.224275
    12  N    0.488826
    13  O   -0.456096
    14  O   -0.461642
    15  C   -0.173693
    16  C   -0.219037
    17  C   -0.172809
    18  C    0.169633
    19  C   -0.166263
    20  C   -0.214557
    21  H    0.223536
    22  H    0.219928
    23  H    0.265576
    24  H    0.276613
    25  H    0.223980
    26  N    0.489336
    27  O   -0.458384
    28  O   -0.464885
 Sum of Mulliken charges =  -0.00000

 Dipole moment (field-independent basis, Debye):
    X=             -5.9987    Y=             -2.4651    Z=              5.5992  Tot=              8.5681
 Quadrupole moment (field-independent basis, Debye-Ang):
   XX=           -104.1504   YY=           -103.7449   ZZ=           -105.3984
   XY=             12.7274   XZ=              6.4387   YZ=              4.3352

 Normal termination of Gaussian 16 at Thu May  6 06:40:30 2021.
