 Gaussian 16, Revision A.03,
 Gaussian 16:  EM64L-G16RevA.03 25-Dec-2016

 -------------
 #p 6-31g* mp2
 -------------

 ------------------------------------------------------
 Input file generated by CHIRIPA (05-May-2021 14:57:23)
 ------------------------------------------------------
 Symbolic Z-matrix:
 Charge =  0 Multiplicity = 1

                         Standard orientation:
 ---------------------------------------------------------------------
 Center     Atomic      Atomic             Coordinates (Angstroms)
 Number     Number       Type             X           Y           Z
 ---------------------------------------------------------------------
      1          6           0        4.375392    2.266202    0.166147
      2          6           0        3.451675    2.071756   -0.866063
      3          6           0        2.779269    0.853026   -0.996890
      4          6           0        3.056100   -0.154172   -0.073739
      5          6           0        3.970882    0.009018    0.965410
      6          6           0        4.631596    1.236029    1.076983
      7          1           0        4.893192    3.216158    0.260298
      8          1           0        3.250708    2.870027   -1.574880
      9          1           0        2.059270    0.675541   -1.786522
     10          1           0        4.150196   -0.805440    1.656730
     11          1           0        5.348455    1.384214    1.879604
     12          7           0        2.350443   -1.448770   -0.202048
     13          8           0        2.612077   -2.320323    0.624136
     14          8           0        1.549076   -1.567410   -1.126371
     15          6           0       -4.682820    1.946920    0.297674
     16          6           0       -4.201921    1.582783   -0.964333
     17          6           0       -3.364407    0.473132   -1.111961
     18          6           0       -3.026379   -0.253138    0.028899
     19          6           0       -3.489333    0.084444    1.299726
     20          6           0       -4.325622    1.197908    1.423690
     21          1           0       -5.332946    2.810404    0.403164
     22          1           0       -4.477674    2.162626   -1.840568
     23          1           0       -2.977834    0.168980   -2.077088
     24          1           0       -3.197045   -0.513053    2.154701
     25          1           0       -4.697599    1.478369    2.405025
     26          7           0       -2.140388   -1.429893   -0.114863
     27          8           0       -1.857279   -2.053291    0.905853
     28          8           0       -1.745836   -1.706555   -1.245537
 ---------------------------------------------------------------------

 SCF Done:  E(RHF) =  -868.334498023     A.U. after   16 cycles
 E2 =    -0.2601054170D+01 EUMP2 =    -0.87093555219304D+03

 The electronic state is 1-A.
 Alpha  occ. eigenvalues --  -20.59844 -20.59765 -20.59744 -20.59673 -15.84874
 Alpha  occ. eigenvalues --  -15.84774 -11.30687 -11.30586 -11.27308 -11.27298
 Alpha  occ. eigenvalues --  -11.27211 -11.27200 -11.27129 -11.27039 -11.26425
 Alpha  occ. eigenvalues --  -11.26409 -11.26334 -11.26313  -1.58867  -1.58778
 Alpha  occ. eigenvalues --   -1.38417  -1.38321  -1.18900  -1.18803  -1.08211
 Alpha  occ. eigenvalues --   -1.08115  -1.04367  -1.04271  -0.94974  -0.94864
 Alpha  occ. eigenvalues --   -0.85743  -0.85648  -0.81810  -0.81692  -0.76777
 Alpha  occ. eigenvalues --   -0.76672  -0.71155  -0.70911  -0.70312  -0.70022
 Alpha  occ. eigenvalues --   -0.70001  -0.69903  -0.64540  -0.64439  -0.64370
 Alpha  occ. eigenvalues --   -0.64279  -0.61708  -0.61613  -0.54853  -0.54761
 Alpha  occ. eigenvalues --   -0.52679  -0.52578  -0.52463  -0.52369  -0.47966
 Alpha  occ. eigenvalues --   -0.47819  -0.47731  -0.47605  -0.43893  -0.43430
 Alpha  occ. eigenvalues --   -0.36910  -0.36807  -0.35996  -0.35898
 Alpha virt. eigenvalues --    0.05696   0.05937   0.11652   0.11750   0.17134
 Alpha virt. eigenvalues --    0.17328   0.21744   0.21838   0.27624   0.27713
 Alpha virt. eigenvalues --    0.28661   0.28789   0.31240   0.31380   0.32897

 Mulliken charges:
               1
     1  C   -0.172389
     2  C   -0.218659
     3  C   -0.172728
     4  C    0.159314
     5  C   -0.171467
     6  C   -0.218623
     7  H    0.222704
     8  H    0.220152
     9  H    0.275795
    10  H    0.275808
    11  H    0.221379
    12  N    0.486904
    13  O   -0.460140
    14  O   -0.448311
    15  C   -0.172475
    16  C   -0.218902
    17  C   -0.172726
    18  C    0.159174
    19  C   -0.172111
    20  C   -0.218606
    21  H    0.223056
    22  H    0.220859
    23  H    0.275472
    24  H    0.275831
    25  H    0.221529
    26  N    0.486561
    27  O   -0.459090
    28  O   -0.448310
 Sum of Mulliken charges =  -0.00000

 Dipole moment (field-independent basis, Debye):
    X=             -0.6440    Y=              8.3635    Z=              0.8481  Tot=              8.4310
 Quadrupole moment (field-independent basis, Debye-Ang):
   XX=            -72.5143   YY=           -109.0356   ZZ=            -97.0742
   XY=              0.8301   XZ=              1.6143   YZ=             -2.7209

 Normal termination of Gaussian 16 at Wed May  5 21:01:04 2021.
