 Gaussian 16, Revision A.03,
 Gaussian 16:  EM64L-G16RevA.03 25-Dec-2016

 -------------
 #p 6-31g* mp2
 -------------

 ------------------------------------------------------
 Input file generated by CHIRIPA (05-May-2021 14:55:19)
 ------------------------------------------------------
 Symbolic Z-matrix:
 Charge =  0 Multiplicity = 1

                         Standard orientation:
 ---------------------------------------------------------------------
 Center     Atomic      Atomic             Coordinates (Angstroms)
 Number     Number       Type             X           Y           Z
 ---------------------------------------------------------------------
      1          6           0       -5.628181   -0.089299    0.909090
      2          6           0       -4.673560    0.885884    1.216072
      3          6           0       -3.386455    0.814674    0.674926
      4          6           0       -3.086784   -0.250167   -0.173368
      5          6           0       -4.016021   -1.237219   -0.498232
      6          6           0       -5.296949   -1.145875    0.054425
      7          1           0       -6.625635   -0.026161    1.333936
      8          1           0       -4.927992    1.707559    1.879517
      9          1           0       -2.628117    1.555993    0.895806
     10          1           0       -3.732818   -2.044466   -1.162736
     11          1           0       -6.036297   -1.904644   -0.185740
     12          7           0       -1.727454   -0.336211   -0.752347
     13          8           0       -1.488410   -1.284332   -1.497037
     14          8           0       -0.926794    0.546097   -0.450499
     15          6           0        4.430877   -0.362329    0.423431
     16          6           0        5.882670   -0.764891    0.162233
     17          6           0        6.253773   -2.096221    0.816173
     18          1           0        4.263923   -0.299146    1.507441
     19          1           0        3.765572   -1.153231    0.050285
     20          1           0        6.544989    0.027166    0.534514
     21          1           0        6.046239   -0.826938   -0.921286
     22          1           0        5.617105   -2.902243    0.437252
     23          1           0        6.118688   -2.043286    1.901324
     24          1           0        7.295864   -2.364781    0.616720
     25          6           0        4.044818    0.966453   -0.223892
     26          6           0        2.593024    1.369015    0.037306
     27          6           0        2.221921    2.700344   -0.616635
     28          1           0        4.710123    1.757355    0.149254
     29          1           0        4.211772    0.903268   -1.307902
     30          1           0        2.429455    1.431061    1.120824
     31          1           0        1.930706    0.576956   -0.334975
     32          1           0        2.357006    2.647409   -1.701785
     33          1           0        2.858591    3.506366   -0.237714
     34          1           0        1.179830    2.968904   -0.417181
 ---------------------------------------------------------------------

 SCF Done:  E(RHF) =  -669.536185876     A.U. after   15 cycles
 E2 =    -0.2091207746D+01 EUMP2 =    -0.67162739362160D+03

 The electronic state is 1-A.
 Alpha  occ. eigenvalues --  -20.61006 -20.60985 -15.86023 -11.31325 -11.27885
 Alpha  occ. eigenvalues --  -11.27882 -11.27619 -11.26888 -11.26878 -11.20790
 Alpha  occ. eigenvalues --  -11.20395 -11.20364 -11.20163 -11.19921 -11.19637
 Alpha  occ. eigenvalues --   -1.60055  -1.39612  -1.19491  -1.08899  -1.07299
 Alpha  occ. eigenvalues --   -1.04884  -1.02367  -0.95746  -0.94868  -0.86285
 Alpha  occ. eigenvalues --   -0.85901  -0.82579  -0.78471  -0.77636  -0.77050
 Alpha  occ. eigenvalues --   -0.72246  -0.71365  -0.70600  -0.65148  -0.64888
 Alpha  occ. eigenvalues --   -0.63933  -0.62231  -0.59764  -0.58260  -0.56433
 Alpha  occ. eigenvalues --   -0.55389  -0.54181  -0.53217  -0.52975  -0.51573
 Alpha  occ. eigenvalues --   -0.51294  -0.49056  -0.48996  -0.48825  -0.46777
 Alpha  occ. eigenvalues --   -0.45503  -0.45047  -0.44621  -0.44395  -0.42635
 Alpha  occ. eigenvalues --   -0.37468  -0.36484
 Alpha virt. eigenvalues --    0.04891   0.11172   0.16392   0.21276   0.23929
 Alpha virt. eigenvalues --    0.25381   0.27208   0.27760   0.28005   0.28724
 Alpha virt. eigenvalues --    0.29066   0.30831   0.32135   0.32482   0.32861

 Mulliken charges:
               1
     1  C   -0.170523
     2  C   -0.218535
     3  C   -0.170616
     4  C    0.157626
     5  C   -0.170533
     6  C   -0.218588
     7  H    0.226114
     8  H    0.223976
     9  H    0.275708
    10  H    0.275878
    11  H    0.223908
    12  N    0.491452
    13  O   -0.459391
    14  O   -0.461620
    15  C   -0.297919
    16  C   -0.298683
    17  C   -0.475142
    18  H    0.146458
    19  H    0.152995
    20  H    0.149517
    21  H    0.151358
    22  H    0.155408
    23  H    0.153357
    24  H    0.157513
    25  C   -0.297884
    26  C   -0.304109
    27  C   -0.473440
    28  H    0.143465
    29  H    0.148168
    30  H    0.143314
    31  H    0.178507
    32  H    0.152936
    33  H    0.145028
    34  H    0.164298
 Sum of Mulliken charges =  -0.00000

 Dipole moment (field-independent basis, Debye):
    X=             -5.1995    Y=              0.1931    Z=              1.9668  Tot=              5.5624
 Quadrupole moment (field-independent basis, Debye-Ang):
   XX=            -66.9912   YY=            -92.8563   ZZ=            -94.5181
   XY=              1.7274   XZ=             -5.1409   YZ=              2.6951

 Normal termination of Gaussian 16 at Thu May  6 20:37:32 2021.
