 Gaussian 16, Revision A.03,
 Gaussian 16:  EM64L-G16RevA.03 25-Dec-2016

 -------------
 #p 6-31g* mp2
 -------------

 ------------------------------------------------------
 Input file generated by CHIRIPA (05-May-2021 14:55:24)
 ------------------------------------------------------
 Symbolic Z-matrix:
 Charge =  0 Multiplicity = 1

                         Standard orientation:
 ---------------------------------------------------------------------
 Center     Atomic      Atomic             Coordinates (Angstroms)
 Number     Number       Type             X           Y           Z
 ---------------------------------------------------------------------
      1          6           0        2.250778   -0.052934    2.546263
      2          6           0        3.226692    0.617299    1.801347
      3          6           0        3.246402    0.520426    0.406795
      4          6           0        2.270748   -0.258837   -0.212993
      5          6           0        1.285437   -0.938535    0.501475
      6          6           0        1.284968   -0.827346    1.895098
      7          1           0        2.242940    0.027880    3.629224
      8          1           0        3.977992    1.219430    2.304370
      9          1           0        3.990466    1.028773   -0.194345
     10          1           0        0.549557   -1.531267   -0.028211
     11          1           0        0.525859   -1.348961    2.471046
     12          7           0        2.281429   -0.368970   -1.688851
     13          8           0        1.410856   -1.061835   -2.211036
     14          8           0        3.160172    0.239658   -2.295497
     15          6           0       -3.362256   -0.272917    0.151434
     16          6           0       -2.764135   -1.644510   -0.163159
     17          6           0       -3.692092   -2.796738    0.222923
     18          1           0       -3.591425   -0.217265    1.224434
     19          1           0       -4.319109   -0.167632   -0.378418
     20          1           0       -1.808025   -1.746630    0.366029
     21          1           0       -2.536186   -1.696832   -1.235502
     22          1           0       -4.642667   -2.722679   -0.315149
     23          1           0       -3.910370   -2.772760    1.295481
     24          1           0       -3.244817   -3.767951   -0.010637
     25          6           0       -2.446352    0.889073   -0.228865
     26          6           0       -3.044472    2.260666    0.085729
     27          6           0       -2.116516    3.412894   -0.300355
     28          1           0       -1.489499    0.783789    0.300987
     29          1           0       -2.217182    0.833422   -1.301865
     30          1           0       -3.272422    2.312989    1.158070
     31          1           0       -4.000583    2.362787   -0.443461
     32          1           0       -1.898237    3.388917   -1.372913
     33          1           0       -1.165940    3.338835    0.237719
     34          1           0       -2.563790    4.384108   -0.066795
 ---------------------------------------------------------------------

 SCF Done:  E(RHF) =  -669.535488825     A.U. after   15 cycles
 E2 =    -0.2092594920D+01 EUMP2 =    -0.67162808374445D+03

 The electronic state is 1-A.
 Alpha  occ. eigenvalues --  -20.60762 -20.60756 -15.85815 -11.31190 -11.27778
 Alpha  occ. eigenvalues --  -11.27742 -11.27529 -11.26802 -11.26788 -11.21944
 Alpha  occ. eigenvalues --  -11.21641 -11.21577 -11.21382 -11.21340 -11.21047
 Alpha  occ. eigenvalues --   -1.59835  -1.39388  -1.19379  -1.08769  -1.08578
 Alpha  occ. eigenvalues --   -1.04788  -1.03683  -0.96108  -0.95601  -0.87127
 Alpha  occ. eigenvalues --   -0.86179  -0.82436  -0.79770  -0.78396  -0.77457
 Alpha  occ. eigenvalues --   -0.72035  -0.71157  -0.70490  -0.65250  -0.65015
 Alpha  occ. eigenvalues --   -0.64780  -0.62159  -0.61066  -0.59480  -0.57722
 Alpha  occ. eigenvalues --   -0.55397  -0.55289  -0.53126  -0.52919  -0.52779
 Alpha  occ. eigenvalues --   -0.52516  -0.50053  -0.48796  -0.48787  -0.48062
 Alpha  occ. eigenvalues --   -0.46806  -0.45911  -0.45821  -0.44787  -0.43922
 Alpha  occ. eigenvalues --   -0.37360  -0.36356
 Alpha virt. eigenvalues --    0.05027   0.11248   0.16456   0.20205   0.22939
 Alpha virt. eigenvalues --    0.24027   0.25422   0.26753   0.27825   0.27950
 Alpha virt. eigenvalues --    0.29185   0.30473   0.31503   0.31596   0.32032

 Mulliken charges:
               1
     1  C   -0.170722
     2  C   -0.218883
     3  C   -0.170490
     4  C    0.158923
     5  C   -0.174789
     6  C   -0.221843
     7  H    0.225691
     8  H    0.223611
     9  H    0.275762
    10  H    0.283752
    11  H    0.223661
    12  N    0.488178
    13  O   -0.460179
    14  O   -0.460562
    15  C   -0.297958
    16  C   -0.302672
    17  C   -0.475662
    18  H    0.146257
    19  H    0.152159
    20  H    0.138021
    21  H    0.163767
    22  H    0.158513
    23  H    0.152507
    24  H    0.161471
    25  C   -0.303361
    26  C   -0.299339
    27  C   -0.476141
    28  H    0.147990
    29  H    0.157666
    30  H    0.149129
    31  H    0.152794
    32  H    0.159067
    33  H    0.154081
    34  H    0.159600
 Sum of Mulliken charges =  -0.00000

 Dipole moment (field-independent basis, Debye):
    X=             -0.0723    Y=              0.4009    Z=              5.0531  Tot=              5.0695
 Quadrupole moment (field-independent basis, Debye-Ang):
   XX=            -91.8569   YY=            -94.6286   ZZ=            -96.7129
   XY=              3.2655   XZ=             12.7397   YZ=             -1.3251

 Normal termination of Gaussian 16 at Thu May  6 07:57:06 2021.
