 Gaussian 16, Revision A.03,
 Gaussian 16:  EM64L-G16RevA.03 25-Dec-2016

 -------------
 #p 6-31g* mp2
 -------------

 ------------------------------------------------------
 Input file generated by CHIRIPA (05-May-2021 14:55:25)
 ------------------------------------------------------
 Symbolic Z-matrix:
 Charge =  0 Multiplicity = 1

                         Standard orientation:
 ---------------------------------------------------------------------
 Center     Atomic      Atomic             Coordinates (Angstroms)
 Number     Number       Type             X           Y           Z
 ---------------------------------------------------------------------
      1          6           0       -2.154215   -2.039717   -0.922479
      2          6           0       -3.537809   -2.015112   -0.718564
      3          6           0       -4.176719   -0.835280   -0.325704
      4          6           0       -3.397815    0.306632   -0.145051
      5          6           0       -2.017560    0.313952   -0.340328
      6          6           0       -1.399836   -0.877156   -0.733045
      7          1           0       -1.666123   -2.960619   -1.227607
      8          1           0       -4.126195   -2.916458   -0.864934
      9          1           0       -5.246312   -0.788142   -0.160879
     10          1           0       -1.457632    1.228418   -0.186540
     11          1           0       -0.325157   -0.893320   -0.890678
     12          7           0       -4.062986    1.561636    0.270776
     13          8           0       -3.354310    2.554187    0.423279
     14          8           0       -5.280428    1.528993    0.436325
     15          6           0        4.626607    0.079870   -0.331456
     16          6           0        5.812573    0.975100    0.029144
     17          6           0        6.638661    1.382055   -1.191414
     18          1           0        4.996418   -0.819747   -0.842215
     19          1           0        3.984367    0.606166   -1.051133
     20          1           0        6.451650    0.447818    0.748983
     21          1           0        5.439911    1.872601    0.539273
     22          1           0        6.020538    1.930661   -1.909436
     23          1           0        7.038025    0.497782   -1.698534
     24          1           0        7.481260    2.021690   -0.910780
     25          6           0        3.791151   -0.335337    0.878232
     26          6           0        2.605185   -1.230568    0.517632
     27          6           0        1.779097   -1.637522    1.738190
     28          1           0        4.433390   -0.861633    1.597910
     29          1           0        3.421339    0.564280    1.388990
     30          1           0        2.977847   -2.128068    0.007502
     31          1           0        1.966108   -0.703285   -0.202208
     32          1           0        1.379733   -0.753250    2.245311
     33          1           0        2.397221   -2.186127    2.456212
     34          1           0        0.936498   -2.277157    1.457557
 ---------------------------------------------------------------------

 SCF Done:  E(RHF) =  -669.535508612     A.U. after   15 cycles
 E2 =    -0.2091440666D+01 EUMP2 =    -0.67162694927799D+03

 The electronic state is 1-A.
 Alpha  occ. eigenvalues --  -20.60750 -20.60745 -15.85802 -11.31165 -11.27730
 Alpha  occ. eigenvalues --  -11.27723 -11.27470 -11.26748 -11.26707 -11.22553
 Alpha  occ. eigenvalues --  -11.22042 -11.22009 -11.21911 -11.21825 -11.21404
 Alpha  occ. eigenvalues --   -1.59825  -1.39379  -1.19333  -1.09060  -1.08729
 Alpha  occ. eigenvalues --   -1.04737  -1.04148  -0.96564  -0.95566  -0.87576
 Alpha  occ. eigenvalues --   -0.86134  -0.82400  -0.80242  -0.78854  -0.77446
 Alpha  occ. eigenvalues --   -0.72021  -0.71147  -0.70444  -0.65726  -0.64985
 Alpha  occ. eigenvalues --   -0.64743  -0.62160  -0.61481  -0.59945  -0.58180
 Alpha  occ. eigenvalues --   -0.55837  -0.55231  -0.53297  -0.53077  -0.52949
 Alpha  occ. eigenvalues --   -0.52809  -0.50497  -0.48786  -0.48776  -0.48533
 Alpha  occ. eigenvalues --   -0.47274  -0.46387  -0.46297  -0.44785  -0.44391
 Alpha  occ. eigenvalues --   -0.37311  -0.36327
 Alpha virt. eigenvalues --    0.05083   0.11249   0.16557   0.19841   0.22607
 Alpha virt. eigenvalues --    0.23857   0.25317   0.26480   0.27150   0.28072
 Alpha virt. eigenvalues --    0.28727   0.30041   0.31052   0.31150   0.32081

 Mulliken charges:
               1
     1  C   -0.173696
     2  C   -0.218288
     3  C   -0.171157
     4  C    0.158762
     5  C   -0.173575
     6  C   -0.223018
     7  H    0.226029
     8  H    0.223290
     9  H    0.275503
    10  H    0.274988
    11  H    0.234170
    12  N    0.488133
    13  O   -0.460614
    14  O   -0.460508
    15  C   -0.298737
    16  C   -0.300310
    17  C   -0.476112
    18  H    0.149804
    19  H    0.148410
    20  H    0.152946
    21  H    0.153719
    22  H    0.155708
    23  H    0.155192
    24  H    0.162090
    25  C   -0.298006
    26  C   -0.304860
    27  C   -0.476927
    28  H    0.152606
    29  H    0.152450
    30  H    0.153102
    31  H    0.142798
    32  H    0.159388
    33  H    0.159323
    34  H    0.157397
 Sum of Mulliken charges =  -0.00000

 Dipole moment (field-independent basis, Debye):
    X=              2.5122    Y=             -4.4175    Z=             -1.3874  Tot=              5.2678
 Quadrupole moment (field-independent basis, Debye-Ang):
   XX=           -106.3085   YY=            -96.3083   ZZ=            -95.6570
   XY=             17.6107   XZ=              5.4766   YZ=              0.3581

 Normal termination of Gaussian 16 at Thu May  6 16:05:46 2021.
