 Gaussian 16, Revision A.03,
 Gaussian 16:  EM64L-G16RevA.03 25-Dec-2016

 -------------
 #p 6-31g* mp2
 -------------

 ------------------------------------------------------
 Input file generated by CHIRIPA (05-May-2021 14:53:18)
 ------------------------------------------------------
 Symbolic Z-matrix:
 Charge =  0 Multiplicity = 1

                         Standard orientation:
 ---------------------------------------------------------------------
 Center     Atomic      Atomic             Coordinates (Angstroms)
 Number     Number       Type             X           Y           Z
 ---------------------------------------------------------------------
      1          6           0       -2.997848    0.797813    0.016532
      2          6           0       -2.975966    2.224739    0.565521
      3          6           0       -1.576127    2.839706    0.557787
      4          1           0       -2.317815    0.172518    0.611095
      5          1           0       -2.603350    0.800862   -1.009020
      6          1           0       -3.371678    2.219208    1.589238
      7          1           0       -3.656275    2.846666   -0.030299
      8          1           0       -1.176238    2.874444   -0.460782
      9          1           0       -0.890023    2.243421    1.167957
     10          1           0       -1.583570    3.859792    0.954308
     11          6           0       -4.390314    0.169509    0.017802
     12          6           0       -4.412197   -1.257416   -0.531187
     13          6           0       -5.812036   -1.872384   -0.523453
     14          1           0       -4.784812    0.166460    1.043354
     15          1           0       -5.070347    0.794805   -0.576761
     16          1           0       -3.731887   -1.879343    0.064633
     17          1           0       -4.016484   -1.251885   -1.554904
     18          1           0       -6.498139   -1.276099   -1.133623
     19          1           0       -6.211925   -1.907122    0.495116
     20          1           0       -5.804593   -2.892470   -0.919974
     21          6           0        0.520382   -1.083547    0.507909
     22          6           0        1.563096   -1.439671    1.369562
     23          6           0        2.877679   -1.054129    1.090677
     24          6           0        3.114701   -0.309637   -0.063811
     25          6           0        2.097223    0.060626   -0.941841
     26          6           0        0.790298   -0.335855   -0.643013
     27          1           0       -0.497844   -1.387294    0.732299
     28          1           0        1.356426   -2.020297    2.264104
     29          1           0        3.703799   -1.316196    1.740495
     30          1           0        2.334332    0.639865   -1.825966
     31          1           0       -0.017508   -0.057855   -1.313992
     32          7           0        4.502337    0.104309   -0.369610
     33          8           0        4.684904    0.759833   -1.393130
     34          8           0        5.381124   -0.234604    0.420016
 ---------------------------------------------------------------------

 SCF Done:  E(RHF) =  -669.535196514     A.U. after   15 cycles
 E2 =    -0.2092735008D+01 EUMP2 =    -0.67162793152119D+03

 The electronic state is 1-A.
 Alpha  occ. eigenvalues --  -20.60718 -20.60713 -15.85771 -11.31131 -11.27694
 Alpha  occ. eigenvalues --  -11.27677 -11.27406 -11.26716 -11.26671 -11.22600
 Alpha  occ. eigenvalues --  -11.22573 -11.22419 -11.22326 -11.21847 -11.21720
 Alpha  occ. eigenvalues --   -1.59794  -1.39347  -1.19297  -1.09420  -1.08690
 Alpha  occ. eigenvalues --   -1.04698  -1.04386  -0.96830  -0.95532  -0.87840
 Alpha  occ. eigenvalues --   -0.86094  -0.82364  -0.80461  -0.79298  -0.77404
 Alpha  occ. eigenvalues --   -0.71989  -0.71116  -0.70425  -0.66046  -0.64945
 Alpha  occ. eigenvalues --   -0.64699  -0.62051  -0.61777  -0.60195  -0.58457
 Alpha  occ. eigenvalues --   -0.56145  -0.55197  -0.53475  -0.53262  -0.53022
 Alpha  occ. eigenvalues --   -0.52786  -0.50765  -0.48783  -0.48746  -0.48725
 Alpha  occ. eigenvalues --   -0.47499  -0.46764  -0.46715  -0.44754  -0.44682
 Alpha  occ. eigenvalues --   -0.37253  -0.36287
 Alpha virt. eigenvalues --    0.05091   0.11298   0.16504   0.19429   0.22607
 Alpha virt. eigenvalues --    0.22906   0.24258   0.25314   0.27083   0.28241
 Alpha virt. eigenvalues --    0.29887   0.30615   0.30895   0.31353   0.31461

 Mulliken charges:
               1
     1  C   -0.303954
     2  C   -0.299797
     3  C   -0.477692
     4  H    0.144334
     5  H    0.145770
     6  H    0.154291
     7  H    0.155136
     8  H    0.152559
     9  H    0.158778
    10  H    0.164385
    11  C   -0.298183
    12  C   -0.300271
    13  C   -0.476083
    14  H    0.152202
    15  H    0.153889
    16  H    0.145504
    17  H    0.151880
    18  H    0.158009
    19  H    0.156816
    20  H    0.162368
    21  C   -0.175315
    22  C   -0.219150
    23  C   -0.171161
    24  C    0.158731
    25  C   -0.172006
    26  C   -0.217938
    27  H    0.228728
    28  H    0.223048
    29  H    0.275277
    30  H    0.275380
    31  H    0.227540
    32  N    0.488068
    33  O   -0.460503
    34  O   -0.460640
 Sum of Mulliken charges =  -0.00000

 Dipole moment (field-independent basis, Debye):
    X=             -5.0955    Y=             -1.3661    Z=              1.0923  Tot=              5.3873
 Quadrupole moment (field-independent basis, Debye-Ang):
   XX=           -125.3138   YY=            -93.3851   ZZ=            -90.7793
   XY=             -4.6003   XZ=              5.3192   YZ=             -2.7256

 Normal termination of Gaussian 16 at Thu May  6 02:51:33 2021.
