 Gaussian 16, Revision A.03,
 Gaussian 16:  EM64L-G16RevA.03 25-Dec-2016

 -------------
 #p 6-31g* mp2
 -------------

 ------------------------------------------------------
 Input file generated by CHIRIPA (05-May-2021 14:51:11)
 ------------------------------------------------------
 Symbolic Z-matrix:
 Charge =  0 Multiplicity = 1

                         Standard orientation:
 ---------------------------------------------------------------------
 Center     Atomic      Atomic             Coordinates (Angstroms)
 Number     Number       Type             X           Y           Z
 ---------------------------------------------------------------------
      1          6           0       -3.142294   -0.513714   -0.058150
      2          6           0       -3.755061   -1.893947   -0.297857
      3          6           0       -2.719977   -3.017940   -0.242755
      4          1           0       -2.360577   -0.331320   -0.808214
      5          1           0       -2.643714   -0.506608    0.921014
      6          1           0       -4.253525   -1.898023   -1.275677
      7          1           0       -4.535541   -2.072997    0.452747
      8          1           0       -2.229825   -3.042625    0.735889
      9          1           0       -1.946207   -2.866657   -1.002356
     10          1           0       -3.179605   -3.995860   -0.416748
     11          6           0       -4.164570    0.620295   -0.110149
     12          6           0       -3.551804    2.000528    0.129558
     13          6           0       -4.586888    3.124520    0.074456
     14          1           0       -4.663151    0.613189   -1.089313
     15          1           0       -4.946287    0.437901    0.639915
     16          1           0       -2.771323    2.179578   -0.621046
     17          1           0       -3.053339    2.004604    1.107378
     18          1           0       -5.360658    2.973238    0.834057
     19          1           0       -5.077039    3.149206   -0.904188
     20          1           0       -4.127259    4.102441    0.248448
     21          6           0        3.146124   -0.507650    0.430020
     22          6           0        1.711360   -0.292671   -0.052913
     23          6           0        0.708054   -1.208899    0.648297
     24          1           0        3.428265   -1.556622    0.265704
     25          1           0        3.189675   -0.338512    1.514865
     26          1           0        1.670806   -0.460813   -1.136748
     27          1           0        1.432668    0.755957    0.112396
     28          1           0        0.719093   -1.036480    1.729385
     29          1           0        0.958584   -2.260163    0.473143
     30          1           0       -0.311244   -1.038462    0.287957
     31          6           0        4.160741    0.401070   -0.261721
     32          6           0        5.595505    0.186090    0.221212
     33          6           0        6.598811    1.102318   -0.479998
     34          1           0        4.117190    0.231931   -1.346566
     35          1           0        3.878600    1.450041   -0.097405
     36          1           0        5.874196   -0.862537    0.055903
     37          1           0        5.636059    0.354233    1.305047
     38          1           0        6.348281    2.153583   -0.304845
     39          1           0        6.587772    0.929899   -1.561086
     40          1           0        7.618108    0.931881   -0.119658
 ---------------------------------------------------------------------

 SCF Done:  E(RHF) =  -470.732254048     A.U. after   11 cycles
 E2 =    -0.1583644818D+01 EUMP2 =    -0.47231589886600D+03

 The electronic state is 1-A.
 Alpha  occ. eigenvalues --  -11.21622 -11.21616 -11.21566 -11.21509 -11.21435
 Alpha  occ. eigenvalues --  -11.21375 -11.21348 -11.21284 -11.21087 -11.21045
 Alpha  occ. eigenvalues --  -11.21026 -11.20822  -1.08471  -1.08361  -1.03563
 Alpha  occ. eigenvalues --   -1.03438  -0.95993  -0.95900  -0.87011  -0.86925
 Alpha  occ. eigenvalues --   -0.79684  -0.79466  -0.78303  -0.78175  -0.65093
 Alpha  occ. eigenvalues --   -0.64996  -0.60944  -0.60848  -0.59601  -0.59089
 Alpha  occ. eigenvalues --   -0.57635  -0.57490  -0.55276  -0.55186  -0.52769
 Alpha  occ. eigenvalues --   -0.52569  -0.52503  -0.52239  -0.49931  -0.49839
 Alpha  occ. eigenvalues --   -0.47983  -0.47769  -0.46644  -0.46553  -0.45799
 Alpha  occ. eigenvalues --   -0.45756  -0.45709  -0.45649  -0.43809  -0.43570
 Alpha virt. eigenvalues --    0.22098   0.23109   0.23584   0.24812   0.26267
 Alpha virt. eigenvalues --    0.26660   0.26856   0.27415   0.27974   0.29332
 Alpha virt. eigenvalues --    0.30620   0.31114   0.31447   0.31861   0.32216

 Mulliken charges:
               1
     1  C   -0.304463
     2  C   -0.298927
     3  C   -0.478113
     4  H    0.150610
     5  H    0.152723
     6  H    0.151727
     7  H    0.151938
     8  H    0.158189
     9  H    0.156080
    10  H    0.159860
    11  C   -0.296741
    12  C   -0.299891
    13  C   -0.475729
    14  H    0.149553
    15  H    0.149785
    16  H    0.151990
    17  H    0.151992
    18  H    0.155231
    19  H    0.155249
    20  H    0.160318
    21  C   -0.298261
    22  C   -0.299278
    23  C   -0.486886
    24  H    0.149484
    25  H    0.149274
    26  H    0.150604
    27  H    0.151446
    28  H    0.152695
    29  H    0.154265
    30  H    0.175911
    31  C   -0.298122
    32  C   -0.299558
    33  C   -0.475651
    34  H    0.149243
    35  H    0.149448
    36  H    0.151873
    37  H    0.151834
    38  H    0.155091
    39  H    0.155082
    40  H    0.160125
 Sum of Mulliken charges =  -0.00000

 Dipole moment (field-independent basis, Debye):
    X=             -0.0769    Y=             -0.0071    Z=              0.0008  Tot=              0.0772
 Quadrupole moment (field-independent basis, Debye-Ang):
   XX=            -85.9545   YY=            -85.4760   ZZ=            -83.4230
   XY=              0.0298   XZ=              0.0277   YZ=              0.6819

 Normal termination of Gaussian 16 at Wed May  5 21:29:05 2021.
