 Gaussian 16, Revision A.03,
 Gaussian 16:  EM64L-G16RevA.03 25-Dec-2016

 -------------
 #p 6-31g* mp2
 -------------

 ------------------------------------------------------
 Input file generated by CHIRIPA (05-May-2021 14:53:15)
 ------------------------------------------------------
 Symbolic Z-matrix:
 Charge =  0 Multiplicity = 1

                         Standard orientation:
 ---------------------------------------------------------------------
 Center     Atomic      Atomic             Coordinates (Angstroms)
 Number     Number       Type             X           Y           Z
 ---------------------------------------------------------------------
      1          6           0        3.511003   -0.854223   -0.439206
      2          6           0        1.988111   -0.916823   -0.317285
      3          6           0        1.396776   -2.182155   -0.939420
      4          1           0        3.790021   -0.907614   -1.500452
      5          1           0        3.947230   -1.739658    0.043604
      6          1           0        1.554956   -0.030837   -0.798971
      7          1           0        1.712677   -0.863083    0.743782
      8          1           0        1.801323   -3.075773   -0.453223
      9          1           0        1.642706   -2.238798   -2.004742
     10          1           0        0.307005   -2.206345   -0.841059
     11          6           0        4.116927    0.404945    0.178113
     12          6           0        5.639819    0.467545    0.056192
     13          6           0        6.231154    1.732877    0.678327
     14          1           0        3.680700    1.290380   -0.304697
     15          1           0        3.837909    0.458336    1.239359
     16          1           0        5.915253    0.413806   -1.004876
     17          1           0        6.072974   -0.418441    0.537878
     18          1           0        5.985224    1.789520    1.743649
     19          1           0        5.826607    2.626496    0.192130
     20          1           0        7.320925    1.757067    0.579965
     21          6           0       -3.378580    2.560273   -0.618869
     22          6           0       -3.400924    2.226479    0.739291
     23          6           0       -3.181207    0.908359    1.150186
     24          6           0       -2.941094   -0.055052    0.171679
     25          6           0       -2.912530    0.246193   -1.189102
     26          6           0       -3.134884    1.570810   -1.577042
     27          1           0       -3.550286    3.586744   -0.929147
     28          1           0       -3.589933    2.992836    1.485628
     29          1           0       -3.192945    0.622309    2.194913
     30          1           0       -2.721497   -0.539595   -1.909838
     31          1           0       -3.116948    1.827142   -2.632513
     32          7           0       -2.707093   -1.453925    0.594525
     33          8           0       -2.497765   -2.284248   -0.287168
     34          8           0       -2.737443   -1.693551    1.799637
 ---------------------------------------------------------------------

 SCF Done:  E(RHF) =  -669.536402044     A.U. after   15 cycles
 E2 =    -0.2091156725D+01 EUMP2 =    -0.67162755876868D+03

 The electronic state is 1-A.
 Alpha  occ. eigenvalues --  -20.60966 -20.60958 -15.85976 -11.31275 -11.27836
 Alpha  occ. eigenvalues --  -11.27833 -11.27573 -11.26842 -11.26832 -11.21432
 Alpha  occ. eigenvalues --  -11.21159 -11.21126 -11.21010 -11.20968 -11.20212
 Alpha  occ. eigenvalues --   -1.60013  -1.39572  -1.19442  -1.08852  -1.08117
 Alpha  occ. eigenvalues --   -1.04836  -1.03160  -0.95700  -0.95584  -0.86598
 Alpha  occ. eigenvalues --   -0.86238  -0.82532  -0.79238  -0.77932  -0.77589
 Alpha  occ. eigenvalues --   -0.72202  -0.71323  -0.70553  -0.65100  -0.64841
 Alpha  occ. eigenvalues --   -0.64754  -0.62185  -0.60565  -0.58966  -0.57195
 Alpha  occ. eigenvalues --   -0.55344  -0.54885  -0.53168  -0.52929  -0.52238
 Alpha  occ. eigenvalues --   -0.52016  -0.49544  -0.48970  -0.48955  -0.47554
 Alpha  occ. eigenvalues --   -0.46294  -0.45470  -0.45402  -0.44971  -0.43348
 Alpha  occ. eigenvalues --   -0.37418  -0.36434
 Alpha virt. eigenvalues --    0.04906   0.11206   0.16371   0.21319   0.23144
 Alpha virt. eigenvalues --    0.24650   0.26929   0.27222   0.27733   0.27970
 Alpha virt. eigenvalues --    0.28615   0.30724   0.31751   0.31987   0.32106

 Mulliken charges:
               1
     1  C   -0.297375
     2  C   -0.300499
     3  C   -0.484624
     4  H    0.147984
     5  H    0.150597
     6  H    0.145764
     7  H    0.152971
     8  H    0.156408
     9  H    0.149157
    10  H    0.177365
    11  C   -0.297671
    12  C   -0.299352
    13  C   -0.475411
    14  H    0.146810
    15  H    0.149611
    16  H    0.151243
    17  H    0.152598
    18  H    0.155033
    19  H    0.153665
    20  H    0.159773
    21  C   -0.170505
    22  C   -0.218496
    23  C   -0.170619
    24  C    0.158813
    25  C   -0.170966
    26  C   -0.218606
    27  H    0.225941
    28  H    0.223787
    29  H    0.275731
    30  H    0.276143
    31  H    0.223802
    32  N    0.487877
    33  O   -0.458902
    34  O   -0.458045
 Sum of Mulliken charges =  -0.00000

 Dipole moment (field-independent basis, Debye):
    X=             -1.0241    Y=              4.8811    Z=             -1.4322  Tot=              5.1889
 Quadrupole moment (field-independent basis, Debye-Ang):
   XX=            -91.3543   YY=            -95.8671   ZZ=            -90.1193
   XY=            -15.4769   XZ=              3.6173   YZ=              1.5063

 Normal termination of Gaussian 16 at Thu May  6 10:36:54 2021.
