 Gaussian 16, Revision A.03,
 Gaussian 16:  EM64L-G16RevA.03 25-Dec-2016

 -------------
 #p 6-31g* mp2
 -------------

 ------------------------------------------------------
 Input file generated by CHIRIPA (05-May-2021 14:55:24)
 ------------------------------------------------------
 Symbolic Z-matrix:
 Charge =  0 Multiplicity = 1

                         Standard orientation:
 ---------------------------------------------------------------------
 Center     Atomic      Atomic             Coordinates (Angstroms)
 Number     Number       Type             X           Y           Z
 ---------------------------------------------------------------------
      1          6           0        1.967768    2.103295    0.944110
      2          6           0        2.514434    1.924068   -0.330862
      3          6           0        2.903495    0.653129   -0.764331
      4          6           0        2.730883   -0.421229    0.107018
      5          6           0        2.189263   -0.274839    1.383148
      6          6           0        1.807210    1.005205    1.795545
      7          1           0        1.668258    3.094127    1.272655
      8          1           0        2.640295    2.775038   -0.994229
      9          1           0        3.329384    0.485986   -1.746216
     10          1           0        2.076120   -1.142322    2.021967
     11          1           0        1.382943    1.141418    2.786246
     12          7           0        3.139054   -1.771535   -0.340722
     13          8           0        2.976580   -2.701841    0.445897
     14          8           0        3.613724   -1.874030   -1.469801
     15          6           0       -3.895806   -0.083353    0.251101
     16          6           0       -4.776580   -1.140111   -0.416345
     17          6           0       -5.744321   -1.806720    0.561869
     18          1           0       -3.329465   -0.550292    1.068518
     19          1           0       -4.537171    0.680701    0.711828
     20          1           0       -4.133723   -1.901211   -0.876866
     21          1           0       -5.340748   -0.670644   -1.232392
     22          1           0       -6.409466   -1.063128    1.012708
     23          1           0       -5.195584   -2.300686    1.370254
     24          1           0       -6.364208   -2.558673    0.063705
     25          6           0       -2.923039    0.591981   -0.713977
     26          6           0       -2.042265    1.648739   -0.046530
     27          6           0       -1.074524    2.315348   -1.024745
     28          1           0       -2.281675   -0.172073   -1.174704
     29          1           0       -3.489380    1.058919   -1.531394
     30          1           0       -1.478098    1.179272    0.769516
     31          1           0       -2.685122    2.409838    0.413990
     32          1           0       -1.623261    2.809314   -1.833130
     33          1           0       -0.409379    1.571756   -1.475583
     34          1           0       -0.454639    3.067300   -0.526580
 ---------------------------------------------------------------------

 SCF Done:  E(RHF) =  -669.534610334     A.U. after   15 cycles
 E2 =    -0.2093171829D+01 EUMP2 =    -0.67162778216303D+03

 The electronic state is 1-A.
 Alpha  occ. eigenvalues --  -20.60812 -20.60806 -15.85866 -11.31240 -11.27816
 Alpha  occ. eigenvalues --  -11.27792 -11.27543 -11.26839 -11.26794 -11.21957
 Alpha  occ. eigenvalues --  -11.21707 -11.21623 -11.21553 -11.21466 -11.21154
 Alpha  occ. eigenvalues --   -1.59888  -1.39441  -1.19420  -1.08825  -1.08643
 Alpha  occ. eigenvalues --   -1.04823  -1.03764  -0.96230  -0.95637  -0.87251
 Alpha  occ. eigenvalues --   -0.86212  -0.82474  -0.79839  -0.78460  -0.77517
 Alpha  occ. eigenvalues --   -0.72084  -0.71213  -0.70536  -0.65283  -0.65071
 Alpha  occ. eigenvalues --   -0.64821  -0.62165  -0.61173  -0.59639  -0.57848
 Alpha  occ. eigenvalues --   -0.55568  -0.55326  -0.53288  -0.52910  -0.52708
 Alpha  occ. eigenvalues --   -0.52643  -0.50130  -0.48843  -0.48838  -0.48156
 Alpha  occ. eigenvalues --   -0.46867  -0.46005  -0.45918  -0.44845  -0.44041
 Alpha  occ. eigenvalues --   -0.37317  -0.36378
 Alpha virt. eigenvalues --    0.04985   0.11183   0.16410   0.20756   0.22751
 Alpha virt. eigenvalues --    0.24194   0.26343   0.26654   0.27037   0.27708
 Alpha virt. eigenvalues --    0.28464   0.30531   0.31186   0.31706   0.32157

 Mulliken charges:
               1
     1  C   -0.167058
     2  C   -0.213888
     3  C   -0.173179
     4  C    0.158425
     5  C   -0.171834
     6  C   -0.219456
     7  H    0.225762
     8  H    0.224316
     9  H    0.275835
    10  H    0.275690
    11  H    0.224011
    12  N    0.488045
    13  O   -0.460457
    14  O   -0.460271
    15  C   -0.298209
    16  C   -0.300204
    17  C   -0.475868
    18  H    0.148938
    19  H    0.148541
    20  H    0.154368
    21  H    0.152047
    22  H    0.154413
    23  H    0.155502
    24  H    0.161423
    25  C   -0.298936
    26  C   -0.301331
    27  C   -0.471839
    28  H    0.152666
    29  H    0.150091
    30  H    0.150847
    31  H    0.149734
    32  H    0.154227
    33  H    0.160142
    34  H    0.147510
 Sum of Mulliken charges =  -0.00000

 Dipole moment (field-independent basis, Debye):
    X=             -1.4048    Y=              4.7051    Z=              1.5582  Tot=              5.1517
 Quadrupole moment (field-independent basis, Debye-Ang):
   XX=           -102.9649   YY=            -98.6629   ZZ=            -91.0216
   XY=             13.7562   XZ=              3.3545   YZ=             -1.8188

 Normal termination of Gaussian 16 at Thu May  6 09:31:41 2021.
