 Gaussian 16, Revision A.03,
 Gaussian 16:  EM64L-G16RevA.03 25-Dec-2016

 -------------
 #p 6-31g* mp2
 -------------

 ------------------------------------------------------
 Input file generated by CHIRIPA (05-May-2021 14:53:13)
 ------------------------------------------------------
 Symbolic Z-matrix:
 Charge =  0 Multiplicity = 1

                         Standard orientation:
 ---------------------------------------------------------------------
 Center     Atomic      Atomic             Coordinates (Angstroms)
 Number     Number       Type             X           Y           Z
 ---------------------------------------------------------------------
      1          6           0        4.106894   -0.118937   -0.668543
      2          6           0        5.091728   -0.580013    0.406397
      3          6           0        6.147437   -1.545086   -0.133886
      4          1           0        3.613084   -0.997629   -1.105575
      5          1           0        4.663860    0.364098   -1.483320
      6          1           0        4.532942   -1.060801    1.219549
      7          1           0        5.583111    0.299892    0.841053
      8          1           0        6.730207   -1.071809   -0.930748
      9          1           0        5.674071   -2.440233   -0.550103
     10          1           0        6.840998   -1.861977    0.651234
     11          6           0        3.045420    0.846269   -0.143777
     12          6           0        2.060586    1.307345   -1.218717
     13          6           0        1.004877    2.272418   -0.678434
     14          1           0        2.488454    0.363234    0.671000
     15          1           0        3.539230    1.724961    0.293255
     16          1           0        1.569203    0.427440   -1.653374
     17          1           0        2.619373    1.788133   -2.031869
     18          1           0        1.478243    3.167566   -0.262218
     19          1           0        0.422107    1.799141    0.118428
     20          1           0        0.311317    2.589309   -1.463555
     21          6           0       -4.530206   -0.718642   -1.460961
     22          6           0       -4.457561    0.535120   -0.845069
     23          6           0       -3.499539    0.787115    0.141460
     24          6           0       -2.626010   -0.242106    0.489229
     25          6           0       -2.673268   -1.501758   -0.106028
     26          6           0       -3.639398   -1.731295   -1.090128
     27          1           0       -5.277570   -0.905676   -2.226377
     28          1           0       -5.148079    1.323436   -1.131054
     29          1           0       -3.421135    1.748472    0.634474
     30          1           0       -1.971275   -2.267817    0.200206
     31          1           0       -3.693491   -2.705955   -1.566739
     32          7           0       -1.607503    0.012783    1.532339
     33          8           0       -0.849448   -0.910657    1.820868
     34          8           0       -1.586539    1.131176    2.041645
 ---------------------------------------------------------------------

 SCF Done:  E(RHF) =  -669.536211441     A.U. after   15 cycles
 E2 =    -0.2091548724D+01 EUMP2 =    -0.67162776016527D+03

 The electronic state is 1-A.
 Alpha  occ. eigenvalues --  -20.60978 -20.60970 -15.85989 -11.31283 -11.27850
 Alpha  occ. eigenvalues --  -11.27839 -11.27583 -11.26848 -11.26837 -11.20989
 Alpha  occ. eigenvalues --  -11.20957 -11.20756 -11.20595 -11.20547 -11.20299
 Alpha  occ. eigenvalues --   -1.60038  -1.39591  -1.19451  -1.08864  -1.07752
 Alpha  occ. eigenvalues --   -1.04844  -1.02895  -0.95710  -0.95336  -0.86353
 Alpha  occ. eigenvalues --   -0.86246  -0.82545  -0.78959  -0.77603  -0.77548
 Alpha  occ. eigenvalues --   -0.72215  -0.71370  -0.70563  -0.65108  -0.64848
 Alpha  occ. eigenvalues --   -0.64377  -0.62192  -0.60292  -0.58717  -0.56947
 Alpha  occ. eigenvalues --   -0.55353  -0.54617  -0.53176  -0.52936  -0.52064
 Alpha  occ. eigenvalues --   -0.51750  -0.49289  -0.48983  -0.48968  -0.47276
 Alpha  occ. eigenvalues --   -0.46016  -0.45121  -0.45031  -0.44868  -0.43141
 Alpha  occ. eigenvalues --   -0.37429  -0.36441
 Alpha virt. eigenvalues --    0.04899   0.11208   0.16383   0.21336   0.23497
 Alpha virt. eigenvalues --    0.24845   0.27254   0.27288   0.28033   0.28332
 Alpha virt. eigenvalues --    0.28631   0.30838   0.32026   0.32307   0.32439

 Mulliken charges:
               1
     1  C   -0.297348
     2  C   -0.300059
     3  C   -0.475268
     4  H    0.147482
     5  H    0.146320
     6  H    0.156094
     7  H    0.151396
     8  H    0.153352
     9  H    0.153782
    10  H    0.159321
    11  C   -0.301837
    12  C   -0.298377
    13  C   -0.482228
    14  H    0.163205
    15  H    0.148603
    16  H    0.147266
    17  H    0.147989
    18  H    0.155753
    19  H    0.167818
    20  H    0.152183
    21  C   -0.170408
    22  C   -0.218714
    23  C   -0.170305
    24  C    0.158092
    25  C   -0.170857
    26  C   -0.218634
    27  H    0.226003
    28  H    0.223906
    29  H    0.276378
    30  H    0.275489
    31  H    0.223746
    32  N    0.486874
    33  O   -0.459667
    34  O   -0.457350
 Sum of Mulliken charges =  -0.00000

 Dipole moment (field-independent basis, Debye):
    X=             -3.7680    Y=             -0.9313    Z=             -3.5086  Tot=              5.2321
 Quadrupole moment (field-independent basis, Debye-Ang):
   XX=            -76.6280   YY=            -90.0456   ZZ=            -99.2613
   XY=              2.5111   XZ=              8.4326   YZ=              0.9214

 Normal termination of Gaussian 16 at Thu May  6 05:47:45 2021.
