 Gaussian 16, Revision A.03,
 Gaussian 16:  EM64L-G16RevA.03 25-Dec-2016

 -------------
 #p 6-31g* mp2
 -------------

 ------------------------------------------------------
 Input file generated by CHIRIPA (05-May-2021 14:57:21)
 ------------------------------------------------------
 Symbolic Z-matrix:
 Charge =  0 Multiplicity = 1

                         Standard orientation:
 ---------------------------------------------------------------------
 Center     Atomic      Atomic             Coordinates (Angstroms)
 Number     Number       Type             X           Y           Z
 ---------------------------------------------------------------------
      1          6           0        2.125423   -2.405814    0.113045
      2          6           0        2.970656   -1.954798    1.132204
      3          6           0        3.501553   -0.662026    1.094270
      4          6           0        3.164784    0.156780    0.017500
      5          6           0        2.325426   -0.263572   -1.013068
      6          6           0        1.806069   -1.560253   -0.954457
      7          1           0        1.717491   -3.411588    0.150544
      8          1           0        3.220390   -2.609285    1.962460
      9          1           0        4.158346   -0.287269    1.869897
     10          1           0        2.094594    0.411899   -1.827852
     11          1           0        1.149906   -1.907835   -1.747351
     12          7           0        3.720713    1.527448   -0.033604
     13          8           0        3.408725    2.229361   -0.993093
     14          8           0        4.457911    1.873912    0.886798
     15          6           0       -3.696050    2.476678    0.400234
     16          6           0       -4.097067    1.480656    1.296698
     17          6           0       -3.757618    0.143415    1.070625
     18          6           0       -3.012942   -0.163631   -0.067122
     19          6           0       -2.598586    0.806062   -0.978877
     20          6           0       -2.949406    2.136801   -0.732695
     21          1           0       -3.964158    3.512953    0.583663
     22          1           0       -4.676992    1.741687    2.177376
     23          1           0       -4.055001   -0.647675    1.748238
     24          1           0       -2.021245    0.515073   -1.848026
     25          1           0       -2.636602    2.908228   -1.430619
     26          7           0       -2.647564   -1.575866   -0.317100
     27          8           0       -1.990863   -1.820388   -1.326848
     28          8           0       -3.024800   -2.411515    0.501449
 ---------------------------------------------------------------------

 SCF Done:  E(RHF) =  -868.340210083     A.U. after   16 cycles
 E2 =    -0.2598670865D+01 EUMP2 =    -0.87093888094777D+03

 The electronic state is 1-A.
 Alpha  occ. eigenvalues --  -20.61470 -20.61428 -20.60538 -20.60527 -15.86483
 Alpha  occ. eigenvalues --  -15.85578 -11.31564 -11.30736 -11.28110 -11.28090
 Alpha  occ. eigenvalues --  -11.27760 -11.27271 -11.27234 -11.27043 -11.27021
 Alpha  occ. eigenvalues --  -11.26832 -11.26234 -11.26049  -1.60514  -1.59615
 Alpha  occ. eigenvalues --   -1.40079  -1.39175  -1.19702  -1.18855  -1.09145
 Alpha  occ. eigenvalues --   -1.08263  -1.05065  -1.04216  -0.96033  -0.95147
 Alpha  occ. eigenvalues --   -0.86475  -0.85601  -0.82882  -0.81985  -0.77965
 Alpha  occ. eigenvalues --   -0.77081  -0.72725  -0.71820  -0.71794  -0.70936
 Alpha  occ. eigenvalues --   -0.70808  -0.69915  -0.65361  -0.65061  -0.64486
 Alpha  occ. eigenvalues --   -0.64159  -0.62424  -0.61559  -0.55564  -0.54646
 Alpha  occ. eigenvalues --   -0.53402  -0.53154  -0.52570  -0.52267  -0.49487
 Alpha  occ. eigenvalues --   -0.49443  -0.48571  -0.48533  -0.45543  -0.44628
 Alpha  occ. eigenvalues --   -0.37653  -0.36787  -0.36653  -0.35821
 Alpha virt. eigenvalues --    0.04536   0.05424   0.11006   0.11839   0.16086
 Alpha virt. eigenvalues --    0.17007   0.21059   0.22165   0.26848   0.27533
 Alpha virt. eigenvalues --    0.28583   0.28971   0.30798   0.31669   0.32502

 Mulliken charges:
               1
     1  C   -0.171696
     2  C   -0.218970
     3  C   -0.173105
     4  C    0.158153
     5  C   -0.175842
     6  C   -0.218878
     7  H    0.232182
     8  H    0.222325
     9  H    0.273027
    10  H    0.270254
    11  H    0.239087
    12  N    0.488200
    13  O   -0.464309
    14  O   -0.461862
    15  C   -0.169551
    16  C   -0.218277
    17  C   -0.170815
    18  C    0.158794
    19  C   -0.169822
    20  C   -0.217394
    21  H    0.228412
    22  H    0.224872
    23  H    0.275259
    24  H    0.271608
    25  H    0.227088
    26  N    0.490181
    27  O   -0.469875
    28  O   -0.459046
 Sum of Mulliken charges =  -0.00000

 Dipole moment (field-independent basis, Debye):
    X=             -3.5354    Y=              0.0797    Z=              1.0880  Tot=              3.6999
 Quadrupole moment (field-independent basis, Debye-Ang):
   XX=           -108.7983   YY=           -108.0687   ZZ=            -98.1926
   XY=            -31.1569   XZ=             -2.2611   YZ=             -2.5733

 Normal termination of Gaussian 16 at Thu May  6 12:51:58 2021.
