 Gaussian 16, Revision A.03,
 Gaussian 16:  EM64L-G16RevA.03 25-Dec-2016

 -------------
 #p 6-31g* mp2
 -------------

 ------------------------------------------------------
 Input file generated by CHIRIPA (05-May-2021 14:51:13)
 ------------------------------------------------------
 Symbolic Z-matrix:
 Charge =  0 Multiplicity = 1

                         Standard orientation:
 ---------------------------------------------------------------------
 Center     Atomic      Atomic             Coordinates (Angstroms)
 Number     Number       Type             X           Y           Z
 ---------------------------------------------------------------------
      1          6           0       -3.976141    0.539476    0.049895
      2          6           0       -2.643637    0.337950    0.772256
      3          6           0       -1.696528    1.527011    0.608209
      4          1           0       -3.784538    0.712862   -1.017893
      5          1           0       -4.458792    1.449396    0.432631
      6          1           0       -2.164290   -0.572076    0.389251
      7          1           0       -2.838445    0.164833    1.838416
      8          1           0       -2.150957    2.439447    1.007654
      9          1           0       -1.472971    1.698351   -0.449745
     10          1           0       -0.750133    1.361759    1.132507
     11          6           0       -4.933672   -0.640747    0.204600
     12          6           0       -6.266176   -0.439222   -0.517762
     13          6           0       -7.213285   -1.628283   -0.353715
     14          1           0       -4.451021   -1.550668   -0.178137
     15          1           0       -5.125275   -0.814134    1.272387
     16          1           0       -6.071368   -0.266105   -1.583922
     17          1           0       -6.745524    0.470805   -0.134757
     18          1           0       -7.436842   -1.799622    0.704239
     19          1           0       -6.758856   -2.540719   -0.753160
     20          1           0       -8.159680   -1.463030   -0.878013
     21          6           0        5.196718   -0.100879   -0.228197
     22          6           0        5.603114   -1.492277    0.258463
     23          6           0        7.090088   -1.780605    0.049732
     24          1           0        5.444027   -0.005575   -1.294359
     25          1           0        5.795253    0.654065    0.300206
     26          1           0        5.003018   -2.244305   -0.269701
     27          1           0        5.354633   -1.584348    1.323543
     28          1           0        7.703300   -1.052423    0.590401
     29          1           0        7.349687   -1.716130   -1.011895
     30          1           0        7.358832   -2.780463    0.404586
     31          6           0        3.713096    0.202150   -0.026297
     32          6           0        3.306699    1.593549   -0.512956
     33          6           0        1.819725    1.881877   -0.304227
     34          1           0        3.114560   -0.552794   -0.554700
     35          1           0        3.465786    0.106845    1.039865
     36          1           0        3.555180    1.685620   -1.578038
     37          1           0        3.906794    2.345577    0.015206
     38          1           0        1.560126    1.817401    0.757401
     39          1           0        1.206513    1.153694   -0.844895
     40          1           0        1.550981    2.881735   -0.659081
 ---------------------------------------------------------------------

 SCF Done:  E(RHF) =  -470.732333287     A.U. after   11 cycles
 E2 =    -0.1582704354D+01 EUMP2 =    -0.47231503764097D+03

 The electronic state is 1-A.
 Alpha  occ. eigenvalues --  -11.21595 -11.21572 -11.21545 -11.21512 -11.21391
 Alpha  occ. eigenvalues --  -11.21356 -11.21332 -11.21294 -11.21067 -11.21049
 Alpha  occ. eigenvalues --  -11.20990 -11.20872  -1.08414  -1.08372  -1.03531
 Alpha  occ. eigenvalues --   -1.03439  -0.96035  -0.95836  -0.87117  -0.86791
 Alpha  occ. eigenvalues --   -0.79687  -0.79416  -0.78234  -0.78179  -0.65048
 Alpha  occ. eigenvalues --   -0.65003  -0.60944  -0.60835  -0.59343  -0.59306
 Alpha  occ. eigenvalues --   -0.57685  -0.57411  -0.55327  -0.55134  -0.52958
 Alpha  occ. eigenvalues --   -0.52612  -0.52330  -0.52063  -0.49979  -0.49762
 Alpha  occ. eigenvalues --   -0.47942  -0.47760  -0.46641  -0.46515  -0.45772
 Alpha  occ. eigenvalues --   -0.45730  -0.45690  -0.45643  -0.43796  -0.43619
 Alpha virt. eigenvalues --    0.22385   0.23009   0.23610   0.24870   0.26306
 Alpha virt. eigenvalues --    0.26592   0.26991   0.27474   0.27653   0.29073
 Alpha virt. eigenvalues --    0.29731   0.31290   0.31660   0.32057   0.32195

 Mulliken charges:
               1
     1  C   -0.298437
     2  C   -0.299869
     3  C   -0.477838
     4  H    0.149347
     5  H    0.149387
     6  H    0.151220
     7  H    0.151239
     8  H    0.153527
     9  H    0.156124
    10  H    0.165432
    11  C   -0.298142
    12  C   -0.299567
    13  C   -0.475656
    14  H    0.149299
    15  H    0.149529
    16  H    0.151818
    17  H    0.151873
    18  H    0.155130
    19  H    0.155090
    20  H    0.160135
    21  C   -0.298170
    22  C   -0.299613
    23  C   -0.475692
    24  H    0.149617
    25  H    0.149533
    26  H    0.151834
    27  H    0.151891
    28  H    0.155186
    29  H    0.155157
    30  H    0.160211
    31  C   -0.298150
    32  C   -0.301066
    33  C   -0.474301
    34  H    0.149250
    35  H    0.149216
    36  H    0.151447
    37  H    0.151541
    38  H    0.155590
    39  H    0.156474
    40  H    0.160406
 Sum of Mulliken charges =  -0.00000

 Dipole moment (field-independent basis, Debye):
    X=              0.0207    Y=              0.0206    Z=             -0.0010  Tot=              0.0292
 Quadrupole moment (field-independent basis, Debye-Ang):
   XX=            -86.6603   YY=            -85.2024   ZZ=            -83.2057
   XY=             -0.3398   XZ=             -0.0061   YZ=              0.7288

 Normal termination of Gaussian 16 at Wed May  5 21:36:27 2021.
