 Gaussian 16, Revision A.03,
 Gaussian 16:  EM64L-G16RevA.03 25-Dec-2016

 -------------
 #p 6-31g* mp2
 -------------

 ------------------------------------------------------
 Input file generated by CHIRIPA (05-May-2021 14:57:25)
 ------------------------------------------------------
 Symbolic Z-matrix:
 Charge =  0 Multiplicity = 1

                         Standard orientation:
 ---------------------------------------------------------------------
 Center     Atomic      Atomic             Coordinates (Angstroms)
 Number     Number       Type             X           Y           Z
 ---------------------------------------------------------------------
      1          6           0        3.849497   -1.700951    0.565231
      2          6           0        2.905080   -1.314900    1.522082
      3          6           0        2.177153   -0.131793    1.364195
      4          6           0        2.420173    0.644787    0.232314
      5          6           0        3.354351    0.287071   -0.738583
      6          6           0        4.070728   -0.900146   -0.560063
      7          1           0        4.410482   -2.621613    0.695896
      8          1           0        2.731179   -1.934848    2.396992
      9          1           0        1.440046    0.190825    2.089460
     10          1           0        3.505677    0.925806   -1.600288
     11          1           0        4.803548   -1.197469   -1.304790
     12          7           0        1.655662    1.899464    0.054244
     13          8           0        1.888359    2.566121   -0.951767
     14          8           0        0.838218    2.192466    0.924056
     15          6           0       -4.546087    0.811810    0.635132
     16          6           0       -3.505745    1.509795    0.013018
     17          6           0       -2.392811    0.827646   -0.487581
     18          6           0       -2.352828   -0.558828   -0.348360
     19          6           0       -3.373410   -1.282521    0.266434
     20          6           0       -4.476722   -0.579667    0.759636
     21          1           0       -5.406903    1.349763    1.021136
     22          1           0       -3.556920    2.590445   -0.085077
     23          1           0       -1.573350    1.343054   -0.973643
     24          1           0       -3.294008   -2.359658    0.349430
     25          1           0       -5.283191   -1.124346    1.242312
     26          7           0       -1.179709   -1.291949   -0.874406
     27          8           0       -1.168451   -2.513524   -0.739266
     28          8           0       -0.293689   -0.631111   -1.411900
 ---------------------------------------------------------------------

 SCF Done:  E(RHF) =  -868.340397692     A.U. after   16 cycles
 E2 =    -0.2600824602D+01 EUMP2 =    -0.87094122229408D+03

 The electronic state is 1-A.
 Alpha  occ. eigenvalues --  -20.60650 -20.60644 -20.60325 -20.60281 -15.85670
 Alpha  occ. eigenvalues --  -15.85321 -11.30719 -11.30273 -11.27357 -11.27151
 Alpha  occ. eigenvalues --  -11.27017 -11.26865 -11.26799 -11.26561 -11.26310
 Alpha  occ. eigenvalues --  -11.26138 -11.25850 -11.25802  -1.59714  -1.59366
 Alpha  occ. eigenvalues --   -1.39281  -1.38937  -1.18889  -1.18419  -1.08357
 Alpha  occ. eigenvalues --   -1.07911  -1.04229  -1.03816  -0.95234  -0.94822
 Alpha  occ. eigenvalues --   -0.85658  -0.85248  -0.82077  -0.81700  -0.77151
 Alpha  occ. eigenvalues --   -0.76775  -0.71965  -0.71585  -0.71100  -0.70508
 Alpha  occ. eigenvalues --   -0.70001  -0.69618  -0.64546  -0.64239  -0.64130
 Alpha  occ. eigenvalues --   -0.63881  -0.61566  -0.61212  -0.54790  -0.54384
 Alpha  occ. eigenvalues --   -0.52613  -0.52334  -0.52070  -0.51961  -0.48675
 Alpha  occ. eigenvalues --   -0.48623  -0.48351  -0.48302  -0.44778  -0.44426
 Alpha  occ. eigenvalues --   -0.36907  -0.36297  -0.35792  -0.35372
 Alpha virt. eigenvalues --    0.05311   0.05803   0.11834   0.12274   0.16875
 Alpha virt. eigenvalues --    0.17367   0.21942   0.22239   0.27901   0.28110
 Alpha virt. eigenvalues --    0.28731   0.29138   0.31371   0.31768   0.33027

 Mulliken charges:
               1
     1  C   -0.167709
     2  C   -0.215049
     3  C   -0.173619
     4  C    0.175391
     5  C   -0.163632
     6  C   -0.216250
     7  H    0.223126
     8  H    0.219886
     9  H    0.269176
    10  H    0.273107
    11  H    0.220961
    12  N    0.489620
    13  O   -0.462356
    14  O   -0.472537
    15  C   -0.170463
    16  C   -0.219174
    17  C   -0.163710
    18  C    0.153560
    19  C   -0.172467
    20  C   -0.219786
    21  H    0.224560
    22  H    0.228266
    23  H    0.285632
    24  H    0.271815
    25  H    0.220710
    26  N    0.489375
    27  O   -0.463662
    28  O   -0.464775
 Sum of Mulliken charges =  -0.00000

 Dipole moment (field-independent basis, Debye):
    X=             -1.3915    Y=             -1.7537    Z=              2.3038  Tot=              3.2124
 Quadrupole moment (field-independent basis, Debye-Ang):
   XX=            -71.6758   YY=           -110.6470   ZZ=           -102.8454
   XY=            -11.2912   XZ=             -4.2569   YZ=             -5.1150

 Normal termination of Gaussian 16 at Fri May  7 01:58:35 2021.
