 Gaussian 16, Revision A.03,
 Gaussian 16:  EM64L-G16RevA.03 25-Dec-2016

 -------------
 #p 6-31g* mp2
 -------------

 ------------------------------------------------------
 Input file generated by CHIRIPA (05-May-2021 14:57:27)
 ------------------------------------------------------
 Symbolic Z-matrix:
 Charge =  0 Multiplicity = 1

                         Standard orientation:
 ---------------------------------------------------------------------
 Center     Atomic      Atomic             Coordinates (Angstroms)
 Number     Number       Type             X           Y           Z
 ---------------------------------------------------------------------
      1          6           0       -1.231481    0.159904    1.111579
      2          6           0       -1.921687   -1.039887    1.313166
      3          6           0       -3.218011   -1.205358    0.816465
      4          6           0       -3.796427   -0.145589    0.119604
      5          6           0       -3.134548    1.061902   -0.097581
      6          6           0       -1.839043    1.205127    0.408089
      7          1           0       -0.224784    0.279805    1.500912
      8          1           0       -1.452336   -1.853322    1.859132
      9          1           0       -3.775102   -2.123510    0.958111
     10          1           0       -3.628649    1.854855   -0.645768
     11          1           0       -1.305405    2.138020    0.250022
     12          7           0       -5.168353   -0.308990   -0.410979
     13          8           0       -5.655795    0.639796   -1.021587
     14          8           0       -5.730250   -1.382756   -0.206195
     15          6           0        1.873582    1.985713   -0.240499
     16          6           0        3.100087    2.165981    0.407352
     17          6           0        4.047711    1.138393    0.432214
     18          6           0        3.734351   -0.061841   -0.203817
     19          6           0        2.521205   -0.271967   -0.857585
     20          6           0        1.588558    0.769459   -0.869790
     21          1           0        1.143261    2.789344   -0.254896
     22          1           0        3.324157    3.109472    0.896905
     23          1           0        5.005039    1.251019    0.926436
     24          1           0        2.326476   -1.223743   -1.336774
     25          1           0        0.636857    0.626638   -1.373687
     26          7           0        4.729631   -1.157028   -0.184197
     27          8           0        4.429384   -2.204931   -0.751987
     28          8           0        5.791132   -0.946794    0.398602
 ---------------------------------------------------------------------

 SCF Done:  E(RHF) =  -868.336071616     A.U. after   16 cycles
 E2 =    -0.2602527843D+01 EUMP2 =    -0.87093859945906D+03

 The electronic state is 1-A.
 Alpha  occ. eigenvalues --  -20.61509 -20.61504 -20.61276 -20.61266 -15.86563
 Alpha  occ. eigenvalues --  -15.86337 -11.32119 -11.31815 -11.28640 -11.28628
 Alpha  occ. eigenvalues --  -11.28509 -11.28504 -11.28401 -11.28114 -11.27765
 Alpha  occ. eigenvalues --  -11.27683 -11.27557 -11.27350  -1.60580  -1.60349
 Alpha  occ. eigenvalues --   -1.40127  -1.39899  -1.20308  -1.20032  -1.09715
 Alpha  occ. eigenvalues --   -1.09373  -1.05704  -1.05463  -0.96497  -0.96187
 Alpha  occ. eigenvalues --   -0.87150  -0.86806  -0.83293  -0.83027  -0.78294
 Alpha  occ. eigenvalues --   -0.78067  -0.72777  -0.72551  -0.71909  -0.71679
 Alpha  occ. eigenvalues --   -0.71475  -0.71080  -0.65994  -0.65817  -0.65635
 Alpha  occ. eigenvalues --   -0.65338  -0.63026  -0.62782  -0.56313  -0.55947
 Alpha  occ. eigenvalues --   -0.54130  -0.53886  -0.53539  -0.53500  -0.49550
 Alpha  occ. eigenvalues --   -0.49522  -0.49319  -0.49297  -0.45490  -0.45280
 Alpha  occ. eigenvalues --   -0.38546  -0.38008  -0.37150  -0.37001
 Alpha virt. eigenvalues --    0.04135   0.04504   0.10032   0.10750   0.15366
 Alpha virt. eigenvalues --    0.16125   0.18998   0.21707   0.24776   0.26652
 Alpha virt. eigenvalues --    0.27760   0.28595   0.29696   0.31452   0.31640

 Mulliken charges:
               1
     1  C   -0.172097
     2  C   -0.221022
     3  C   -0.169023
     4  C    0.157892
     5  C   -0.170864
     6  C   -0.228721
     7  H    0.233754
     8  H    0.227998
     9  H    0.278589
    10  H    0.276501
    11  H    0.215372
    12  N    0.488122
    13  O   -0.459961
    14  O   -0.458080
    15  C   -0.182799
    16  C   -0.217447
    17  C   -0.171664
    18  C    0.159496
    19  C   -0.174187
    20  C   -0.222831
    21  H    0.222517
    22  H    0.226531
    23  H    0.278452
    24  H    0.279030
    25  H    0.232574
    26  N    0.487697
    27  O   -0.458004
    28  O   -0.457824
 Sum of Mulliken charges =  -0.00000

 Dipole moment (field-independent basis, Debye):
    X=              1.4272    Y=              4.2151    Z=              1.8256  Tot=              4.8100
 Quadrupole moment (field-independent basis, Debye-Ang):
   XX=           -165.6547   YY=           -100.0753   ZZ=           -103.3797
   XY=             14.2931   XZ=             -4.3926   YZ=             -1.2977

 Normal termination of Gaussian 16 at Thu May  6 02:02:25 2021.
