 Gaussian 16, Revision A.03,
 Gaussian 16:  EM64L-G16RevA.03 25-Dec-2016

 -------------
 #p 6-31g* mp2
 -------------

 ------------------------------------------------------
 Input file generated by CHIRIPA (05-May-2021 14:53:13)
 ------------------------------------------------------
 Symbolic Z-matrix:
 Charge =  0 Multiplicity = 1

                         Standard orientation:
 ---------------------------------------------------------------------
 Center     Atomic      Atomic             Coordinates (Angstroms)
 Number     Number       Type             X           Y           Z
 ---------------------------------------------------------------------
      1          6           0        5.039134   -0.426122   -0.112645
      2          6           0        6.562047   -0.389406    0.019160
      3          6           0        7.213253   -1.742137   -0.270398
      4          1           0        4.636176   -1.183138    0.574012
      5          1           0        4.773686   -0.752081   -1.127870
      6          1           0        6.824547   -0.062282    1.033408
      7          1           0        6.961411    0.367745   -0.667752
      8          1           0        6.980394   -2.071826   -1.288083
      9          1           0        6.842754   -2.504296    0.422742
     10          1           0        8.302045   -1.693165   -0.170423
     11          6           0        4.373666    0.918806    0.173794
     12          6           0        2.850752    0.882090    0.041990
     13          6           0        2.199546    2.234821    0.331548
     14          1           0        4.639113    1.244766    1.189019
     15          1           0        4.776623    1.675822   -0.512863
     16          1           0        2.451389    0.124940    0.728901
     17          1           0        2.588252    0.554967   -0.972259
     18          1           0        2.570046    2.996980   -0.361593
     19          1           0        2.432405    2.564510    1.349233
     20          1           0        1.110754    2.185849    0.231572
     21          6           0       -6.193007   -0.379195   -0.035327
     22          6           0       -5.581798    0.857416   -0.267141
     23          6           0       -4.188507    0.972626   -0.263131
     24          6           0       -3.433624   -0.174401   -0.022780
     25          6           0       -4.013058   -1.420459    0.211503
     26          6           0       -5.408070   -1.512188    0.202835
     27          1           0       -7.276017   -0.459572   -0.040251
     28          1           0       -6.188877    1.738998   -0.452384
     29          1           0       -3.689274    1.917625   -0.439663
     30          1           0       -3.381412   -2.281526    0.393177
     31          1           0       -5.880012   -2.473850    0.383172
     32          7           0       -1.957699   -0.064862   -0.016069
     33          8           0       -1.315001   -1.090370    0.198200
     34          8           0       -1.471514    1.044427   -0.225206
 ---------------------------------------------------------------------

 SCF Done:  E(RHF) =  -669.536406506     A.U. after   15 cycles
 E2 =    -0.2090924785D+01 EUMP2 =    -0.67162733129143D+03

 The electronic state is 1-A.
 Alpha  occ. eigenvalues --  -20.61012 -20.60998 -15.86033 -11.31330 -11.27889
 Alpha  occ. eigenvalues --  -11.27885 -11.27623 -11.26891 -11.26881 -11.20810
 Alpha  occ. eigenvalues --  -11.20410 -11.20378 -11.20165 -11.19958 -11.19247
 Alpha  occ. eigenvalues --   -1.60059  -1.39617  -1.19495  -1.08904  -1.07297
 Alpha  occ. eigenvalues --   -1.04887  -1.02314  -0.95750  -0.94780  -0.86289
 Alpha  occ. eigenvalues --   -0.85813  -0.82584  -0.78432  -0.77639  -0.77038
 Alpha  occ. eigenvalues --   -0.72255  -0.71371  -0.70603  -0.65151  -0.64890
 Alpha  occ. eigenvalues --   -0.63946  -0.62234  -0.59734  -0.58195  -0.56333
 Alpha  occ. eigenvalues --   -0.55389  -0.54111  -0.53220  -0.52979  -0.51456
 Alpha  occ. eigenvalues --   -0.51221  -0.49003  -0.48951  -0.48788  -0.46706
 Alpha  occ. eigenvalues --   -0.45501  -0.45035  -0.44588  -0.44496  -0.42546
 Alpha  occ. eigenvalues --   -0.37473  -0.36487
 Alpha virt. eigenvalues --    0.04890   0.11169   0.16393   0.21303   0.23901
 Alpha virt. eigenvalues --    0.25575   0.27226   0.27726   0.28165   0.28607
 Alpha virt. eigenvalues --    0.29249   0.30873   0.32381   0.32518   0.32784

 Mulliken charges:
               1
     1  C   -0.297225
     2  C   -0.298674
     3  C   -0.475020
     4  H    0.149797
     5  H    0.148734
     6  H    0.150304
     7  H    0.150200
     8  H    0.154323
     9  H    0.154509
    10  H    0.157504
    11  C   -0.297693
    12  C   -0.295553
    13  C   -0.487960
    14  H    0.145795
    15  H    0.145594
    16  H    0.157534
    17  H    0.152613
    18  H    0.145607
    19  H    0.145934
    20  H    0.188583
    21  C   -0.170506
    22  C   -0.218559
    23  C   -0.170753
    24  C    0.157521
    25  C   -0.170455
    26  C   -0.218618
    27  H    0.226121
    28  H    0.223975
    29  H    0.275924
    30  H    0.275952
    31  H    0.223937
    32  N    0.490961
    33  O   -0.458514
    34  O   -0.461893
 Sum of Mulliken charges =  -0.00000

 Dipole moment (field-independent basis, Debye):
    X=             -5.6615    Y=             -0.4691    Z=             -0.0392  Tot=              5.6810
 Quadrupole moment (field-independent basis, Debye-Ang):
   XX=            -61.6096   YY=            -90.9788   ZZ=            -94.6164
   XY=              2.1462   XZ=              0.2642   YZ=             -1.6250

 Normal termination of Gaussian 16 at Wed May  5 21:46:23 2021.
