 Gaussian 16, Revision A.03,
 Gaussian 16:  EM64L-G16RevA.03 25-Dec-2016

 -------------
 #p 6-31g* mp2
 -------------

 ------------------------------------------------------
 Input file generated by CHIRIPA (05-May-2021 14:51:12)
 ------------------------------------------------------
 Symbolic Z-matrix:
 Charge =  0 Multiplicity = 1

                         Standard orientation:
 ---------------------------------------------------------------------
 Center     Atomic      Atomic             Coordinates (Angstroms)
 Number     Number       Type             X           Y           Z
 ---------------------------------------------------------------------
      1          6           0       -2.617720   -0.395053   -0.764478
      2          6           0       -3.451709   -1.659819   -0.557563
      3          6           0       -2.888093   -2.868490   -1.305391
      4          1           0       -2.563577   -0.170860   -1.838606
      5          1           0       -1.587629   -0.585101   -0.432529
      6          1           0       -4.480256   -1.467009   -0.888518
      7          1           0       -3.504033   -1.880920    0.516212
      8          1           0       -1.869771   -3.088962   -0.969217
      9          1           0       -2.851541   -2.672700   -2.381928
     10          1           0       -3.499625   -3.761632   -1.143573
     11          6           0       -3.168510    0.821822   -0.023146
     12          6           0       -2.334521    2.086588   -0.230061
     13          6           0       -2.898137    3.295258    0.517767
     14          1           0       -4.198601    1.011870   -0.355095
     15          1           0       -3.222653    0.597628    1.050982
     16          1           0       -2.282197    2.307688   -1.303836
     17          1           0       -1.305974    1.893778    0.100894
     18          1           0       -2.934689    3.099468    1.594304
     19          1           0       -3.916459    3.515730    0.181593
     20          1           0       -2.286605    4.188401    0.355949
     21          6           0        3.108071    0.218899   -0.198097
     22          6           0        4.562739   -0.002436   -0.613952
     23          6           0        4.977901    0.869471   -1.799368
     24          1           0        2.452745    0.011311   -1.055069
     25          1           0        2.963848    1.278081    0.056321
     26          1           0        4.704512   -1.061160   -0.866183
     27          1           0        5.214666    0.205518    0.244163
     28          1           0        4.864840    1.930715   -1.555279
     29          1           0        4.351788    0.656840   -2.671934
     30          1           0        6.021336    0.695180   -2.079950
     31          6           0        2.678159   -0.645668    0.985721
     32          6           0        1.223491   -0.424332    1.401576
     33          6           0        0.808329   -1.296240    2.586993
     34          1           0        2.822383   -1.704849    0.731303
     35          1           0        3.333486   -0.438079    1.842692
     36          1           0        0.571564   -0.632287    0.543460
     37          1           0        1.081718    0.634391    1.653808
     38          1           0        1.434443   -1.083608    3.459558
     39          1           0        0.921391   -2.357484    2.342903
     40          1           0       -0.235106   -1.121949    2.867574
 ---------------------------------------------------------------------

 SCF Done:  E(RHF) =  -470.733339371     A.U. after   11 cycles
 E2 =    -0.1583353028D+01 EUMP2 =    -0.47231669239956D+03

 The electronic state is 1-A.
 Alpha  occ. eigenvalues --  -11.21685 -11.21624 -11.21595 -11.21552 -11.21453
 Alpha  occ. eigenvalues --  -11.21388 -11.21377 -11.21317 -11.21162 -11.21084
 Alpha  occ. eigenvalues --  -11.21083 -11.21047  -1.08488  -1.08404  -1.03586
 Alpha  occ. eigenvalues --   -1.03511  -0.96031  -0.95963  -0.87046  -0.86981
 Alpha  occ. eigenvalues --   -0.79663  -0.79571  -0.78365  -0.78154  -0.65187
 Alpha  occ. eigenvalues --   -0.64983  -0.61032  -0.60863  -0.59401  -0.59331
 Alpha  occ. eigenvalues --   -0.57655  -0.57563  -0.55336  -0.55234  -0.52727
 Alpha  occ. eigenvalues --   -0.52659  -0.52454  -0.52394  -0.50013  -0.49877
 Alpha  occ. eigenvalues --   -0.48019  -0.47901  -0.46838  -0.46534  -0.46096
 Alpha  occ. eigenvalues --   -0.45761  -0.45743  -0.45261  -0.43832  -0.43763
 Alpha virt. eigenvalues --    0.20381   0.23168   0.23889   0.24528   0.25477
 Alpha virt. eigenvalues --    0.26533   0.26770   0.27765   0.28234   0.29424
 Alpha virt. eigenvalues --    0.30272   0.31633   0.31708   0.32037   0.32079

 Mulliken charges:
               1
     1  C   -0.307734
     2  C   -0.298956
     3  C   -0.475658
     4  H    0.149357
     5  H    0.158468
     6  H    0.151959
     7  H    0.151894
     8  H    0.154442
     9  H    0.155102
    10  H    0.160390
    11  C   -0.297319
    12  C   -0.302466
    13  C   -0.475660
    14  H    0.149411
    15  H    0.149147
    16  H    0.151640
    17  H    0.155218
    18  H    0.154963
    19  H    0.155066
    20  H    0.160045
    21  C   -0.298615
    22  C   -0.299696
    23  C   -0.475762
    24  H    0.150082
    25  H    0.149594
    26  H    0.152021
    27  H    0.151974
    28  H    0.155245
    29  H    0.155373
    30  H    0.160324
    31  C   -0.297479
    32  C   -0.309203
    33  C   -0.475714
    34  H    0.149658
    35  H    0.149902
    36  H    0.159074
    37  H    0.152807
    38  H    0.155866
    39  H    0.155361
    40  H    0.159880
 Sum of Mulliken charges =  -0.00000

 Dipole moment (field-independent basis, Debye):
    X=              0.0362    Y=             -0.0055    Z=              0.0039  Tot=              0.0369
 Quadrupole moment (field-independent basis, Debye-Ang):
   XX=            -84.6876   YY=            -85.4700   ZZ=            -84.6335
   XY=              0.1208   XZ=              1.1859   YZ=              0.2829

 Normal termination of Gaussian 16 at Thu May  6 00:46:05 2021.
