 Gaussian 16, Revision A.03,
 Gaussian 16:  EM64L-G16RevA.03 25-Dec-2016

 -------------
 #p 6-31g* mp2
 -------------

 ------------------------------------------------------
 Input file generated by CHIRIPA (05-May-2021 14:55:25)
 ------------------------------------------------------
 Symbolic Z-matrix:
 Charge =  0 Multiplicity = 1

                         Standard orientation:
 ---------------------------------------------------------------------
 Center     Atomic      Atomic             Coordinates (Angstroms)
 Number     Number       Type             X           Y           Z
 ---------------------------------------------------------------------
      1          6           0       -3.324715   -2.253683   -0.554030
      2          6           0       -2.104367   -1.632183   -0.269408
      3          6           0       -2.049286   -0.258369   -0.016131
      4          6           0       -3.239206    0.466755   -0.055840
      5          6           0       -4.470474   -0.123606   -0.336451
      6          6           0       -4.501799   -1.498742   -0.586586
      7          1           0       -3.358277   -3.321409   -0.749561
      8          1           0       -1.188642   -2.215979   -0.243452
      9          1           0       -1.118127    0.248236    0.206828
     10          1           0       -5.366589    0.484706   -0.355238
     11          1           0       -5.450962   -1.978738   -0.807352
     12          7           0       -3.193468    1.921850    0.210629
     13          8           0       -4.255910    2.538435    0.169662
     14          8           0       -2.096044    2.418217    0.455410
     15          6           0        3.492794   -0.349711    0.502261
     16          6           0        2.840652   -1.726058    0.366750
     17          6           0        1.514977   -1.828983    1.121592
     18          1           0        3.657322   -0.132139    1.566469
     19          1           0        2.797727    0.415858    0.130531
     20          1           0        3.537286   -2.488932    0.737344
     21          1           0        2.677832   -1.940459   -0.697269
     22          1           0        0.799938   -1.089393    0.746987
     23          1           0        1.664275   -1.640984    2.189752
     24          1           0        1.066117   -2.821052    1.011215
     25          6           0        4.818870   -0.231250   -0.246882
     26          6           0        5.471011    1.145098   -0.111372
     27          6           0        6.796687    1.248023   -0.866213
     28          1           0        5.513937   -0.996818    0.124847
     29          1           0        4.654341   -0.448820   -1.311090
     30          1           0        5.633832    1.359500    0.952648
     31          1           0        4.774377    1.907973   -0.481966
     32          1           0        6.647387    1.060023   -1.934373
     33          1           0        7.511725    0.508433   -0.491609
     34          1           0        7.245547    2.240093   -0.755836
 ---------------------------------------------------------------------

 SCF Done:  E(RHF) =  -669.534772346     A.U. after   15 cycles
 E2 =    -0.2091912631D+01 EUMP2 =    -0.67162668497655D+03

 The electronic state is 1-A.
 Alpha  occ. eigenvalues --  -20.60724 -20.60718 -15.85774 -11.31119 -11.27680
 Alpha  occ. eigenvalues --  -11.27663 -11.27406 -11.26700 -11.26612 -11.22268
 Alpha  occ. eigenvalues --  -11.22091 -11.21779 -11.21723 -11.21628 -11.21156
 Alpha  occ. eigenvalues --   -1.59798  -1.39352  -1.19281  -1.08819  -1.08680
 Alpha  occ. eigenvalues --   -1.04691  -1.03975  -0.96456  -0.95523  -0.87489
 Alpha  occ. eigenvalues --   -0.86079  -0.82362  -0.80055  -0.78571  -0.77405
 Alpha  occ. eigenvalues --   -0.71994  -0.71120  -0.70411  -0.65466  -0.64934
 Alpha  occ. eigenvalues --   -0.64699  -0.62204  -0.61252  -0.59858  -0.58025
 Alpha  occ. eigenvalues --   -0.55759  -0.55154  -0.53259  -0.53022  -0.52889
 Alpha  occ. eigenvalues --   -0.52637  -0.50383  -0.48752  -0.48746  -0.48350
 Alpha  occ. eigenvalues --   -0.47057  -0.46125  -0.46013  -0.44762  -0.44204
 Alpha  occ. eigenvalues --   -0.37263  -0.36276
 Alpha virt. eigenvalues --    0.05119   0.11367   0.16610   0.20009   0.22824
 Alpha virt. eigenvalues --    0.23926   0.25185   0.26538   0.26698   0.27941
 Alpha virt. eigenvalues --    0.29229   0.30276   0.31367   0.31551   0.32076

 Mulliken charges:
               1
     1  C   -0.171954
     2  C   -0.221519
     3  C   -0.179351
     4  C    0.160529
     5  C   -0.171314
     6  C   -0.218452
     7  H    0.225333
     8  H    0.230853
     9  H    0.278391
    10  H    0.275238
    11  H    0.223070
    12  N    0.488762
    13  O   -0.460592
    14  O   -0.461117
    15  C   -0.299806
    16  C   -0.299981
    17  C   -0.482942
    18  H    0.152379
    19  H    0.152155
    20  H    0.155024
    21  H    0.151271
    22  H    0.150163
    23  H    0.164009
    24  H    0.156078
    25  C   -0.298766
    26  C   -0.300512
    27  C   -0.476023
    28  H    0.149629
    29  H    0.149703
    30  H    0.153045
    31  H    0.154809
    32  H    0.155232
    33  H    0.154805
    34  H    0.161850
 Sum of Mulliken charges =  -0.00000

 Dipole moment (field-independent basis, Debye):
    X=              0.0479    Y=             -5.1059    Z=             -0.8895  Tot=              5.1830
 Quadrupole moment (field-independent basis, Debye-Ang):
   XX=            -88.9044   YY=           -100.1805   ZZ=            -94.8792
   XY=             16.1103   XZ=              4.8834   YZ=             -0.3843

 Normal termination of Gaussian 16 at Wed May  5 17:40:49 2021.
