 Gaussian 16, Revision A.03,
 Gaussian 16:  EM64L-G16RevA.03 25-Dec-2016

 -------------
 #p 6-31g* mp2
 -------------

 ------------------------------------------------------
 Input file generated by CHIRIPA (05-May-2021 14:51:11)
 ------------------------------------------------------
 Symbolic Z-matrix:
 Charge =  0 Multiplicity = 1

                         Standard orientation:
 ---------------------------------------------------------------------
 Center     Atomic      Atomic             Coordinates (Angstroms)
 Number     Number       Type             X           Y           Z
 ---------------------------------------------------------------------
      1          6           0       -3.645784    0.171146    0.055297
      2          6           0       -4.772911   -0.509822   -0.721783
      3          6           0       -5.838848    0.475424   -1.202266
      4          1           0       -4.072079    0.701731    0.917675
      5          1           0       -3.179610    0.934966   -0.582399
      6          1           0       -5.235915   -1.273082   -0.083287
      7          1           0       -4.343861   -1.039007   -1.582303
      8          1           0       -5.396876    1.230459   -1.860432
      9          1           0       -6.293999    0.995054   -0.352899
     10          1           0       -6.634979   -0.032621   -1.755370
     11          6           0       -2.572475   -0.800766    0.542249
     12          6           0       -1.445348   -0.119798    1.319329
     13          6           0       -0.379411   -1.105044    1.799812
     14          1           0       -3.038649   -1.564586    1.179945
     15          1           0       -2.146179   -1.331352   -0.320129
     16          1           0       -1.874397    0.409387    2.179850
     17          1           0       -0.982344    0.643462    0.680834
     18          1           0        0.075740   -1.624674    0.950446
     19          1           0       -0.821382   -1.860080    2.457979
     20          1           0        0.416721   -0.596999    2.352917
     21          6           0        2.780559    0.868115    0.112722
     22          6           0        2.887275    2.249539   -0.534012
     23          6           0        2.225279    3.345968    0.301094
     24          1           0        1.720746    0.623624    0.267526
     25          1           0        3.242587    0.900750    1.109145
     26          1           0        2.426413    2.213950   -1.529479
     27          1           0        3.946951    2.490688   -0.687469
     28          1           0        2.690186    3.410538    1.290180
     29          1           0        1.161009    3.132228    0.443386
     30          1           0        2.313322    4.325206   -0.179740
     31          6           0        3.437698   -0.238495   -0.710268
     32          6           0        3.330984   -1.619919   -0.063535
     33          6           0        3.992980   -2.716348   -0.898640
     34          1           0        2.975671   -0.271129   -1.706692
     35          1           0        4.497513    0.005997   -0.865072
     36          1           0        2.271308   -1.861067    0.089923
     37          1           0        3.791846   -1.584330    0.931933
     38          1           0        5.057249   -2.502608   -1.040932
     39          1           0        3.528071   -2.780918   -1.887726
     40          1           0        3.904936   -3.695586   -0.417806
 ---------------------------------------------------------------------

 SCF Done:  E(RHF) =  -470.732706415     A.U. after   11 cycles
 E2 =    -0.1583939638D+01 EUMP2 =    -0.47231664605304D+03

 The electronic state is 1-A.
 Alpha  occ. eigenvalues --  -11.21665 -11.21633 -11.21587 -11.21531 -11.21452
 Alpha  occ. eigenvalues --  -11.21392 -11.21366 -11.21301 -11.21095 -11.21070
 Alpha  occ. eigenvalues --  -11.21070 -11.21040  -1.08486  -1.08394  -1.03573
 Alpha  occ. eigenvalues --   -1.03505  -0.96028  -0.95947  -0.87038  -0.86972
 Alpha  occ. eigenvalues --   -0.79683  -0.79527  -0.78288  -0.78216  -0.65245
 Alpha  occ. eigenvalues --   -0.64931  -0.60989  -0.60905  -0.59391  -0.59323
 Alpha  occ. eigenvalues --   -0.57688  -0.57503  -0.55357  -0.55217  -0.52748
 Alpha  occ. eigenvalues --   -0.52612  -0.52507  -0.52317  -0.50044  -0.49869
 Alpha  occ. eigenvalues --   -0.48010  -0.47848  -0.46854  -0.46415  -0.45924
 Alpha  occ. eigenvalues --   -0.45735  -0.45716  -0.45486  -0.43818  -0.43746
 Alpha virt. eigenvalues --    0.20453   0.23244   0.23484   0.24160   0.25878
 Alpha virt. eigenvalues --    0.26666   0.27027   0.27202   0.28078   0.29566
 Alpha virt. eigenvalues --    0.29961   0.31424   0.31752   0.31888   0.32369

 Mulliken charges:
               1
     1  C   -0.298345
     2  C   -0.299690
     3  C   -0.475742
     4  H    0.149908
     5  H    0.149349
     6  H    0.152055
     7  H    0.151902
     8  H    0.155210
     9  H    0.155287
    10  H    0.160364
    11  C   -0.298188
    12  C   -0.303699
    13  C   -0.481210
    14  H    0.149997
    15  H    0.149359
    16  H    0.152736
    17  H    0.153095
    18  H    0.158508
    19  H    0.155763
    20  H    0.163111
    21  C   -0.306674
    22  C   -0.299219
    23  C   -0.476555
    24  H    0.160062
    25  H    0.148878
    26  H    0.151299
    27  H    0.151937
    28  H    0.155221
    29  H    0.155536
    30  H    0.160255
    31  C   -0.297636
    32  C   -0.305905
    33  C   -0.475291
    34  H    0.148543
    35  H    0.149495
    36  H    0.158714
    37  H    0.151768
    38  H    0.155029
    39  H    0.154568
    40  H    0.160205
 Sum of Mulliken charges =  -0.00000

 Dipole moment (field-independent basis, Debye):
    X=             -0.0314    Y=             -0.0123    Z=              0.0323  Tot=              0.0466
 Quadrupole moment (field-independent basis, Debye-Ang):
   XX=            -84.7226   YY=            -85.9638   ZZ=            -84.1713
   XY=              1.1112   XZ=             -0.1074   YZ=             -0.2568

 Normal termination of Gaussian 16 at Wed May  5 15:14:35 2021.
