 Gaussian 16, Revision A.03,
 Gaussian 16:  EM64L-G16RevA.03 25-Dec-2016

 -------------
 #p 6-31g* mp2
 -------------

 ------------------------------------------------------
 Input file generated by CHIRIPA (05-May-2021 14:55:18)
 ------------------------------------------------------
 Symbolic Z-matrix:
 Charge =  0 Multiplicity = 1

                         Standard orientation:
 ---------------------------------------------------------------------
 Center     Atomic      Atomic             Coordinates (Angstroms)
 Number     Number       Type             X           Y           Z
 ---------------------------------------------------------------------
      1          6           0       -5.144392   -1.273767    0.322004
      2          6           0       -5.150909    0.116287    0.477658
      3          6           0       -4.034492    0.876409    0.116581
      4          6           0       -2.923571    0.210811   -0.399290
      5          6           0       -2.886541   -1.172663   -0.566375
      6          6           0       -4.014222   -1.912679   -0.198598
      7          1           0       -6.016027   -1.856439    0.605100
      8          1           0       -6.027218    0.615160    0.881703
      9          1           0       -4.012593    1.953840    0.226491
     10          1           0       -1.998281   -1.641669   -0.971894
     11          1           0       -4.006337   -2.992077   -0.320591
     12          7           0       -1.735708    1.004876   -0.785093
     13          8           0       -0.769405    0.394595   -1.237258
     14          8           0       -1.793456    2.222508   -0.628014
     15          6           0        3.587580    0.073852    1.052778
     16          6           0        2.076401   -0.023086    0.840822
     17          6           0        1.279369    0.332336    2.096293
     18          1           0        3.879598   -0.593306    1.875317
     19          1           0        3.841246    1.094003    1.372686
     20          1           0        1.825826   -1.042374    0.520073
     21          1           0        1.787974    0.644237    0.018565
     22          1           0        1.500315    1.355856    2.415966
     23          1           0        1.538381   -0.340338    2.920322
     24          1           0        0.201472    0.256441    1.922407
     25          6           0        4.397943   -0.278499   -0.193372
     26          6           0        5.909121   -0.181560    0.018584
     27          6           0        6.706154   -0.536983   -1.236888
     28          1           0        4.144276   -1.298650   -0.513280
     29          1           0        4.105924    0.388660   -1.015911
     30          1           0        6.197548   -0.848883    0.840840
     31          1           0        6.159697    0.837728    0.339333
     32          1           0        6.447141    0.135691   -2.060916
     33          1           0        6.485207   -1.560503   -1.556560
     34          1           0        7.784051   -0.461087   -1.063001
 ---------------------------------------------------------------------

 SCF Done:  E(RHF) =  -669.536037812     A.U. after   15 cycles
 E2 =    -0.2091705115D+01 EUMP2 =    -0.67162774292764D+03

 The electronic state is 1-A.
 Alpha  occ. eigenvalues --  -20.60959 -20.60927 -15.85964 -11.31289 -11.27848
 Alpha  occ. eigenvalues --  -11.27845 -11.27585 -11.26853 -11.26844 -11.20938
 Alpha  occ. eigenvalues --  -11.20546 -11.20506 -11.20423 -11.20264 -11.20157
 Alpha  occ. eigenvalues --   -1.60002  -1.39557  -1.19454  -1.08860  -1.07530
 Alpha  occ. eigenvalues --   -1.04848  -1.02644  -0.95703  -0.95154  -0.86250
 Alpha  occ. eigenvalues --   -0.86177  -0.82535  -0.78709  -0.77595  -0.77287
 Alpha  occ. eigenvalues --   -0.72184  -0.71320  -0.70561  -0.65109  -0.64852
 Alpha  occ. eigenvalues --   -0.64164  -0.62195  -0.60040  -0.58524  -0.56738
 Alpha  occ. eigenvalues --   -0.55353  -0.54457  -0.53180  -0.52940  -0.51879
 Alpha  occ. eigenvalues --   -0.51572  -0.49140  -0.48948  -0.48943  -0.47029
 Alpha  occ. eigenvalues --   -0.45738  -0.45107  -0.44818  -0.44558  -0.42915
 Alpha  occ. eigenvalues --   -0.37431  -0.36448
 Alpha virt. eigenvalues --    0.04922   0.11200   0.16399   0.21319   0.23692
 Alpha virt. eigenvalues --    0.24968   0.27205   0.27572   0.27992   0.28605
 Alpha virt. eigenvalues --    0.28654   0.30852   0.32076   0.32221   0.32448

 Mulliken charges:
               1
     1  C   -0.170506
     2  C   -0.218561
     3  C   -0.170651
     4  C    0.157355
     5  C   -0.170867
     6  C   -0.218511
     7  H    0.226007
     8  H    0.223841
     9  H    0.275933
    10  H    0.276140
    11  H    0.223850
    12  N    0.488709
    13  O   -0.458467
    14  O   -0.459246
    15  C   -0.298824
    16  C   -0.301731
    17  C   -0.472849
    18  H    0.143867
    19  H    0.148000
    20  H    0.145568
    21  H    0.177196
    22  H    0.155479
    23  H    0.148161
    24  H    0.152717
    25  C   -0.297663
    26  C   -0.298932
    27  C   -0.475197
    28  H    0.147161
    29  H    0.153784
    30  H    0.149491
    31  H    0.151302
    32  H    0.155841
    33  H    0.153710
    34  H    0.157890
 Sum of Mulliken charges =  -0.00000

 Dipole moment (field-independent basis, Debye):
    X=             -4.4266    Y=             -2.6963    Z=              1.1854  Tot=              5.3170
 Quadrupole moment (field-independent basis, Debye-Ang):
   XX=            -71.0091   YY=            -91.6634   ZZ=            -97.3021
   XY=              5.6649   XZ=             -2.9112   YZ=              2.3180

 Normal termination of Gaussian 16 at Wed May  5 20:28:26 2021.
