 Gaussian 16, Revision A.03,
 Gaussian 16:  EM64L-G16RevA.03 25-Dec-2016

 -------------
 #p 6-31g* mp2
 -------------

 ------------------------------------------------------
 Input file generated by CHIRIPA (05-May-2021 14:57:21)
 ------------------------------------------------------
 Symbolic Z-matrix:
 Charge =  0 Multiplicity = 1

                         Standard orientation:
 ---------------------------------------------------------------------
 Center     Atomic      Atomic             Coordinates (Angstroms)
 Number     Number       Type             X           Y           Z
 ---------------------------------------------------------------------
      1          6           0       -1.681827    0.345484    2.270163
      2          6           0       -1.867706    1.396873    1.366531
      3          6           0       -2.657870    1.221977    0.226531
      4          6           0       -3.249898   -0.023130    0.020371
      5          6           0       -3.083675   -1.089991    0.902112
      6          6           0       -2.289334   -0.892410    2.035483
      7          1           0       -1.066385    0.490159    3.153168
      8          1           0       -1.397133    2.359326    1.546228
      9          1           0       -2.818513    2.018865   -0.489417
     10          1           0       -3.565675   -2.037949    0.696027
     11          1           0       -2.146732   -1.710721    2.735539
     12          7           0       -4.088621   -0.220293   -1.182987
     13          8           0       -4.599299   -1.326911   -1.341858
     14          8           0       -4.219451    0.735523   -1.944523
     15          6           0        2.661997    2.473096   -0.252064
     16          6           0        3.973805    1.997924   -0.351521
     17          6           0        4.234723    0.624546   -0.334111
     18          6           0        3.155139   -0.249359   -0.215473
     19          6           0        1.837092    0.193194   -0.114529
     20          6           0        1.599699    1.570804   -0.134094
     21          1           0        2.468447    3.541612   -0.266426
     22          1           0        4.800759    2.696337   -0.443241
     23          1           0        5.240524    0.229446   -0.409472
     24          1           0        1.033397   -0.527449   -0.024172
     25          1           0        0.579909    1.936973   -0.056683
     26          7           0        3.418908   -1.705534   -0.195902
     27          8           0        2.450357   -2.454820   -0.090476
     28          8           0        4.589208   -2.070024   -0.286357
 ---------------------------------------------------------------------

 SCF Done:  E(RHF) =  -868.337342738     A.U. after   16 cycles
 E2 =    -0.2601259761D+01 EUMP2 =    -0.87093860249819D+03

 The electronic state is 1-A.
 Alpha  occ. eigenvalues --  -20.61233 -20.61215 -20.61039 -20.61030 -15.86290
 Alpha  occ. eigenvalues --  -15.86091 -11.31840 -11.31474 -11.28523 -11.28376
 Alpha  occ. eigenvalues --  -11.28206 -11.28049 -11.28022 -11.27822 -11.27588
 Alpha  occ. eigenvalues --  -11.27384 -11.27070 -11.27031  -1.60299  -1.60113
 Alpha  occ. eigenvalues --   -1.39847  -1.39665  -1.20059  -1.19655  -1.09401
 Alpha  occ. eigenvalues --   -1.09056  -1.05500  -1.05046  -0.96193  -0.95882
 Alpha  occ. eigenvalues --   -0.86871  -0.86454  -0.83036  -0.82702  -0.78066
 Alpha  occ. eigenvalues --   -0.77734  -0.72501  -0.72309  -0.71627  -0.71438
 Alpha  occ. eigenvalues --   -0.71104  -0.70773  -0.65692  -0.65579  -0.65306
 Alpha  occ. eigenvalues --   -0.64997  -0.62845  -0.62365  -0.55929  -0.55596
 Alpha  occ. eigenvalues --   -0.53828  -0.53593  -0.53388  -0.53055  -0.49276
 Alpha  occ. eigenvalues --   -0.49245  -0.49068  -0.49061  -0.45212  -0.45066
 Alpha  occ. eigenvalues --   -0.38059  -0.37660  -0.37096  -0.36619
 Alpha virt. eigenvalues --    0.04440   0.04807   0.10406   0.11054   0.15774
 Alpha virt. eigenvalues --    0.16263   0.19986   0.21751   0.25648   0.27715
 Alpha virt. eigenvalues --    0.27794   0.28236   0.30103   0.31434   0.31944

 Mulliken charges:
               1
     1  C   -0.172205
     2  C   -0.227987
     3  C   -0.174147
     4  C    0.158935
     5  C   -0.168209
     6  C   -0.218576
     7  H    0.230256
     8  H    0.220353
     9  H    0.275877
    10  H    0.280678
    11  H    0.230424
    12  N    0.488273
    13  O   -0.456268
    14  O   -0.460224
    15  C   -0.171837
    16  C   -0.218413
    17  C   -0.170797
    18  C    0.158693
    19  C   -0.174779
    20  C   -0.222075
    21  H    0.224414
    22  H    0.224127
    23  H    0.276355
    24  H    0.277978
    25  H    0.221417
    26  N    0.488053
    27  O   -0.460734
    28  O   -0.459584
 Sum of Mulliken charges =  -0.00000

 Dipole moment (field-independent basis, Debye):
    X=              1.8220    Y=              5.5690    Z=              4.2418  Tot=              7.2337
 Quadrupole moment (field-independent basis, Debye-Ang):
   XX=           -124.8600   YY=           -103.5582   ZZ=           -105.3044
   XY=             16.6071   XZ=            -14.8211   YZ=             -2.9916

 Normal termination of Gaussian 16 at Thu May  6 03:17:31 2021.
