 Gaussian 16, Revision A.03,
 Gaussian 16:  EM64L-G16RevA.03 25-Dec-2016

 -------------
 #p 6-31g* mp2
 -------------

 ------------------------------------------------------
 Input file generated by CHIRIPA (05-May-2021 14:57:21)
 ------------------------------------------------------
 Symbolic Z-matrix:
 Charge =  0 Multiplicity = 1

                         Standard orientation:
 ---------------------------------------------------------------------
 Center     Atomic      Atomic             Coordinates (Angstroms)
 Number     Number       Type             X           Y           Z
 ---------------------------------------------------------------------
      1          6           0        3.201608    2.690032   -0.369049
      2          6           0        2.091369    2.018108   -0.890977
      3          6           0        1.985953    0.628422   -0.780486
      4          6           0        3.013806   -0.060984   -0.138982
      5          6           0        4.132472    0.579881    0.391272
      6          6           0        4.216826    1.970043    0.269284
      7          1           0        3.275317    3.769758   -0.459347
      8          1           0        1.301424    2.574677   -1.387225
      9          1           0        1.137479    0.083014   -1.175506
     10          1           0        4.903979   -0.002161    0.880580
     11          1           0        5.080209    2.489224    0.675567
     12          7           0        2.913355   -1.532435   -0.015924
     13          8           0        3.832361   -2.116816    0.553781
     14          8           0        1.917519   -2.073514   -0.491508
     15          6           0       -5.099058    1.247202   -0.053212
     16          6           0       -4.922080    0.142443   -0.892679
     17          6           0       -3.779779   -0.656216   -0.783852
     18          6           0       -2.830368   -0.319653    0.179804
     19          6           0       -2.977996    0.774572    1.030785
     20          6           0       -4.128163    1.559192    0.904153
     21          1           0       -5.989480    1.862167   -0.144667
     22          1           0       -5.674433   -0.102230   -1.637088
     23          1           0       -3.617444   -1.517196   -1.420858
     24          1           0       -2.210553    0.993409    1.763288
     25          1           0       -4.262952    2.416563    1.557444
     26          7           0       -1.616901   -1.157726    0.304439
     27          8           0       -0.795209   -0.840051    1.161494
     28          8           0       -1.510455   -2.116413   -0.457287
 ---------------------------------------------------------------------

 SCF Done:  E(RHF) =  -868.335502056     A.U. after   16 cycles
 E2 =    -0.2601766330D+01 EUMP2 =    -0.87093726838621D+03

 The electronic state is 1-A.
 Alpha  occ. eigenvalues --  -20.60587 -20.60526 -20.59412 -20.59249 -15.85610
 Alpha  occ. eigenvalues --  -15.84381 -11.31230 -11.30154 -11.27832 -11.27800
 Alpha  occ. eigenvalues --  -11.27592 -11.26885 -11.26858 -11.26828 -11.26781
 Alpha  occ. eigenvalues --  -11.26688 -11.25943 -11.25933  -1.59621  -1.58396
 Alpha  occ. eigenvalues --   -1.39171  -1.37934  -1.19421  -1.18391  -1.08764
 Alpha  occ. eigenvalues --   -1.07721  -1.04851  -1.03872  -0.95554  -0.94484
 Alpha  occ. eigenvalues --   -0.86235  -0.85250  -0.82380  -0.81323  -0.77393
 Alpha  occ. eigenvalues --   -0.76284  -0.71802  -0.71050  -0.70582  -0.70503
 Alpha  occ. eigenvalues --   -0.69703  -0.69523  -0.65058  -0.64841  -0.64047
 Alpha  occ. eigenvalues --   -0.63906  -0.62188  -0.61219  -0.55328  -0.54401
 Alpha  occ. eigenvalues --   -0.53182  -0.52936  -0.52164  -0.51990  -0.48604
 Alpha  occ. eigenvalues --   -0.48522  -0.47422  -0.47299  -0.44527  -0.43207
 Alpha  occ. eigenvalues --   -0.37421  -0.36473  -0.36402  -0.35477
 Alpha virt. eigenvalues --    0.05095   0.06297   0.11178   0.12169   0.16573
 Alpha virt. eigenvalues --    0.17675   0.21329   0.22110   0.27235   0.27888
 Alpha virt. eigenvalues --    0.28263   0.28988   0.30857   0.31591   0.32491

 Mulliken charges:
               1
     1  C   -0.172245
     2  C   -0.221053
     3  C   -0.162025
     4  C    0.161029
     5  C   -0.171437
     6  C   -0.219311
     7  H    0.220355
     8  H    0.216962
     9  H    0.276688
    10  H    0.273914
    11  H    0.219437
    12  N    0.488148
    13  O   -0.469424
    14  O   -0.443249
    15  C   -0.171658
    16  C   -0.218626
    17  C   -0.172018
    18  C    0.156241
    19  C   -0.173340
    20  C   -0.218894
    21  H    0.225289
    22  H    0.223840
    23  H    0.277465
    24  H    0.275292
    25  H    0.222631
    26  N    0.483988
    27  O   -0.460131
    28  O   -0.447871
 Sum of Mulliken charges =  -0.00000

 Dipole moment (field-independent basis, Debye):
    X=             -4.1698    Y=              7.7144    Z=             -0.8929  Tot=              8.8146
 Quadrupole moment (field-independent basis, Debye-Ang):
   XX=            -76.2053   YY=           -106.9871   ZZ=           -102.1223
   XY=              9.3500   XZ=              3.0959   YZ=              2.7010

 Normal termination of Gaussian 16 at Thu May  6 19:26:27 2021.
