 Gaussian 16, Revision A.03,
 Gaussian 16:  EM64L-G16RevA.03 25-Dec-2016

 -------------
 #p 6-31g* mp2
 -------------

 ------------------------------------------------------
 Input file generated by CHIRIPA (05-May-2021 14:55:19)
 ------------------------------------------------------
 Symbolic Z-matrix:
 Charge =  0 Multiplicity = 1

                         Standard orientation:
 ---------------------------------------------------------------------
 Center     Atomic      Atomic             Coordinates (Angstroms)
 Number     Number       Type             X           Y           Z
 ---------------------------------------------------------------------
      1          6           0       -3.515348    2.635123    0.103363
      2          6           0       -4.612528    1.932702   -0.405875
      3          6           0       -4.595115    0.536106   -0.467219
      4          6           0       -3.459086   -0.129038   -0.008621
      5          6           0       -2.350263    0.542446    0.504128
      6          6           0       -2.389702    1.938980    0.555942
      7          1           0       -3.537430    3.720008    0.147315
      8          1           0       -5.488062    2.470705   -0.758064
      9          1           0       -5.430682   -0.032705   -0.856705
     10          1           0       -1.491637   -0.021580    0.847720
     11          1           0       -1.536168    2.481867    0.951921
     12          7           0       -3.428992   -1.607519   -0.068518
     13          8           0       -2.416203   -2.170110    0.341829
     14          8           0       -4.418765   -2.175766   -0.524679
     15          6           0        3.850544   -0.367026    0.439429
     16          6           0        2.543845   -0.553851   -0.332336
     17          6           0        1.385949   -0.994657    0.563634
     18          1           0        4.110972   -1.309384    0.940510
     19          1           0        3.696244    0.376853    1.233299
     20          1           0        2.700940   -1.296140   -1.125396
     21          1           0        2.286599    0.389007   -0.831794
     22          1           0        1.200611   -0.252355    1.346728
     23          1           0        1.617306   -1.947076    1.051459
     24          1           0        0.461686   -1.122233   -0.008487
     25          6           0        5.017412    0.073563   -0.442632
     26          6           0        6.324111    0.260388    0.329132
     27          6           0        7.482007    0.701194   -0.566836
     28          1           0        5.171711   -0.670316   -1.236502
     29          1           0        4.756985    1.015922   -0.943713
     30          1           0        6.581357   -0.682470    0.828591
     31          1           0        6.167016    1.002677    1.122193
     32          1           0        7.250649    1.653613   -1.054662
     33          1           0        7.667345   -0.041108   -1.349931
     34          1           0        8.406270    0.828770    0.005284
 ---------------------------------------------------------------------

 SCF Done:  E(RHF) =  -669.535589113     A.U. after   15 cycles
 E2 =    -0.2091508939D+01 EUMP2 =    -0.67162709805199D+03

 The electronic state is 1-A.
 Alpha  occ. eigenvalues --  -20.60791 -20.60785 -15.85828 -11.31151 -11.27736
 Alpha  occ. eigenvalues --  -11.27659 -11.27480 -11.26747 -11.26728 -11.21659
 Alpha  occ. eigenvalues --  -11.21653 -11.21466 -11.21406 -11.21125 -11.21078
 Alpha  occ. eigenvalues --   -1.59858  -1.39413  -1.19331  -1.08738  -1.08490
 Alpha  occ. eigenvalues --   -1.04729  -1.03585  -0.96042  -0.95571  -0.87062
 Alpha  occ. eigenvalues --   -0.86126  -0.82407  -0.79655  -0.78303  -0.77453
 Alpha  occ. eigenvalues --   -0.72050  -0.71175  -0.70449  -0.65129  -0.64985
 Alpha  occ. eigenvalues --   -0.64746  -0.62125  -0.60976  -0.59369  -0.57634
 Alpha  occ. eigenvalues --   -0.55382  -0.55196  -0.53077  -0.53007  -0.52508
 Alpha  occ. eigenvalues --   -0.52428  -0.49978  -0.48807  -0.48804  -0.47956
 Alpha  occ. eigenvalues --   -0.46685  -0.45841  -0.45773  -0.44828  -0.43802
 Alpha  occ. eigenvalues --   -0.37321  -0.36328
 Alpha virt. eigenvalues --    0.05041   0.11279   0.16552   0.20997   0.22861
 Alpha virt. eigenvalues --    0.24174   0.26261   0.26800   0.27476   0.27864
 Alpha virt. eigenvalues --    0.29402   0.30375   0.31430   0.31721   0.31858

 Mulliken charges:
               1
     1  C   -0.170439
     2  C   -0.219023
     3  C   -0.170288
     4  C    0.156275
     5  C   -0.176712
     6  C   -0.221699
     7  H    0.225378
     8  H    0.223269
     9  H    0.275383
    10  H    0.288055
    11  H    0.223305
    12  N    0.488224
    13  O   -0.461850
    14  O   -0.459926
    15  C   -0.298317
    16  C   -0.299709
    17  C   -0.485431
    18  H    0.151778
    19  H    0.146869
    20  H    0.156010
    21  H    0.147746
    22  H    0.143284
    23  H    0.163782
    24  H    0.173943
    25  C   -0.298181
    26  C   -0.299598
    27  C   -0.475694
    28  H    0.150876
    29  H    0.148160
    30  H    0.152901
    31  H    0.150909
    32  H    0.154471
    33  H    0.155880
    34  H    0.160368
 Sum of Mulliken charges =  -0.00000

 Dipole moment (field-independent basis, Debye):
    X=             -0.0825    Y=              5.0884    Z=              0.1788  Tot=              5.0922
 Quadrupole moment (field-independent basis, Debye-Ang):
   XX=            -90.7406   YY=            -95.6759   ZZ=            -95.0612
   XY=            -18.9783   XZ=              1.7855   YZ=              0.2498

 Normal termination of Gaussian 16 at Thu May  6 14:02:54 2021.
