 Gaussian 16, Revision A.03,
 Gaussian 16:  EM64L-G16RevA.03 25-Dec-2016

 -------------
 #p 6-31g* mp2
 -------------

 ------------------------------------------------------
 Input file generated by CHIRIPA (05-May-2021 14:53:12)
 ------------------------------------------------------
 Symbolic Z-matrix:
 Charge =  0 Multiplicity = 1

                         Standard orientation:
 ---------------------------------------------------------------------
 Center     Atomic      Atomic             Coordinates (Angstroms)
 Number     Number       Type             X           Y           Z
 ---------------------------------------------------------------------
      1          6           0        3.730595   -0.262935   -0.599364
      2          6           0        4.168657   -1.251387    0.481862
      3          6           0        4.905726   -2.463374   -0.088763
      4          1           0        3.083814   -0.781080   -1.320574
      5          1           0        4.614654    0.074067   -1.158170
      6          1           0        3.284198   -1.585366    1.039362
      7          1           0        4.814316   -0.730782    1.200688
      8          1           0        5.804751   -2.148544   -0.628427
      9          1           0        4.265940   -3.007985   -0.790670
     10          1           0        5.209786   -3.156952    0.701400
     11          6           0        2.992420    0.954006   -0.044494
     12          6           0        2.554358    1.942459   -1.125720
     13          6           0        1.817289    3.154445   -0.555095
     14          1           0        2.108361    0.617005    0.514312
     15          1           0        3.639201    1.472151    0.676716
     16          1           0        1.908699    1.421853   -1.844546
     17          1           0        3.438817    2.276438   -1.683220
     18          1           0        2.457075    3.699056    0.146812
     19          1           0        0.918264    2.839616   -0.015431
     20          1           0        1.513229    3.848023   -1.345258
     21          6           0       -0.511184    0.080655    1.581847
     22          6           0       -0.628832   -1.024500    0.732545
     23          6           0       -1.796069   -1.228752   -0.009334
     24          6           0       -2.830647   -0.303845    0.122894
     25          6           0       -2.743634    0.806989    0.960609
     26          6           0       -1.567100    0.991267    1.692972
     27          1           0        0.399165    0.231564    2.154460
     28          1           0        0.189592   -1.733325    0.644254
     29          1           0       -1.913798   -2.075731   -0.674305
     30          1           0       -3.576492    1.496388    1.027657
     31          1           0       -1.478527    1.850445    2.351767
     32          7           0       -4.071271   -0.509504   -0.657462
     33          8           0       -4.968373    0.319855   -0.523268
     34          8           0       -4.123079   -1.496166   -1.388525
 ---------------------------------------------------------------------

 SCF Done:  E(RHF) =  -669.535159375     A.U. after   15 cycles
 E2 =    -0.2093224940D+01 EUMP2 =    -0.67162838431486D+03

 The electronic state is 1-A.
 Alpha  occ. eigenvalues --  -20.60823 -20.60818 -15.85879 -11.31274 -11.27853
 Alpha  occ. eigenvalues --  -11.27849 -11.27583 -11.26870 -11.26860 -11.22513
 Alpha  occ. eigenvalues --  -11.22200 -11.22160 -11.22114 -11.21794 -11.21591
 Alpha  occ. eigenvalues --   -1.59898  -1.39451  -1.19458  -1.09202  -1.08841
 Alpha  occ. eigenvalues --   -1.04861  -1.04228  -0.96670  -0.95677  -0.87687
 Alpha  occ. eigenvalues --   -0.86257  -0.82506  -0.80304  -0.79036  -0.77541
 Alpha  occ. eigenvalues --   -0.72096  -0.71222  -0.70586  -0.65875  -0.65103
 Alpha  occ. eigenvalues --   -0.64819  -0.62203  -0.61629  -0.60040  -0.58289
 Alpha  occ. eigenvalues --   -0.55990  -0.55353  -0.53344  -0.53199  -0.53085
 Alpha  occ. eigenvalues --   -0.52946  -0.50615  -0.48858  -0.48849  -0.48612
 Alpha  occ. eigenvalues --   -0.47348  -0.46548  -0.46475  -0.44850  -0.44494
 Alpha  occ. eigenvalues --   -0.37371  -0.36458
 Alpha virt. eigenvalues --    0.04954   0.11045   0.16358   0.19033   0.22785
 Alpha virt. eigenvalues --    0.23399   0.25298   0.26317   0.26891   0.27778
 Alpha virt. eigenvalues --    0.29971   0.30239   0.30870   0.31254   0.31493

 Mulliken charges:
               1
     1  C   -0.298932
     2  C   -0.299502
     3  C   -0.475915
     4  H    0.149961
     5  H    0.153635
     6  H    0.141269
     7  H    0.154359
     8  H    0.158621
     9  H    0.155395
    10  H    0.161851
    11  C   -0.303557
    12  C   -0.298666
    13  C   -0.478986
    14  H    0.144833
    15  H    0.149465
    16  H    0.155342
    17  H    0.154005
    18  H    0.153651
    19  H    0.154239
    20  H    0.163830
    21  C   -0.170225
    22  C   -0.219776
    23  C   -0.171064
    24  C    0.158726
    25  C   -0.170803
    26  C   -0.220636
    27  H    0.228204
    28  H    0.225764
    29  H    0.276066
    30  H    0.276244
    31  H    0.224795
    32  N    0.488069
    33  O   -0.460056
    34  O   -0.460209
 Sum of Mulliken charges =  -0.00000

 Dipole moment (field-independent basis, Debye):
    X=              4.4104    Y=              0.7391    Z=              2.6744  Tot=              5.2105
 Quadrupole moment (field-independent basis, Debye-Ang):
   XX=           -118.2880   YY=            -92.5388   ZZ=            -93.8987
   XY=             -4.4165   XZ=             -8.2493   YZ=              0.9592

 Normal termination of Gaussian 16 at Wed May  5 21:44:07 2021.
