 Gaussian 16, Revision A.03,
 Gaussian 16:  EM64L-G16RevA.03 25-Dec-2016

 -------------
 #p 6-31g* mp2
 -------------

 ------------------------------------------------------
 Input file generated by CHIRIPA (05-May-2021 14:57:22)
 ------------------------------------------------------
 Symbolic Z-matrix:
 Charge =  0 Multiplicity = 1

                         Standard orientation:
 ---------------------------------------------------------------------
 Center     Atomic      Atomic             Coordinates (Angstroms)
 Number     Number       Type             X           Y           Z
 ---------------------------------------------------------------------
      1          6           0       -4.737161    1.086887   -1.263218
      2          6           0       -4.167010   -0.071719   -1.800882
      3          6           0       -3.244442   -0.817969   -1.061608
      4          6           0       -2.913295   -0.374663    0.217888
      5          6           0       -3.464090    0.775385    0.781186
      6          6           0       -4.384503    1.506002    0.023831
      7          1           0       -5.452997    1.660520   -1.844527
      8          1           0       -4.439019   -0.399589   -2.800161
      9          1           0       -2.787820   -1.718716   -1.453488
     10          1           0       -3.173237    1.077145    1.780067
     11          1           0       -4.825693    2.405392    0.443942
     12          7           0       -1.937754   -1.156410    1.010095
     13          8           0       -1.662646   -0.744684    2.135011
     14          8           0       -1.466705   -2.166066    0.491111
     15          6           0        2.658983    2.699356    0.329556
     16          6           0        3.814010    2.289462   -0.344552
     17          6           0        4.054310    0.932678   -0.581071
     18          6           0        3.114206    0.008623   -0.127625
     19          6           0        1.953974    0.385688    0.546894
     20          6           0        1.734282    1.747839    0.772347
     21          1           0        2.480316    3.755423    0.508992
     22          1           0        4.533883    3.026207   -0.689565
     23          1           0        4.940156    0.587714   -1.100393
     24          1           0        1.254694   -0.372091    0.878849
     25          1           0        0.836398    2.063271    1.296134
     26          7           0        3.357693   -1.430584   -0.372159
     27          8           0        2.513989   -2.224960    0.037433
     28          8           0        4.387632   -1.737007   -0.968790
 ---------------------------------------------------------------------

 SCF Done:  E(RHF) =  -868.337888110     A.U. after   16 cycles
 E2 =    -0.2600076142D+01 EUMP2 =    -0.87093796425249D+03

 The electronic state is 1-A.
 Alpha  occ. eigenvalues --  -20.61267 -20.61164 -20.59950 -20.59879 -15.86236
 Alpha  occ. eigenvalues --  -15.84969 -11.31567 -11.30462 -11.28170 -11.28076
 Alpha  occ. eigenvalues --  -11.27852 -11.27150 -11.27124 -11.27087 -11.26928
 Alpha  occ. eigenvalues --  -11.26907 -11.26180 -11.26085  -1.60294  -1.59002
 Alpha  occ. eigenvalues --   -1.39836  -1.38542  -1.19734  -1.18672  -1.09135
 Alpha  occ. eigenvalues --   -1.08062  -1.05124  -1.04084  -0.95970  -0.94860
 Alpha  occ. eigenvalues --   -0.86523  -0.85482  -0.82795  -0.81676  -0.77858
 Alpha  occ. eigenvalues --   -0.76684  -0.72417  -0.71658  -0.71170  -0.70830
 Alpha  occ. eigenvalues --   -0.70337  -0.69775  -0.65378  -0.65118  -0.64320
 Alpha  occ. eigenvalues --   -0.64093  -0.62466  -0.61395  -0.55619  -0.54627
 Alpha  occ. eigenvalues --   -0.53463  -0.53208  -0.52435  -0.52169  -0.49218
 Alpha  occ. eigenvalues --   -0.49174  -0.47978  -0.47917  -0.45238  -0.43918
 Alpha  occ. eigenvalues --   -0.37713  -0.36727  -0.36704  -0.35703
 Alpha virt. eigenvalues --    0.04617   0.05826   0.10918   0.11941   0.16121
 Alpha virt. eigenvalues --    0.17270   0.21046   0.22045   0.26936   0.27532
 Alpha virt. eigenvalues --    0.28273   0.28920   0.30784   0.31418   0.32351

 Mulliken charges:
               1
     1  C   -0.170470
     2  C   -0.218486
     3  C   -0.170204
     4  C    0.157679
     5  C   -0.173886
     6  C   -0.218623
     7  H    0.226767
     8  H    0.225810
     9  H    0.280089
    10  H    0.273001
    11  H    0.223318
    12  N    0.484010
    13  O   -0.468217
    14  O   -0.447116
    15  C   -0.171554
    16  C   -0.219506
    17  C   -0.171570
    18  C    0.157030
    19  C   -0.178480
    20  C   -0.221010
    21  H    0.221530
    22  H    0.220201
    23  H    0.273557
    24  H    0.293277
    25  H    0.222847
    26  N    0.486137
    27  O   -0.449844
    28  O   -0.466286
 Sum of Mulliken charges =  -0.00000

 Dipole moment (field-independent basis, Debye):
    X=             -4.6001    Y=              7.5087    Z=             -1.9880  Tot=              9.0274
 Quadrupole moment (field-independent basis, Debye-Ang):
   XX=            -87.8643   YY=           -105.3926   ZZ=           -103.4113
   XY=              9.6016   XZ=              8.3223   YZ=              3.2161

 Normal termination of Gaussian 16 at Fri May  7 03:15:50 2021.
