 Gaussian 16, Revision A.03,
 Gaussian 16:  EM64L-G16RevA.03 25-Dec-2016

 -------------
 #p 6-31g* mp2
 -------------

 ------------------------------------------------------
 Input file generated by CHIRIPA (05-May-2021 14:55:25)
 ------------------------------------------------------
 Symbolic Z-matrix:
 Charge =  0 Multiplicity = 1

                         Standard orientation:
 ---------------------------------------------------------------------
 Center     Atomic      Atomic             Coordinates (Angstroms)
 Number     Number       Type             X           Y           Z
 ---------------------------------------------------------------------
      1          6           0       -3.252126   -2.279974   -0.306808
      2          6           0       -4.462751   -1.687354    0.066968
      3          6           0       -4.561631   -0.299480    0.203264
      4          6           0       -3.424947    0.469001   -0.043065
      5          6           0       -2.204695   -0.091802   -0.416929
      6          6           0       -2.128942   -1.481714   -0.547140
      7          1           0       -3.184296   -3.358899   -0.410322
      8          1           0       -5.336661   -2.304810    0.254250
      9          1           0       -5.486436    0.185459    0.491340
     10          1           0       -1.350717    0.549872   -0.596915
     11          1           0       -1.187452   -1.939209   -0.837555
     12          7           0       -3.517385    1.939360    0.098004
     13          8           0       -2.501462    2.594304   -0.124674
     14          8           0       -4.604011    2.409041    0.428581
     15          6           0        4.753680    0.250047   -0.289444
     16          6           0        6.064698    0.637408    0.395512
     17          6           0        6.832043    1.719138   -0.365302
     18          1           0        4.969064   -0.099224   -1.308544
     19          1           0        4.123562    1.144359   -0.392167
     20          1           0        6.691580   -0.257633    0.498158
     21          1           0        5.846187    0.985616    1.413166
     22          1           0        6.228621    2.628158   -0.455650
     23          1           0        7.078818    1.377845   -1.375857
     24          1           0        7.765910    1.980866    0.141897
     25          6           0        3.975184   -0.830317    0.459212
     26          6           0        2.664165   -1.217679   -0.225745
     27          6           0        1.896820   -2.299408    0.535068
     28          1           0        4.605301   -1.724630    0.561933
     29          1           0        3.759800   -0.481047    1.478311
     30          1           0        2.882677   -1.565887   -1.243398
     31          1           0        2.037283   -0.322637   -0.328391
     32          1           0        1.650046   -1.958115    1.545624
     33          1           0        2.500243   -3.208429    0.625418
     34          1           0        0.962954   -2.561137    0.027870
 ---------------------------------------------------------------------

 SCF Done:  E(RHF) =  -669.535457346     A.U. after   15 cycles
 E2 =    -0.2090922663D+01 EUMP2 =    -0.67162638000891D+03

 The electronic state is 1-A.
 Alpha  occ. eigenvalues --  -20.60753 -20.60748 -15.85806 -11.31164 -11.27734
 Alpha  occ. eigenvalues --  -11.27728 -11.27472 -11.26748 -11.26722 -11.22260
 Alpha  occ. eigenvalues --  -11.21911 -11.21807 -11.21779 -11.21632 -11.21173
 Alpha  occ. eigenvalues --   -1.59829  -1.39382  -1.19336  -1.08819  -1.08732
 Alpha  occ. eigenvalues --   -1.04739  -1.03957  -0.96408  -0.95569  -0.87428
 Alpha  occ. eigenvalues --   -0.86137  -0.82401  -0.80030  -0.78591  -0.77452
 Alpha  occ. eigenvalues --   -0.72025  -0.71151  -0.70445  -0.65439  -0.64988
 Alpha  occ. eigenvalues --   -0.64775  -0.62136  -0.61335  -0.59809  -0.58012
 Alpha  occ. eigenvalues --   -0.55669  -0.55241  -0.53278  -0.53054  -0.52925
 Alpha  occ. eigenvalues --   -0.52594  -0.50325  -0.48784  -0.48780  -0.48339
 Alpha  occ. eigenvalues --   -0.47048  -0.46141  -0.46035  -0.44790  -0.44201
 Alpha  occ. eigenvalues --   -0.37316  -0.36335
 Alpha virt. eigenvalues --    0.05083   0.11281   0.16543   0.19585   0.22743
 Alpha virt. eigenvalues --    0.23839   0.25846   0.26045   0.26845   0.28177
 Alpha virt. eigenvalues --    0.28856   0.29591   0.31131   0.31557   0.32204

 Mulliken charges:
               1
     1  C   -0.172025
     2  C   -0.218551
     3  C   -0.170998
     4  C    0.158701
     5  C   -0.173111
     6  C   -0.221915
     7  H    0.225766
     8  H    0.223332
     9  H    0.275495
    10  H    0.275855
    11  H    0.230427
    12  N    0.488102
    13  O   -0.460682
    14  O   -0.460515
    15  C   -0.299270
    16  C   -0.300125
    17  C   -0.476156
    18  H    0.149621
    19  H    0.152172
    20  H    0.151661
    21  H    0.153183
    22  H    0.156968
    23  H    0.155083
    24  H    0.161065
    25  C   -0.298674
    26  C   -0.300902
    27  C   -0.477960
    28  H    0.150349
    29  H    0.152117
    30  H    0.152453
    31  H    0.150408
    32  H    0.160494
    33  H    0.158810
    34  H    0.148824
 Sum of Mulliken charges =  -0.00000

 Dipole moment (field-independent basis, Debye):
    X=              0.4828    Y=             -5.1547    Z=             -0.4466  Tot=              5.1965
 Quadrupole moment (field-independent basis, Debye-Ang):
   XX=            -91.8840   YY=           -100.3566   ZZ=            -95.1170
   XY=             17.7751   XZ=              0.4086   YZ=              0.5349

 Normal termination of Gaussian 16 at Wed May  5 22:26:40 2021.
