 Gaussian 16, Revision A.03,
 Gaussian 16:  EM64L-G16RevA.03 25-Dec-2016

 -------------
 #p 6-31g* mp2
 -------------

 ------------------------------------------------------
 Input file generated by CHIRIPA (05-May-2021 14:51:08)
 ------------------------------------------------------
 Symbolic Z-matrix:
 Charge =  0 Multiplicity = 1

                         Standard orientation:
 ---------------------------------------------------------------------
 Center     Atomic      Atomic             Coordinates (Angstroms)
 Number     Number       Type             X           Y           Z
 ---------------------------------------------------------------------
      1          6           0        2.506895    0.510892    0.202961
      2          6           0        3.766750    1.376453    0.242381
      3          6           0        3.575545    2.662402    1.047100
      4          1           0        1.681751    1.094970   -0.227081
      5          1           0        2.210128    0.260567    1.230901
      6          1           0        4.061844    1.623921   -0.785381
      7          1           0        4.589039    0.790185    0.672202
      8          1           0        3.303753    2.432198    2.082347
      9          1           0        2.773562    3.270671    0.616481
     10          1           0        4.488386    3.266019    1.062201
     11          6           0        2.682323   -0.778170   -0.597833
     12          6           0        1.422468   -1.643731   -0.637254
     13          6           0        1.613673   -2.929680   -1.441972
     14          1           0        2.979090   -0.527845   -1.625773
     15          1           0        3.507468   -1.362248   -0.167791
     16          1           0        0.600179   -1.057463   -1.067074
     17          1           0        1.127375   -1.891199    0.390509
     18          1           0        2.415656   -3.537949   -1.011354
     19          1           0        1.885465   -2.699476   -2.477219
     20          1           0        0.700832   -3.533297   -1.457073
     21          6           0       -2.898430    0.582928   -0.340397
     22          6           0       -2.702453    2.074393   -0.066337
     23          6           0       -3.315728    2.960356   -1.151121
     24          1           0       -2.454015    0.333984   -1.313777
     25          1           0       -3.973313    0.370762   -0.424112
     26          1           0       -1.628316    2.283436    0.018210
     27          1           0       -3.147217    2.319777    0.906590
     28          1           0       -4.392704    2.780880   -1.231826
     29          1           0       -2.865173    2.744333   -2.125254
     30          1           0       -3.164042    4.022542   -0.935227
     31          6           0       -2.290789   -0.315650    0.735269
     32          6           0       -2.486766   -1.807115    0.461209
     33          6           0       -1.873491   -2.693078    1.545993
     34          1           0       -1.215906   -0.103485    0.818984
     35          1           0       -2.735204   -0.066706    1.708649
     36          1           0       -2.042001   -2.052498   -0.511718
     37          1           0       -3.560902   -2.016158    0.376662
     38          1           0       -2.324046   -2.477055    2.520126
     39          1           0       -0.796515   -2.513601    1.626698
     40          1           0       -2.025177   -3.755265    1.330099
 ---------------------------------------------------------------------

 SCF Done:  E(RHF) =  -470.732967535     A.U. after   11 cycles
 E2 =    -0.1584411964D+01 EUMP2 =    -0.47231737949914D+03

 The electronic state is 1-A.
 Alpha  occ. eigenvalues --  -11.21677 -11.21662 -11.21592 -11.21540 -11.21489
 Alpha  occ. eigenvalues --  -11.21427 -11.21365 -11.21273 -11.21136 -11.21111
 Alpha  occ. eigenvalues --  -11.21071 -11.21008  -1.08525  -1.08376  -1.03625
 Alpha  occ. eigenvalues --   -1.03472  -0.96050  -0.95940  -0.87060  -0.86964
 Alpha  occ. eigenvalues --   -0.79690  -0.79549  -0.78377  -0.78160  -0.65159
 Alpha  occ. eigenvalues --   -0.65020  -0.61057  -0.60911  -0.59370  -0.59310
 Alpha  occ. eigenvalues --   -0.57651  -0.57555  -0.55371  -0.55192  -0.52735
 Alpha  occ. eigenvalues --   -0.52643  -0.52469  -0.52376  -0.50074  -0.49827
 Alpha  occ. eigenvalues --   -0.48101  -0.47790  -0.46825  -0.46490  -0.46128
 Alpha  occ. eigenvalues --   -0.45784  -0.45660  -0.45345  -0.43852  -0.43745
 Alpha virt. eigenvalues --    0.19862   0.22412   0.23349   0.24657   0.25344
 Alpha virt. eigenvalues --    0.25698   0.26657   0.27621   0.28746   0.30211
 Alpha virt. eigenvalues --    0.30473   0.30937   0.31395   0.31884   0.32337

 Mulliken charges:
               1
     1  C   -0.299791
     2  C   -0.299698
     3  C   -0.475793
     4  H    0.149698
     5  H    0.149813
     6  H    0.152155
     7  H    0.152294
     8  H    0.155471
     9  H    0.155191
    10  H    0.160511
    11  C   -0.297821
    12  C   -0.306931
    13  C   -0.476909
    14  H    0.149686
    15  H    0.150019
    16  H    0.154142
    17  H    0.156985
    18  H    0.155574
    19  H    0.155359
    20  H    0.161586
    21  C   -0.298733
    22  C   -0.300002
    23  C   -0.475663
    24  H    0.148882
    25  H    0.149538
    26  H    0.151887
    27  H    0.152176
    28  H    0.155297
    29  H    0.154802
    30  H    0.160207
    31  C   -0.302362
    32  C   -0.300373
    33  C   -0.479986
    34  H    0.154666
    35  H    0.149200
    36  H    0.153477
    37  H    0.151601
    38  H    0.154807
    39  H    0.159403
    40  H    0.159637
 Sum of Mulliken charges =  -0.00000

 Dipole moment (field-independent basis, Debye):
    X=              0.0539    Y=             -0.0068    Z=              0.0017  Tot=              0.0544
 Quadrupole moment (field-independent basis, Debye-Ang):
   XX=            -84.0647   YY=            -86.0952   ZZ=            -84.6017
   XY=              0.0622   XZ=             -0.4585   YZ=             -0.3463

 Normal termination of Gaussian 16 at Thu May  6 14:51:57 2021.
