 Gaussian 16, Revision A.03,
 Gaussian 16:  EM64L-G16RevA.03 25-Dec-2016

 -------------
 #p 6-31g* mp2
 -------------

 ------------------------------------------------------
 Input file generated by CHIRIPA (05-May-2021 14:57:24)
 ------------------------------------------------------
 Symbolic Z-matrix:
 Charge =  0 Multiplicity = 1

                         Standard orientation:
 ---------------------------------------------------------------------
 Center     Atomic      Atomic             Coordinates (Angstroms)
 Number     Number       Type             X           Y           Z
 ---------------------------------------------------------------------
      1          6           0        3.509055   -1.940265    0.756652
      2          6           0        3.371684   -0.970689    1.755437
      3          6           0        2.901287    0.308349    1.443447
      4          6           0        2.576084    0.584790    0.116377
      5          6           0        2.702026   -0.359774   -0.901083
      6          6           0        3.174378   -1.632256   -0.566089
      7          1           0        3.875230   -2.931306    1.007949
      8          1           0        3.630836   -1.207077    2.783545
      9          1           0        2.785298    1.077887    2.196955
     10          1           0        2.435655   -0.094469   -1.916996
     11          1           0        3.280052   -2.383258   -1.343825
     12          7           0        2.077061    1.935380   -0.226090
     13          8           0        1.797341    2.153883   -1.402801
     14          8           0        1.975096    2.749895    0.688681
     15          6           0       -4.530411    0.856348    1.000373
     16          6           0       -3.720605    1.534165    0.083148
     17          6           0       -2.680435    0.869053   -0.572764
     18          6           0       -2.477344   -0.480001   -0.286240
     19          6           0       -3.267025   -1.182855    0.622434
     20          6           0       -4.301440   -0.497611    1.266619
     21          1           0       -5.336204    1.380843    1.505347
     22          1           0       -3.896110    2.585674   -0.125588
     23          1           0       -2.038380    1.369504   -1.287419
     24          1           0       -3.067671   -2.230983    0.809796
     25          1           0       -4.928759   -1.026557    1.978469
     26          7           0       -1.379208   -1.194781   -0.974418
     27          8           0       -1.220886   -2.383359   -0.704500
     28          8           0       -0.697606   -0.552915   -1.770699
 ---------------------------------------------------------------------

 SCF Done:  E(RHF) =  -868.339823920     A.U. after   16 cycles
 E2 =    -0.2599816783D+01 EUMP2 =    -0.87093964070273D+03

 The electronic state is 1-A.
 Alpha  occ. eigenvalues --  -20.60832 -20.60802 -20.60095 -20.60046 -15.85839
 Alpha  occ. eigenvalues --  -15.85110 -11.31002 -11.30205 -11.27606 -11.27466
 Alpha  occ. eigenvalues --  -11.27289 -11.26890 -11.26658 -11.26579 -11.26553
 Alpha  occ. eigenvalues --  -11.26475 -11.25848 -11.25655  -1.59887  -1.59153
 Alpha  occ. eigenvalues --   -1.39442  -1.38706  -1.19166  -1.18394  -1.08609
 Alpha  occ. eigenvalues --   -1.07851  -1.04530  -1.03751  -0.95473  -0.94718
 Alpha  occ. eigenvalues --   -0.85943  -0.85172  -0.82303  -0.81556  -0.77365
 Alpha  occ. eigenvalues --   -0.76614  -0.72088  -0.71346  -0.71210  -0.70448
 Alpha  occ. eigenvalues --   -0.70273  -0.69521  -0.64821  -0.64534  -0.64055
 Alpha  occ. eigenvalues --   -0.63772  -0.61866  -0.61096  -0.55062  -0.54318
 Alpha  occ. eigenvalues --   -0.52887  -0.52616  -0.52109  -0.51853  -0.48838
 Alpha  occ. eigenvalues --   -0.48824  -0.48108  -0.48078  -0.44917  -0.44139
 Alpha  occ. eigenvalues --   -0.37159  -0.36390  -0.36123  -0.35295
 Alpha virt. eigenvalues --    0.05100   0.05923   0.11527   0.12343   0.16670
 Alpha virt. eigenvalues --    0.17416   0.21682   0.22372   0.27628   0.28288
 Alpha virt. eigenvalues --    0.28570   0.29278   0.31225   0.31854   0.32842

 Mulliken charges:
               1
     1  C   -0.169451
     2  C   -0.220357
     3  C   -0.173376
     4  C    0.151168
     5  C   -0.154863
     6  C   -0.215789
     7  H    0.222994
     8  H    0.218529
     9  H    0.270489
    10  H    0.282876
    11  H    0.225459
    12  N    0.487770
    13  O   -0.458423
    14  O   -0.468488
    15  C   -0.170305
    16  C   -0.218293
    17  C   -0.171238
    18  C    0.156243
    19  C   -0.171499
    20  C   -0.219105
    21  H    0.225550
    22  H    0.226905
    23  H    0.284924
    24  H    0.272997
    25  H    0.221973
    26  N    0.488765
    27  O   -0.464502
    28  O   -0.460954
 Sum of Mulliken charges =  -0.00000

 Dipole moment (field-independent basis, Debye):
    X=             -2.2493    Y=             -2.2557    Z=              3.3181  Tot=              4.5997
 Quadrupole moment (field-independent basis, Debye-Ang):
   XX=            -78.0274   YY=           -110.0111   ZZ=           -100.8752
   XY=            -15.3834   XZ=             -2.5879   YZ=             -2.6588

 Normal termination of Gaussian 16 at Thu May  6 05:03:32 2021.
