 Gaussian 16, Revision A.03,
 Gaussian 16:  EM64L-G16RevA.03 25-Dec-2016

 -------------
 #p 6-31g* mp2
 -------------

 ------------------------------------------------------
 Input file generated by CHIRIPA (05-May-2021 14:57:24)
 ------------------------------------------------------
 Symbolic Z-matrix:
 Charge =  0 Multiplicity = 1

                         Standard orientation:
 ---------------------------------------------------------------------
 Center     Atomic      Atomic             Coordinates (Angstroms)
 Number     Number       Type             X           Y           Z
 ---------------------------------------------------------------------
      1          6           0       -3.612368    2.369556    0.831803
      2          6           0       -4.351885    2.002247   -0.297233
      3          6           0       -4.256289    0.708579   -0.818608
      4          6           0       -3.407641   -0.196473   -0.183023
      5          6           0       -2.657990    0.139295    0.943286
      6          6           0       -2.769267    1.438549    1.447374
      7          1           0       -3.692720    3.376678    1.230105
      8          1           0       -5.007447    2.723196   -0.777353
      9          1           0       -4.817457    0.397581   -1.691413
     10          1           0       -2.012919   -0.601343    1.400185
     11          1           0       -2.193761    1.721013    2.324329
     12          7           0       -3.298137   -1.568978   -0.725829
     13          8           0       -2.543363   -2.347789   -0.147550
     14          8           0       -3.969156   -1.839948   -1.719280
     15          6           0        5.198970    1.235900   -1.179060
     16          6           0        3.950752    1.822861   -0.946792
     17          6           0        2.960710    1.130889   -0.242847
     18          6           0        3.254254   -0.152090    0.216595
     19          6           0        4.488179   -0.763897    0.001160
     20          6           0        5.463234   -0.053333   -0.705178
     21          1           0        5.962238    1.780662   -1.726831
     22          1           0        3.742724    2.823957   -1.313640
     23          1           0        1.985816    1.561468   -0.048934
     24          1           0        4.666068   -1.763316    0.379227
     25          1           0        6.431719   -0.511673   -0.884083
     26          7           0        2.214073   -0.894490    0.963096
     27          8           0        2.497578   -2.023548    1.357419
     28          8           0        1.134971   -0.333269    1.139747
 ---------------------------------------------------------------------

 SCF Done:  E(RHF) =  -868.338622585     A.U. after   16 cycles
 E2 =    -0.2598998584D+01 EUMP2 =    -0.87093762116914D+03

 The electronic state is 1-A.
 Alpha  occ. eigenvalues --  -20.60979 -20.60936 -20.59912 -20.59859 -15.86008
 Alpha  occ. eigenvalues --  -15.84939 -11.31314 -11.30300 -11.27899 -11.27854
 Alpha  occ. eigenvalues --  -11.27612 -11.26993 -11.26896 -11.26863 -11.26752
 Alpha  occ. eigenvalues --  -11.26728 -11.26025 -11.25866  -1.60013  -1.58969
 Alpha  occ. eigenvalues --   -1.39575  -1.38516  -1.19479  -1.18514  -1.08884
 Alpha  occ. eigenvalues --   -1.07933  -1.04878  -1.03899  -0.95732  -0.94746
 Alpha  occ. eigenvalues --   -0.86279  -0.85311  -0.82574  -0.81564  -0.77623
 Alpha  occ. eigenvalues --   -0.76583  -0.72248  -0.71319  -0.71157  -0.70593
 Alpha  occ. eigenvalues --   -0.70297  -0.69632  -0.65141  -0.64885  -0.64166
 Alpha  occ. eigenvalues --   -0.63913  -0.62230  -0.61209  -0.55382  -0.54471
 Alpha  occ. eigenvalues --   -0.53205  -0.52974  -0.52268  -0.51985  -0.48995
 Alpha  occ. eigenvalues --   -0.48958  -0.47939  -0.47894  -0.44991  -0.43920
 Alpha  occ. eigenvalues --   -0.37454  -0.36562  -0.36477  -0.35501
 Alpha virt. eigenvalues --    0.04916   0.05924   0.11178   0.12134   0.16421
 Alpha virt. eigenvalues --    0.17372   0.21293   0.22231   0.27208   0.27989
 Alpha virt. eigenvalues --    0.28328   0.29184   0.30870   0.31737   0.32414

 Mulliken charges:
               1
     1  C   -0.172491
     2  C   -0.220332
     3  C   -0.172240
     4  C    0.154609
     5  C   -0.167438
     6  C   -0.222166
     7  H    0.221160
     8  H    0.219091
     9  H    0.272515
    10  H    0.293632
    11  H    0.224825
    12  N    0.487240
    13  O   -0.453538
    14  O   -0.466428
    15  C   -0.170486
    16  C   -0.218355
    17  C   -0.170590
    18  C    0.159097
    19  C   -0.170072
    20  C   -0.218434
    21  H    0.225974
    22  H    0.222766
    23  H    0.273112
    24  H    0.277002
    25  H    0.224354
    26  N    0.491392
    27  O   -0.454578
    28  O   -0.469621
 Sum of Mulliken charges =  -0.00000

 Dipole moment (field-independent basis, Debye):
    X=              3.6621    Y=              7.2205    Z=             -0.5870  Tot=              8.1173
 Quadrupole moment (field-independent basis, Debye-Ang):
   XX=            -75.9223   YY=           -105.3377   ZZ=           -105.2754
   XY=            -11.8753   XZ=            -11.8335   YZ=             -1.9649

 Normal termination of Gaussian 16 at Fri May  7 08:03:01 2021.
