 Gaussian 16, Revision A.03,
 Gaussian 16:  EM64L-G16RevA.03 25-Dec-2016

 -------------
 #p 6-31g* mp2
 -------------

 ------------------------------------------------------
 Input file generated by CHIRIPA (05-May-2021 14:55:23)
 ------------------------------------------------------
 Symbolic Z-matrix:
 Charge =  0 Multiplicity = 1

                         Standard orientation:
 ---------------------------------------------------------------------
 Center     Atomic      Atomic             Coordinates (Angstroms)
 Number     Number       Type             X           Y           Z
 ---------------------------------------------------------------------
      1          6           0       -1.423023    1.918414    1.444819
      2          6           0       -2.563292    1.931769    0.634801
      3          6           0       -2.976167    0.772788   -0.029161
      4          6           0       -2.221808   -0.387207    0.140082
      5          6           0       -1.081192   -0.432305    0.940238
      6          6           0       -0.686910    0.738500    1.594688
      7          1           0       -1.109514    2.823331    1.956907
      8          1           0       -3.136905    2.846665    0.516569
      9          1           0       -3.854921    0.755075   -0.662324
     10          1           0       -0.529804   -1.359505    1.038681
     11          1           0        0.199058    0.725188    2.223122
     12          7           0       -2.649059   -1.620427   -0.557791
     13          8           0       -1.967229   -2.629564   -0.392294
     14          8           0       -3.657677   -1.554538   -1.257064
     15          6           0        2.880059   -0.506549   -0.456527
     16          6           0        3.607132   -1.208079    0.691170
     17          6           0        3.852520   -2.691992    0.416248
     18          1           0        1.920962   -1.010930   -0.637294
     19          1           0        3.469802   -0.617240   -1.377041
     20          1           0        3.016872   -1.094912    1.609539
     21          1           0        4.564524   -0.701851    0.869352
     22          1           0        4.460927   -2.821404   -0.484692
     23          1           0        2.904482   -3.216699    0.259700
     24          1           0        4.373421   -3.173886    1.249496
     25          6           0        2.627505    0.977481   -0.196527
     26          6           0        1.900433    1.679011   -1.344224
     27          6           0        1.655044    3.162923   -1.069303
     28          1           0        2.037763    1.088171    0.723987
     29          1           0        3.586603    1.481862   -0.015760
     30          1           0        0.943041    1.172782   -1.522406
     31          1           0        2.490692    1.565844   -2.262593
     32          1           0        2.603082    3.687630   -0.912755
     33          1           0        1.046637    3.292336   -0.168362
     34          1           0        1.134144    3.644817   -1.902551
 ---------------------------------------------------------------------

 SCF Done:  E(RHF) =  -669.534834004     A.U. after   15 cycles
 E2 =    -0.2094602312D+01 EUMP2 =    -0.67162943631695D+03

 The electronic state is 1-A.
 Alpha  occ. eigenvalues --  -20.60869 -20.60864 -15.85923 -11.31328 -11.27889
 Alpha  occ. eigenvalues --  -11.27869 -11.27625 -11.26911 -11.26897 -11.22015
 Alpha  occ. eigenvalues --  -11.21889 -11.21787 -11.21690 -11.21497 -11.21255
 Alpha  occ. eigenvalues --   -1.59943  -1.39496  -1.19499  -1.08909  -1.08778
 Alpha  occ. eigenvalues --   -1.04903  -1.03864  -0.96319  -0.95711  -0.87334
 Alpha  occ. eigenvalues --   -0.86300  -0.82545  -0.79933  -0.78629  -0.77585
 Alpha  occ. eigenvalues --   -0.72139  -0.71268  -0.70597  -0.65553  -0.65142
 Alpha  occ. eigenvalues --   -0.64863  -0.62229  -0.61282  -0.59680  -0.57929
 Alpha  occ. eigenvalues --   -0.55690  -0.55323  -0.53201  -0.53037  -0.52990
 Alpha  occ. eigenvalues --   -0.52715  -0.50250  -0.48902  -0.48893  -0.48242
 Alpha  occ. eigenvalues --   -0.46974  -0.46153  -0.46072  -0.44892  -0.44127
 Alpha  occ. eigenvalues --   -0.37433  -0.36448
 Alpha virt. eigenvalues --    0.04896   0.11027   0.16271   0.19329   0.22940
 Alpha virt. eigenvalues --    0.23556   0.25103   0.26234   0.26977   0.28568
 Alpha virt. eigenvalues --    0.29653   0.30585   0.31161   0.31653   0.31992

 Mulliken charges:
               1
     1  C   -0.171147
     2  C   -0.218223
     3  C   -0.170901
     4  C    0.158458
     5  C   -0.172311
     6  C   -0.216158
     7  H    0.226733
     8  H    0.224451
     9  H    0.276175
    10  H    0.276368
    11  H    0.225437
    12  N    0.488170
    13  O   -0.460436
    14  O   -0.459722
    15  C   -0.302527
    16  C   -0.298810
    17  C   -0.476813
    18  H    0.152965
    19  H    0.153460
    20  H    0.142114
    21  H    0.153158
    22  H    0.157602
    23  H    0.159640
    24  H    0.160635
    25  C   -0.298016
    26  C   -0.299904
    27  C   -0.475554
    28  H    0.140537
    29  H    0.149711
    30  H    0.156839
    31  H    0.154061
    32  H    0.154810
    33  H    0.147849
    34  H    0.161348
 Sum of Mulliken charges =  -0.00000

 Dipole moment (field-independent basis, Debye):
    X=              1.4449    Y=              4.2703    Z=              2.3644  Tot=              5.0905
 Quadrupole moment (field-independent basis, Debye-Ang):
   XX=            -97.8007   YY=            -98.5448   ZZ=            -93.7156
   XY=            -12.4266   XZ=             -4.2035   YZ=             -1.5198

 Normal termination of Gaussian 16 at Thu May  6 10:59:13 2021.
