 Gaussian 16, Revision A.03,
 Gaussian 16:  EM64L-G16RevA.03 25-Dec-2016

 -------------
 #p 6-31g* mp2
 -------------

 ------------------------------------------------------
 Input file generated by CHIRIPA (05-May-2021 14:55:18)
 ------------------------------------------------------
 Symbolic Z-matrix:
 Charge =  0 Multiplicity = 1

                         Standard orientation:
 ---------------------------------------------------------------------
 Center     Atomic      Atomic             Coordinates (Angstroms)
 Number     Number       Type             X           Y           Z
 ---------------------------------------------------------------------
      1          6           0        2.586086   -2.307414    1.374971
      2          6           0        1.928863   -1.157351    1.824342
      3          6           0        1.926593    0.007167    1.050753
      4          6           0        2.594524   -0.013709   -0.172652
      5          6           0        3.258376   -1.143721   -0.647695
      6          6           0        3.247578   -2.296947    0.142559
      7          1           0        2.582774   -3.207653    1.982387
      8          1           0        1.414318   -1.162585    2.781036
      9          1           0        1.425772    0.911470    1.374533
     10          1           0        3.762654   -1.107995   -1.605737
     11          1           0        3.758823   -3.188637   -0.208956
     12          7           0        2.599038    1.213136   -1.000438
     13          8           0        3.194785    1.168987   -2.074576
     14          8           0        2.006743    2.195658   -0.559444
     15          6           0       -3.936436   -0.174711    0.050729
     16          6           0       -3.874854   -1.295694   -0.987342
     17          6           0       -5.115128   -2.189604   -0.966360
     18          1           0       -4.055834   -0.615191    1.050061
     19          1           0       -4.832210    0.435139   -0.131111
     20          1           0       -2.978724   -1.902420   -0.804447
     21          1           0       -3.755396   -0.852501   -1.984299
     22          1           0       -6.016440   -1.602788   -1.171020
     23          1           0       -5.235355   -2.658671    0.015536
     24          1           0       -5.050069   -2.984155   -1.716237
     25          6           0       -2.703642    0.727437    0.042003
     26          6           0       -2.765224    1.848420    1.080073
     27          6           0       -1.524950    2.742329    1.059092
     28          1           0       -1.807868    0.117587    0.223843
     29          1           0       -2.584243    1.167916   -0.957331
     30          1           0       -2.884682    1.405228    2.077030
     31          1           0       -3.661354    2.455145    0.897178
     32          1           0       -1.404723    3.211397    0.077195
     33          1           0       -0.623638    2.155514    1.263752
     34          1           0       -1.590009    3.536882    1.808968
 ---------------------------------------------------------------------

 SCF Done:  E(RHF) =  -669.535401946     A.U. after   15 cycles
 E2 =    -0.2091764749D+01 EUMP2 =    -0.67162716669522D+03

 The electronic state is 1-A.
 Alpha  occ. eigenvalues --  -20.60784 -20.60774 -15.85829 -11.31226 -11.27796
 Alpha  occ. eigenvalues --  -11.27790 -11.27541 -11.26826 -11.26813 -11.21598
 Alpha  occ. eigenvalues --  -11.21467 -11.21361 -11.21260 -11.21104 -11.20749
 Alpha  occ. eigenvalues --   -1.59853  -1.39406  -1.19400  -1.08789  -1.08361
 Alpha  occ. eigenvalues --   -1.04810  -1.03438  -0.95874  -0.95617  -0.86881
 Alpha  occ. eigenvalues --   -0.86205  -0.82450  -0.79497  -0.78172  -0.77488
 Alpha  occ. eigenvalues --   -0.72049  -0.71173  -0.70515  -0.65053  -0.65023
 Alpha  occ. eigenvalues --   -0.64803  -0.62191  -0.60829  -0.59248  -0.57475
 Alpha  occ. eigenvalues --   -0.55352  -0.55130  -0.53133  -0.52926  -0.52562
 Alpha  occ. eigenvalues --   -0.52249  -0.49810  -0.48811  -0.48808  -0.47786
 Alpha  occ. eigenvalues --   -0.46541  -0.45704  -0.45643  -0.44785  -0.43695
 Alpha  occ. eigenvalues --   -0.37378  -0.36406
 Alpha virt. eigenvalues --    0.05011   0.11185   0.16515   0.20662   0.22943
 Alpha virt. eigenvalues --    0.24054   0.25857   0.27017   0.27672   0.27704
 Alpha virt. eigenvalues --    0.29158   0.30434   0.31490   0.31863   0.32077

 Mulliken charges:
               1
     1  C   -0.170667
     2  C   -0.221528
     3  C   -0.175734
     4  C    0.156629
     5  C   -0.170266
     6  C   -0.218555
     7  H    0.225757
     8  H    0.223819
     9  H    0.286233
    10  H    0.275826
    11  H    0.223663
    12  N    0.487494
    13  O   -0.460354
    14  O   -0.460646
    15  C   -0.297921
    16  C   -0.299496
    17  C   -0.475547
    18  H    0.146810
    19  H    0.150358
    20  H    0.150140
    21  H    0.154019
    22  H    0.155905
    23  H    0.153623
    24  H    0.159928
    25  C   -0.297970
    26  C   -0.301126
    27  C   -0.475488
    28  H    0.145301
    29  H    0.154588
    30  H    0.146457
    31  H    0.152703
    32  H    0.167313
    33  H    0.150077
    34  H    0.158654
 Sum of Mulliken charges =  -0.00000

 Dipole moment (field-independent basis, Debye):
    X=              0.0302    Y=             -4.2323    Z=              2.8083  Tot=              5.0794
 Quadrupole moment (field-independent basis, Debye-Ang):
   XX=            -94.5904   YY=            -93.8803   ZZ=            -93.4103
   XY=            -13.9889   XZ=              5.9104   YZ=              1.8408

 Normal termination of Gaussian 16 at Thu May  6 04:28:03 2021.
