 Gaussian 16, Revision A.03,
 Gaussian 16:  EM64L-G16RevA.03 25-Dec-2016

 -------------
 #p 6-31g* mp2
 -------------

 ------------------------------------------------------
 Input file generated by CHIRIPA (05-May-2021 14:51:14)
 ------------------------------------------------------
 Symbolic Z-matrix:
 Charge =  0 Multiplicity = 1

                         Standard orientation:
 ---------------------------------------------------------------------
 Center     Atomic      Atomic             Coordinates (Angstroms)
 Number     Number       Type             X           Y           Z
 ---------------------------------------------------------------------
      1          6           0        3.038632   -0.603296    0.453192
      2          6           0        1.883414   -0.224425    1.380508
      3          6           0        0.950245   -1.399781    1.672957
      4          1           0        2.630950   -0.993036   -0.489593
      5          1           0        3.611471   -1.422981    0.908566
      6          1           0        1.313746    0.595234    0.924161
      7          1           0        2.293893    0.164638    2.321121
      8          1           0        1.499066   -2.217776    2.150743
      9          1           0        0.513350   -1.784733    0.745845
     10          1           0        0.131626   -1.106705    2.337660
     11          6           0        3.980226    0.561223    0.151491
     12          6           0        5.135444    0.182353   -0.775825
     13          6           0        6.068613    1.357708   -1.068274
     14          1           0        3.407387    1.380909   -0.303883
     15          1           0        4.387908    0.950964    1.094276
     16          1           0        4.724965   -0.206710   -1.716438
     17          1           0        5.705112   -0.637307   -0.319478
     18          1           0        6.505508    1.742661   -0.141163
     19          1           0        5.519792    2.175704   -1.546060
     20          1           0        6.887232    1.064633   -1.732978
     21          6           0       -3.347419    0.757963   -0.183496
     22          6           0       -4.589963    1.630256   -0.001356
     23          6           0       -4.249556    3.101928    0.235495
     24          1           0       -2.709268    0.849615    0.706058
     25          1           0       -2.760413    1.140330   -1.030026
     26          1           0       -5.175163    1.245523    0.843712
     27          1           0       -5.225323    1.536368   -0.891366
     28          1           0       -3.685505    3.507848   -0.610481
     29          1           0       -3.635059    3.215351    1.134455
     30          1           0       -5.152375    3.707322    0.363075
     31          6           0       -3.671439   -0.715891   -0.421186
     32          6           0       -2.428895   -1.588183   -0.603327
     33          6           0       -2.769302   -3.059855   -0.840177
     34          1           0       -4.258446   -1.098258    0.425344
     35          1           0       -4.309590   -0.807541   -1.310741
     36          1           0       -1.793534   -1.494296    0.286684
     37          1           0       -1.843695   -1.203450   -1.448393
     38          1           0       -3.383799   -3.173279   -1.739137
     39          1           0       -3.333354   -3.465776    0.005799
     40          1           0       -1.866483   -3.665250   -0.967757
 ---------------------------------------------------------------------

 SCF Done:  E(RHF) =  -470.733006137     A.U. after   11 cycles
 E2 =    -0.1582769902D+01 EUMP2 =    -0.47231577603844D+03

 The electronic state is 1-A.
 Alpha  occ. eigenvalues --  -11.21603 -11.21602 -11.21598 -11.21514 -11.21406
 Alpha  occ. eigenvalues --  -11.21390 -11.21346 -11.21326 -11.21072 -11.21072
 Alpha  occ. eigenvalues --  -11.21063 -11.21045  -1.08437  -1.08405  -1.03555
 Alpha  occ. eigenvalues --   -1.03490  -0.96001  -0.95951  -0.87028  -0.86960
 Alpha  occ. eigenvalues --   -0.79678  -0.79505  -0.78265  -0.78204  -0.65110
 Alpha  occ. eigenvalues --   -0.65002  -0.61055  -0.60809  -0.59369  -0.59320
 Alpha  occ. eigenvalues --   -0.57643  -0.57537  -0.55333  -0.55195  -0.52708
 Alpha  occ. eigenvalues --   -0.52643  -0.52410  -0.52385  -0.50049  -0.49826
 Alpha  occ. eigenvalues --   -0.47977  -0.47824  -0.46778  -0.46451  -0.45844
 Alpha  occ. eigenvalues --   -0.45731  -0.45719  -0.45554  -0.43788  -0.43755
 Alpha virt. eigenvalues --    0.21728   0.23120   0.23656   0.24614   0.26346
 Alpha virt. eigenvalues --    0.26432   0.26979   0.27298   0.27974   0.29203
 Alpha virt. eigenvalues --    0.30686   0.31300   0.31663   0.31884   0.32204

 Mulliken charges:
               1
     1  C   -0.298643
     2  C   -0.299826
     3  C   -0.480420
     4  H    0.149984
     5  H    0.149479
     6  H    0.152669
     7  H    0.151837
     8  H    0.155195
     9  H    0.161398
    10  H    0.158997
    11  C   -0.298353
    12  C   -0.299661
    13  C   -0.475707
    14  H    0.149650
    15  H    0.149645
    16  H    0.151919
    17  H    0.151917
    18  H    0.155188
    19  H    0.155196
    20  H    0.160246
    21  C   -0.298366
    22  C   -0.299603
    23  C   -0.475702
    24  H    0.149540
    25  H    0.149089
    26  H    0.151958
    27  H    0.151983
    28  H    0.155041
    29  H    0.155164
    30  H    0.160270
    31  C   -0.297734
    32  C   -0.307538
    33  C   -0.475807
    34  H    0.149367
    35  H    0.149319
    36  H    0.161880
    37  H    0.150181
    38  H    0.155017
    39  H    0.155300
    40  H    0.159934
 Sum of Mulliken charges =  -0.00000

 Dipole moment (field-independent basis, Debye):
    X=              0.0181    Y=             -0.0057    Z=              0.0135  Tot=              0.0232
 Quadrupole moment (field-independent basis, Debye-Ang):
   XX=            -85.1468   YY=            -86.4956   ZZ=            -83.2627
   XY=             -0.8252   XZ=              0.6588   YZ=             -0.3802

 Normal termination of Gaussian 16 at Wed May  5 16:54:09 2021.
