 Gaussian 16, Revision A.03,
 Gaussian 16:  EM64L-G16RevA.03 25-Dec-2016

 -------------
 #p 6-31g* mp2
 -------------

 ------------------------------------------------------
 Input file generated by CHIRIPA (05-May-2021 14:55:23)
 ------------------------------------------------------
 Symbolic Z-matrix:
 Charge =  0 Multiplicity = 1

                         Standard orientation:
 ---------------------------------------------------------------------
 Center     Atomic      Atomic             Coordinates (Angstroms)
 Number     Number       Type             X           Y           Z
 ---------------------------------------------------------------------
      1          6           0       -3.759624   -2.497626    0.258017
      2          6           0       -2.380995   -2.282654    0.159578
      3          6           0       -1.874950   -0.992489   -0.024646
      4          6           0       -2.780211    0.064439   -0.106488
      5          6           0       -4.159073   -0.117536   -0.012071
      6          6           0       -4.642706   -1.416287    0.172030
      7          1           0       -4.144028   -3.503192    0.401079
      8          1           0       -1.692831   -3.120546    0.226003
      9          1           0       -0.812338   -0.797647   -0.104083
     10          1           0       -4.820292    0.737633   -0.082019
     11          1           0       -5.713858   -1.580258    0.248140
     12          7           0       -2.256347    1.434824   -0.301453
     13          8           0       -3.074801    2.349162   -0.370405
     14          8           0       -1.037207    1.568645   -0.381622
     15          6           0        3.856556   -0.503783    0.304123
     16          6           0        4.935486   -1.131024   -0.579316
     17          6           0        5.299595   -2.552228   -0.148742
     18          1           0        4.204292   -0.494983    1.346211
     19          1           0        2.958683   -1.136725    0.279559
     20          1           0        5.830578   -0.496363   -0.554189
     21          1           0        4.585219   -1.138158   -1.619450
     22          1           0        4.421370   -3.204546   -0.191211
     23          1           0        5.673804   -2.559105    0.880104
     24          1           0        6.072579   -2.981523   -0.793769
     25          6           0        3.481812    0.917011   -0.113773
     26          6           0        2.402882    1.544252    0.769666
     27          6           0        2.038773    2.965457    0.339091
     28          1           0        4.379685    1.549954   -0.089209
     29          1           0        3.134076    0.908210   -1.155862
     30          1           0        2.753149    1.551386    1.809800
     31          1           0        1.507790    0.909591    0.744539
     32          1           0        1.664564    2.972333   -0.689754
     33          1           0        2.916998    3.617775    0.381561
     34          1           0        1.265788    3.394751    0.984119
 ---------------------------------------------------------------------

 SCF Done:  E(RHF) =  -669.535730082     A.U. after   15 cycles
 E2 =    -0.2091957408D+01 EUMP2 =    -0.67162768748976D+03

 The electronic state is 1-A.
 Alpha  occ. eigenvalues --  -20.60949 -20.60941 -15.85981 -11.31305 -11.27874
 Alpha  occ. eigenvalues --  -11.27863 -11.27602 -11.26875 -11.26865 -11.21392
 Alpha  occ. eigenvalues --  -11.21082 -11.21001 -11.20707 -11.20538 -11.19585
 Alpha  occ. eigenvalues --   -1.60011  -1.39569  -1.19473  -1.08876  -1.07891
 Alpha  occ. eigenvalues --   -1.04870  -1.02847  -0.95729  -0.95286  -0.86322
 Alpha  occ. eigenvalues --   -0.86264  -0.82555  -0.78997  -0.77700  -0.77549
 Alpha  occ. eigenvalues --   -0.72223  -0.71325  -0.70583  -0.65141  -0.64875
 Alpha  occ. eigenvalues --   -0.64515  -0.62221  -0.60210  -0.58759  -0.56883
 Alpha  occ. eigenvalues --   -0.55373  -0.54577  -0.53200  -0.52964  -0.51959
 Alpha  occ. eigenvalues --   -0.51730  -0.49361  -0.48967  -0.48862  -0.47277
 Alpha  occ. eigenvalues --   -0.46052  -0.45199  -0.45135  -0.44840  -0.43121
 Alpha  occ. eigenvalues --   -0.37450  -0.36470
 Alpha virt. eigenvalues --    0.04903   0.11178   0.16395   0.20476   0.22973
 Alpha virt. eigenvalues --    0.24539   0.25831   0.27473   0.27725   0.28656
 Alpha virt. eigenvalues --    0.29155   0.30673   0.31565   0.32171   0.33087

 Mulliken charges:
               1
     1  C   -0.170413
     2  C   -0.219249
     3  C   -0.171623
     4  C    0.157068
     5  C   -0.170452
     6  C   -0.218650
     7  H    0.226099
     8  H    0.224165
     9  H    0.277830
    10  H    0.275873
    11  H    0.223875
    12  N    0.493514
    13  O   -0.458920
    14  O   -0.465047
    15  C   -0.295395
    16  C   -0.299192
    17  C   -0.474807
    18  H    0.148917
    19  H    0.140202
    20  H    0.152912
    21  H    0.151458
    22  H    0.151199
    23  H    0.154996
    24  H    0.159726
    25  C   -0.298613
    26  C   -0.302960
    27  C   -0.468282
    28  H    0.148011
    29  H    0.150479
    30  H    0.144778
    31  H    0.158424
    32  H    0.165198
    33  H    0.143884
    34  H    0.164994
 Sum of Mulliken charges =  -0.00000

 Dipole moment (field-independent basis, Debye):
    X=             -2.1279    Y=             -4.7161    Z=              0.6244  Tot=              5.2115
 Quadrupole moment (field-independent basis, Debye-Ang):
   XX=            -80.4168   YY=            -96.2053   ZZ=            -95.5828
   XY=             12.2879   XZ=             -1.5930   YZ=              0.8259

 Normal termination of Gaussian 16 at Thu May  6 06:17:27 2021.
