 Gaussian 16, Revision A.03,
 Gaussian 16:  EM64L-G16RevA.03 25-Dec-2016

 -------------
 #p 6-31g* mp2
 -------------

 ------------------------------------------------------
 Input file generated by CHIRIPA (05-May-2021 14:53:14)
 ------------------------------------------------------
 Symbolic Z-matrix:
 Charge =  0 Multiplicity = 1

                         Standard orientation:
 ---------------------------------------------------------------------
 Center     Atomic      Atomic             Coordinates (Angstroms)
 Number     Number       Type             X           Y           Z
 ---------------------------------------------------------------------
      1          6           0       -3.002228    1.106666    0.229558
      2          6           0       -2.098726    1.476275    1.406443
      3          6           0       -1.969075    2.987357    1.600387
      4          1           0       -2.604269    1.562649   -0.687313
      5          1           0       -3.997739    1.543530    0.389254
      6          1           0       -1.105615    1.037684    1.245244
      7          1           0       -2.498776    1.019200    2.320587
      8          1           0       -2.949631    3.437437    1.786231
      9          1           0       -1.548555    3.456025    0.704779
     10          1           0       -1.318863    3.229139    2.446925
     11          6           0       -3.141740   -0.400504    0.022907
     12          6           0       -4.045241   -0.770112   -1.153978
     13          6           0       -4.174893   -2.281195   -1.347922
     14          1           0       -2.146229   -0.837367   -0.136789
     15          1           0       -3.539699   -0.856487    0.939778
     16          1           0       -3.645192   -0.313038   -2.068122
     17          1           0       -5.038352   -0.331522   -0.992779
     18          1           0       -4.595412   -2.749863   -0.452314
     19          1           0       -3.194336   -2.731274   -1.533766
     20          1           0       -4.825104   -2.522977   -2.194460
     21          6           0        1.836481   -2.193843    1.440753
     22          6           0        0.813739   -1.487002    0.799741
     23          6           0        1.114286   -0.422536   -0.055322
     24          6           0        2.454465   -0.090420   -0.247440
     25          6           0        3.495814   -0.775426    0.376778
     26          6           0        3.171900   -1.836429    1.227601
     27          1           0        1.593934   -3.019401    2.103340
     28          1           0       -0.224258   -1.762356    0.963405
     29          1           0        0.342249    0.141650   -0.564311
     30          1           0        4.521120   -0.477566    0.193895
     31          1           0        3.968243   -2.383593    1.724085
     32          7           0        2.785009    1.034649   -1.150413
     33          8           0        3.973663    1.307511   -1.303008
     34          8           0        1.849177    1.622314   -1.688470
 ---------------------------------------------------------------------

 SCF Done:  E(RHF) =  -669.534737703     A.U. after   15 cycles
 E2 =    -0.2093596238D+01 EUMP2 =    -0.67162833394091D+03

 The electronic state is 1-A.
 Alpha  occ. eigenvalues --  -20.60790 -20.60785 -15.85843 -11.31200 -11.27767
 Alpha  occ. eigenvalues --  -11.27744 -11.27489 -11.26782 -11.26727 -11.22200
 Alpha  occ. eigenvalues --  -11.22108 -11.21983 -11.21828 -11.21583 -11.21173
 Alpha  occ. eigenvalues --   -1.59865  -1.39419  -1.19372  -1.08991  -1.08761
 Alpha  occ. eigenvalues --   -1.04779  -1.03954  -0.96411  -0.95603  -0.87419
 Alpha  occ. eigenvalues --   -0.86166  -0.82452  -0.80044  -0.78863  -0.77462
 Alpha  occ. eigenvalues --   -0.72063  -0.71187  -0.70493  -0.65694  -0.64996
 Alpha  occ. eigenvalues --   -0.64780  -0.62119  -0.61325  -0.59780  -0.58026
 Alpha  occ. eigenvalues --   -0.55711  -0.55259  -0.53141  -0.53038  -0.52942
 Alpha  occ. eigenvalues --   -0.52738  -0.50334  -0.48820  -0.48818  -0.48344
 Alpha  occ. eigenvalues --   -0.47089  -0.46315  -0.46248  -0.44825  -0.44251
 Alpha  occ. eigenvalues --   -0.37345  -0.36333
 Alpha virt. eigenvalues --    0.04995   0.11258   0.16418   0.19485   0.22782
 Alpha virt. eigenvalues --    0.23804   0.25060   0.26209   0.27408   0.28204
 Alpha virt. eigenvalues --    0.30297   0.30999   0.31394   0.31602   0.31742

 Mulliken charges:
               1
     1  C   -0.301650
     2  C   -0.305677
     3  C   -0.476717
     4  H    0.156072
     5  H    0.153357
     6  H    0.150010
     7  H    0.150284
     8  H    0.155335
     9  H    0.163206
    10  H    0.161548
    11  C   -0.304337
    12  C   -0.299679
    13  C   -0.476504
    14  H    0.140264
    15  H    0.149877
    16  H    0.156489
    17  H    0.155317
    18  H    0.154436
    19  H    0.153109
    20  H    0.163879
    21  C   -0.171048
    22  C   -0.222326
    23  C   -0.173918
    24  C    0.157656
    25  C   -0.171078
    26  C   -0.218392
    27  H    0.226056
    28  H    0.230379
    29  H    0.277768
    30  H    0.275633
    31  H    0.223564
    32  N    0.488422
    33  O   -0.460197
    34  O   -0.461138
 Sum of Mulliken charges =  -0.00000

 Dipole moment (field-independent basis, Debye):
    X=             -1.2666    Y=             -3.8626    Z=              3.1336  Tot=              5.1326
 Quadrupole moment (field-independent basis, Debye-Ang):
   XX=            -94.4674   YY=            -95.3988   ZZ=            -96.5618
   XY=            -10.9725   XZ=              8.9208   YZ=              0.1751

 Normal termination of Gaussian 16 at Thu May  6 20:21:42 2021.
