 Gaussian 16, Revision A.03,
 Gaussian 16:  EM64L-G16RevA.03 25-Dec-2016

 -------------
 #p 6-31g* mp2
 -------------

 ------------------------------------------------------
 Input file generated by CHIRIPA (05-May-2021 14:55:25)
 ------------------------------------------------------
 Symbolic Z-matrix:
 Charge =  0 Multiplicity = 1

                         Standard orientation:
 ---------------------------------------------------------------------
 Center     Atomic      Atomic             Coordinates (Angstroms)
 Number     Number       Type             X           Y           Z
 ---------------------------------------------------------------------
      1          6           0        0.719055   -1.398529   -0.417017
      2          6           0        0.771677   -0.018685   -0.640134
      3          6           0        1.965022    0.685577   -0.454420
      4          6           0        3.091731   -0.024861   -0.043210
      5          6           0        3.071118   -1.399545    0.187244
      6          6           0        1.866920   -2.083348   -0.004766
      7          1           0       -0.212180   -1.937671   -0.563729
      8          1           0       -0.118204    0.515756   -0.960337
      9          1           0        2.033833    1.753885   -0.619954
     10          1           0        3.974701   -1.904882    0.505975
     11          1           0        1.828996   -3.154945    0.169264
     12          7           0        4.360817    0.709880    0.156730
     13          8           0        5.339513    0.060833    0.519398
     14          8           0        4.352800    1.920905   -0.053010
     15          6           0       -3.316299    0.852369    0.064942
     16          6           0       -4.237627    2.069480    0.153134
     17          6           0       -3.475919    3.393555    0.086649
     18          1           0       -2.582307    0.896161    0.881204
     19          1           0       -2.744770    0.901000   -0.872279
     20          1           0       -4.808257    2.017852    1.089260
     21          1           0       -4.969631    2.022686   -0.663319
     22          1           0       -2.919651    3.471215   -0.853104
     23          1           0       -2.757359    3.466353    0.909434
     24          1           0       -4.153802    4.250374    0.151432
     25          6           0       -4.063081   -0.478724    0.130033
     26          6           0       -3.141753   -1.695835    0.041841
     27          6           0       -3.903462   -3.019910    0.108326
     28          1           0       -4.634611   -0.527355    1.067254
     29          1           0       -4.797073   -0.522516   -0.686229
     30          1           0       -2.409748   -1.649040    0.858295
     31          1           0       -2.571123   -1.644206   -0.894285
     32          1           0       -4.622020   -3.092707   -0.714458
     33          1           0       -4.459729   -3.097569    1.048080
     34          1           0       -3.225577   -3.876728    0.043544
 ---------------------------------------------------------------------

 SCF Done:  E(RHF) =  -669.535263614     A.U. after   15 cycles
 E2 =    -0.2092412917D+01 EUMP2 =    -0.67162767653161D+03

 The electronic state is 1-A.
 Alpha  occ. eigenvalues --  -20.60671 -20.60666 -15.85723 -11.31056 -11.27628
 Alpha  occ. eigenvalues --  -11.27616 -11.27264 -11.26620 -11.26575 -11.22943
 Alpha  occ. eigenvalues --  -11.22515 -11.22447 -11.22406 -11.22166 -11.21776
 Alpha  occ. eigenvalues --   -1.59747  -1.39302  -1.19220  -1.09515  -1.08610
 Alpha  occ. eigenvalues --   -1.04620  -1.04553  -0.96964  -0.95457  -0.87981
 Alpha  occ. eigenvalues --   -0.86016  -0.82306  -0.80662  -0.79367  -0.77346
 Alpha  occ. eigenvalues --   -0.71941  -0.71071  -0.70316  -0.66133  -0.64865
 Alpha  occ. eigenvalues --   -0.64619  -0.61977  -0.61932  -0.60378  -0.58612
 Alpha  occ. eigenvalues --   -0.56227  -0.55115  -0.53644  -0.53392  -0.52953
 Alpha  occ. eigenvalues --   -0.52692  -0.50897  -0.48930  -0.48699  -0.48672
 Alpha  occ. eigenvalues --   -0.47682  -0.46840  -0.46768  -0.44809  -0.44715
 Alpha  occ. eigenvalues --   -0.37179  -0.36231
 Alpha virt. eigenvalues --    0.05169   0.11387   0.16625   0.19732   0.22396
 Alpha virt. eigenvalues --    0.22835   0.24801   0.25975   0.26272   0.28089
 Alpha virt. eigenvalues --    0.29306   0.30377   0.30650   0.31076   0.32065

 Mulliken charges:
               1
     1  C   -0.177321
     2  C   -0.225574
     3  C   -0.172246
     4  C    0.158298
     5  C   -0.171022
     6  C   -0.220492
     7  H    0.236238
     8  H    0.229323
     9  H    0.275386
    10  H    0.274910
    11  H    0.222888
    12  N    0.488034
    13  O   -0.460926
    14  O   -0.460817
    15  C   -0.304089
    16  C   -0.299898
    17  C   -0.477079
    18  H    0.153029
    19  H    0.143679
    20  H    0.155352
    21  H    0.154142
    22  H    0.153393
    23  H    0.157100
    24  H    0.164485
    25  C   -0.297112
    26  C   -0.309197
    27  C   -0.475805
    28  H    0.154661
    29  H    0.153218
    30  H    0.154592
    31  H    0.144621
    32  H    0.159248
    33  H    0.160335
    34  H    0.158645
 Sum of Mulliken charges =  -0.00000

 Dipole moment (field-independent basis, Debye):
    X=             -4.8293    Y=             -2.5479    Z=             -0.6116  Tot=              5.4944
 Quadrupole moment (field-independent basis, Debye-Ang):
   XX=           -120.9520   YY=            -91.8597   ZZ=            -94.1298
   XY=            -10.6152   XZ=             -1.4851   YZ=             -1.1317

 Normal termination of Gaussian 16 at Thu May  6 11:06:02 2021.
