 Gaussian 16, Revision A.03,
 Gaussian 16:  EM64L-G16RevA.03 25-Dec-2016

 -------------
 #p 6-31g* mp2
 -------------

 ------------------------------------------------------
 Input file generated by CHIRIPA (05-May-2021 14:57:26)
 ------------------------------------------------------
 Symbolic Z-matrix:
 Charge =  0 Multiplicity = 1

                         Standard orientation:
 ---------------------------------------------------------------------
 Center     Atomic      Atomic             Coordinates (Angstroms)
 Number     Number       Type             X           Y           Z
 ---------------------------------------------------------------------
      1          6           0        5.687057    0.959976    0.363660
      2          6           0        4.488458    1.658311    0.184192
      3          6           0        3.302060    0.972804   -0.093459
      4          6           0        3.350789   -0.417347   -0.185085
      5          6           0        4.529235   -1.141485   -0.011362
      6          6           0        5.703591   -0.435233    0.265484
      7          1           0        6.604002    1.500552    0.579033
      8          1           0        4.472634    2.741855    0.259864
      9          1           0        2.360249    1.488398   -0.236885
     10          1           0        4.513574   -2.221548   -0.092829
     11          1           0        6.632983   -0.980193    0.404391
     12          7           0        2.101177   -1.154043   -0.478596
     13          8           0        2.170647   -2.378825   -0.554225
     14          8           0        1.075923   -0.492734   -0.627462
     15          6           0       -2.034887    2.307852    0.091326
     16          6           0       -3.239630    2.325269   -0.619174
     17          6           0       -4.090621    1.216197   -0.601192
     18          6           0       -3.703868    0.101426    0.141099
     19          6           0       -2.510069    0.053584    0.859322
     20          6           0       -1.674586    1.174063    0.827010
     21          1           0       -1.379840    3.173835    0.071792
     22          1           0       -3.522013    3.204410   -1.191376
     23          1           0       -5.029042    1.202781   -1.142119
     24          1           0       -2.255646   -0.837258    1.420647
     25          1           0       -0.739569    1.157717    1.379750
     26          7           0       -4.596565   -1.078737    0.167721
     27          8           0       -4.232980   -2.048635    0.829341
     28          8           0       -5.642941   -1.011503   -0.473538
 ---------------------------------------------------------------------

 SCF Done:  E(RHF) =  -868.337635662     A.U. after   16 cycles
 E2 =    -0.2599753269D+01 EUMP2 =    -0.87093738893131D+03

 The electronic state is 1-A.
 Alpha  occ. eigenvalues --  -20.61395 -20.61348 -20.59937 -20.59918 -15.86412
 Alpha  occ. eigenvalues --  -15.84979 -11.31782 -11.30266 -11.28405 -11.28298
 Alpha  occ. eigenvalues --  -11.28052 -11.27377 -11.27308 -11.26869 -11.26758
 Alpha  occ. eigenvalues --  -11.26652 -11.25939 -11.25824  -1.60444  -1.59004
 Alpha  occ. eigenvalues --   -1.40000  -1.38560  -1.19946  -1.18437  -1.09334
 Alpha  occ. eigenvalues --   -1.07877  -1.05350  -1.03824  -0.96172  -0.94722
 Alpha  occ. eigenvalues --   -0.86745  -0.85257  -0.83006  -0.81548  -0.78066
 Alpha  occ. eigenvalues --   -0.76586  -0.72626  -0.71771  -0.71209  -0.71046
 Alpha  occ. eigenvalues --   -0.70317  -0.69623  -0.65597  -0.65347  -0.64114
 Alpha  occ. eigenvalues --   -0.63868  -0.62705  -0.61187  -0.55829  -0.54434
 Alpha  occ. eigenvalues --   -0.53674  -0.53441  -0.52145  -0.51955  -0.49396
 Alpha  occ. eigenvalues --   -0.49373  -0.47966  -0.47954  -0.45403  -0.43982
 Alpha  occ. eigenvalues --   -0.37912  -0.36954  -0.36448  -0.35354
 Alpha virt. eigenvalues --    0.04447   0.05952   0.10694   0.12240   0.15946
 Alpha virt. eigenvalues --    0.17459   0.20558   0.22077   0.26323   0.27268
 Alpha virt. eigenvalues --    0.28498   0.28998   0.30614   0.31462   0.32201

 Mulliken charges:
               1
     1  C   -0.170509
     2  C   -0.217827
     3  C   -0.172484
     4  C    0.158728
     5  C   -0.170406
     6  C   -0.218079
     7  H    0.227391
     8  H    0.222980
     9  H    0.269103
    10  H    0.277890
    11  H    0.225835
    12  N    0.489104
    13  O   -0.454838
    14  O   -0.465923
    15  C   -0.172269
    16  C   -0.218269
    17  C   -0.172052
    18  C    0.157813
    19  C   -0.163664
    20  C   -0.202405
    21  H    0.216580
    22  H    0.218867
    23  H    0.272651
    24  H    0.277075
    25  H    0.219750
    26  N    0.488295
    27  O   -0.459516
    28  O   -0.463821
 Sum of Mulliken charges =  -0.00000

 Dipole moment (field-independent basis, Debye):
    X=              7.8978    Y=              6.5032    Z=              0.9637  Tot=             10.2760
 Quadrupole moment (field-independent basis, Debye-Ang):
   XX=            -96.0620   YY=           -102.2521   ZZ=           -104.9386
   XY=            -12.2771   XZ=              5.7614   YZ=             -2.1160

 Normal termination of Gaussian 16 at Thu May  6 18:08:55 2021.
