 Gaussian 16, Revision A.03,
 Gaussian 16:  EM64L-G16RevA.03 25-Dec-2016

 -------------
 #p 6-31g* mp2
 -------------

 ------------------------------------------------------
 Input file generated by CHIRIPA (05-May-2021 14:51:14)
 ------------------------------------------------------
 Symbolic Z-matrix:
 Charge =  0 Multiplicity = 1

                         Standard orientation:
 ---------------------------------------------------------------------
 Center     Atomic      Atomic             Coordinates (Angstroms)
 Number     Number       Type             X           Y           Z
 ---------------------------------------------------------------------
      1          6           0       -3.563937   -0.581194   -0.320598
      2          6           0       -2.875173   -1.591023    0.598007
      3          6           0       -2.581895   -2.919997   -0.098850
      4          1           0       -4.501200   -1.015287   -0.694825
      5          1           0       -2.929083   -0.403098   -1.199595
      6          1           0       -3.510502   -1.766114    1.475684
      7          1           0       -1.939535   -1.154401    0.970243
      8          1           0       -1.928878   -2.765510   -0.963895
      9          1           0       -3.508770   -3.380699   -0.455582
     10          1           0       -2.089450   -3.627067    0.575990
     11          6           0       -3.863672    0.752347    0.361718
     12          6           0       -4.552436    1.762176   -0.556887
     13          6           0       -4.845714    3.091150    0.139970
     14          1           0       -4.498526    0.574252    1.240716
     15          1           0       -2.926409    1.186441    0.735945
     16          1           0       -5.488074    1.325554   -0.929122
     17          1           0       -3.917107    1.937267   -1.434563
     18          1           0       -3.918839    3.551852    0.496702
     19          1           0       -5.498732    2.936664    1.005015
     20          1           0       -5.338159    3.798220   -0.534870
     21          6           0        4.008476    0.613955    0.064627
     22          6           0        5.529202    0.654229   -0.089501
     23          6           0        6.103890    2.060486    0.083619
     24          1           0        3.553631    1.290688   -0.671643
     25          1           0        3.736962    1.002549    1.055924
     26          1           0        5.797853    0.264384   -1.079684
     27          1           0        5.980470   -0.022824    0.647095
     28          1           0        5.864721    2.454849    1.076532
     29          1           0        5.681067    2.743688   -0.660057
     30          1           0        7.192374    2.066216   -0.030541
     31          6           0        3.419134   -0.785108   -0.105747
     32          6           0        1.898407   -0.825383    0.048379
     33          6           0        1.323718   -2.231639   -0.124740
     34          1           0        3.690647   -1.173702   -1.097044
     35          1           0        3.873978   -1.461841    0.630523
     36          1           0        1.447139   -0.148330   -0.688215
     37          1           0        1.629756   -0.435537    1.038564
     38          1           0        1.746543   -2.914842    0.618937
     39          1           0        1.562888   -2.626002   -1.117653
     40          1           0        0.235236   -2.237369   -0.010580
 ---------------------------------------------------------------------

 SCF Done:  E(RHF) =  -470.732860805     A.U. after   11 cycles
 E2 =    -0.1582951530D+01 EUMP2 =    -0.47231581233524D+03

 The electronic state is 1-A.
 Alpha  occ. eigenvalues --  -11.21628 -11.21607 -11.21606 -11.21606 -11.21415
 Alpha  occ. eigenvalues --  -11.21407 -11.21355 -11.21348 -11.21076 -11.21073
 Alpha  occ. eigenvalues --  -11.21067 -11.20980  -1.08453  -1.08423  -1.03584
 Alpha  occ. eigenvalues --   -1.03492  -0.96059  -0.95910  -0.87075  -0.86924
 Alpha  occ. eigenvalues --   -0.79634  -0.79562  -0.78259  -0.78241  -0.65099
 Alpha  occ. eigenvalues --   -0.65061  -0.61087  -0.60922  -0.59455  -0.59201
 Alpha  occ. eigenvalues --   -0.57659  -0.57521  -0.55316  -0.55242  -0.52766
 Alpha  occ. eigenvalues --   -0.52537  -0.52415  -0.52359  -0.49955  -0.49875
 Alpha  occ. eigenvalues --   -0.47949  -0.47863  -0.46654  -0.46619  -0.45796
 Alpha  occ. eigenvalues --   -0.45784  -0.45724  -0.45711  -0.43812  -0.43732
 Alpha virt. eigenvalues --    0.21182   0.23099   0.23601   0.25230   0.26496
 Alpha virt. eigenvalues --    0.26603   0.27151   0.27424   0.27850   0.28896
 Alpha virt. eigenvalues --    0.31047   0.31353   0.31545   0.31701   0.32101

 Mulliken charges:
               1
     1  C   -0.297908
     2  C   -0.303825
     3  C   -0.480472
     4  H    0.149823
     5  H    0.149501
     6  H    0.152547
     7  H    0.154117
     8  H    0.156792
     9  H    0.156916
    10  H    0.161420
    11  C   -0.298465
    12  C   -0.299656
    13  C   -0.475734
    14  H    0.149519
    15  H    0.149998
    16  H    0.151935
    17  H    0.151913
    18  H    0.155268
    19  H    0.155180
    20  H    0.160255
    21  C   -0.298218
    22  C   -0.299634
    23  C   -0.475701
    24  H    0.149436
    25  H    0.149438
    26  H    0.151939
    27  H    0.151986
    28  H    0.155173
    29  H    0.155127
    30  H    0.160282
    31  C   -0.298309
    32  C   -0.299132
    33  C   -0.486925
    34  H    0.149564
    35  H    0.149763
    36  H    0.150943
    37  H    0.151374
    38  H    0.154733
    39  H    0.154432
    40  H    0.174607
 Sum of Mulliken charges =  -0.00000

 Dipole moment (field-independent basis, Debye):
    X=             -0.0304    Y=             -0.0155    Z=              0.0026  Tot=              0.0342
 Quadrupole moment (field-independent basis, Debye-Ang):
   XX=            -84.3637   YY=            -86.5457   ZZ=            -83.8232
   XY=              0.0967   XZ=             -0.1141   YZ=             -0.7469

 Normal termination of Gaussian 16 at Thu May  6 00:51:05 2021.
