 Gaussian 16, Revision A.03,
 Gaussian 16:  EM64L-G16RevA.03 25-Dec-2016

 -------------
 #p 6-31g* mp2
 -------------

 ------------------------------------------------------
 Input file generated by CHIRIPA (05-May-2021 14:55:25)
 ------------------------------------------------------
 Symbolic Z-matrix:
 Charge =  0 Multiplicity = 1

                         Standard orientation:
 ---------------------------------------------------------------------
 Center     Atomic      Atomic             Coordinates (Angstroms)
 Number     Number       Type             X           Y           Z
 ---------------------------------------------------------------------
      1          6           0        2.259229    2.029369   -1.327674
      2          6           0        3.538299    1.487938   -1.162283
      3          6           0        3.715015    0.278384   -0.483830
      4          6           0        2.585528   -0.365915    0.018593
      5          6           0        1.298258    0.148041   -0.129980
      6          6           0        1.145255    1.358874   -0.811904
      7          1           0        2.131162    2.969476   -1.856061
      8          1           0        4.405240    2.006458   -1.561778
      9          1           0        4.693844   -0.163261   -0.341486
     10          1           0        0.453156   -0.391974    0.279417
     11          1           0        0.150719    1.776999   -0.938850
     12          7           0        2.760058   -1.647093    0.738678
     13          8           0        1.748847   -2.195194    1.171891
     14          8           0        3.904760   -2.078920    0.856232
     15          6           0       -2.949451    0.888002    0.073362
     16          6           0       -2.741386    1.569230    1.426367
     17          6           0       -2.093876    2.948595    1.300360
     18          1           0       -1.980466    0.794634   -0.435851
     19          1           0       -3.575121    1.531238   -0.560815
     20          1           0       -2.117440    0.924269    2.058295
     21          1           0       -3.710951    1.660813    1.932500
     22          1           0       -2.716519    3.612304    0.691751
     23          1           0       -1.113954    2.871576    0.818260
     24          1           0       -1.954396    3.417565    2.279376
     25          6           0       -3.595865   -0.491813    0.182858
     26          6           0       -3.803929   -1.173041   -1.170147
     27          6           0       -4.451439   -2.552406   -1.044140
     28          1           0       -2.970195   -1.135049    0.817034
     29          1           0       -4.564848   -0.398445    0.692071
     30          1           0       -2.834364   -1.264624   -1.676281
     31          1           0       -4.427876   -0.528080   -1.802075
     32          1           0       -5.431361   -2.475387   -0.562041
     33          1           0       -3.828796   -3.216115   -0.435531
     34          1           0       -4.590918   -3.021376   -2.023156
 ---------------------------------------------------------------------

 SCF Done:  E(RHF) =  -669.534968545     A.U. after   15 cycles
 E2 =    -0.2092752196D+01 EUMP2 =    -0.67162772074096D+03

 The electronic state is 1-A.
 Alpha  occ. eigenvalues --  -20.60788 -20.60783 -15.85841 -11.31202 -11.27776
 Alpha  occ. eigenvalues --  -11.27771 -11.27505 -11.26780 -11.26731 -11.22258
 Alpha  occ. eigenvalues --  -11.22183 -11.21937 -11.21818 -11.21814 -11.21208
 Alpha  occ. eigenvalues --   -1.59863  -1.39417  -1.19374  -1.09014  -1.08765
 Alpha  occ. eigenvalues --   -1.04783  -1.04024  -0.96492  -0.95604  -0.87502
 Alpha  occ. eigenvalues --   -0.86178  -0.82451  -0.80108  -0.78825  -0.77483
 Alpha  occ. eigenvalues --   -0.72060  -0.71185  -0.70485  -0.65733  -0.65013
 Alpha  occ. eigenvalues --   -0.64783  -0.62199  -0.61322  -0.59856  -0.58096
 Alpha  occ. eigenvalues --   -0.55814  -0.55273  -0.53148  -0.53122  -0.52945
 Alpha  occ. eigenvalues --   -0.52834  -0.50435  -0.48827  -0.48815  -0.48389
 Alpha  occ. eigenvalues --   -0.47124  -0.46333  -0.46235  -0.44824  -0.44300
 Alpha  occ. eigenvalues --   -0.37347  -0.36370
 Alpha virt. eigenvalues --    0.05036   0.11201   0.16441   0.18835   0.22581
 Alpha virt. eigenvalues --    0.23874   0.25301   0.26013   0.27089   0.28491
 Alpha virt. eigenvalues --    0.29980   0.30591   0.31358   0.31593   0.32030

 Mulliken charges:
               1
     1  C   -0.171373
     2  C   -0.218650
     3  C   -0.170449
     4  C    0.158870
     5  C   -0.174668
     6  C   -0.224323
     7  H    0.226302
     8  H    0.223566
     9  H    0.275694
    10  H    0.276511
    11  H    0.231681
    12  N    0.488309
    13  O   -0.460960
    14  O   -0.460288
    15  C   -0.304238
    16  C   -0.301998
    17  C   -0.479568
    18  H    0.140221
    19  H    0.151916
    20  H    0.156117
    21  H    0.156858
    22  H    0.155763
    23  H    0.148940
    24  H    0.165734
    25  C   -0.300422
    26  C   -0.299823
    27  C   -0.476756
    28  H    0.154995
    29  H    0.152844
    30  H    0.150901
    31  H    0.151350
    32  H    0.155536
    33  H    0.159997
    34  H    0.161413
 Sum of Mulliken charges =  -0.00000

 Dipole moment (field-independent basis, Debye):
    X=             -0.7583    Y=              4.4492    Z=             -2.4625  Tot=              5.1415
 Quadrupole moment (field-independent basis, Debye-Ang):
   XX=            -91.5895   YY=            -99.3967   ZZ=            -95.3843
   XY=             11.6617   XZ=             -7.7539   YZ=              0.9042

 Normal termination of Gaussian 16 at Thu May  6 01:37:45 2021.
