 Gaussian 16, Revision A.03,
 Gaussian 16:  EM64L-G16RevA.03 25-Dec-2016

 -------------
 #p 6-31g* mp2
 -------------

 ------------------------------------------------------
 Input file generated by CHIRIPA (05-May-2021 14:53:17)
 ------------------------------------------------------
 Symbolic Z-matrix:
 Charge =  0 Multiplicity = 1

                         Standard orientation:
 ---------------------------------------------------------------------
 Center     Atomic      Atomic             Coordinates (Angstroms)
 Number     Number       Type             X           Y           Z
 ---------------------------------------------------------------------
      1          6           0        4.384114   -0.272945   -0.189301
      2          6           0        5.278764    0.870663    0.290018
      3          6           0        6.552047    1.014584   -0.544147
      4          1           0        4.952650   -1.212492   -0.158271
      5          1           0        4.116985   -0.103860   -1.241654
      6          1           0        5.542995    0.700186    1.341558
      7          1           0        4.707972    1.807567    0.258025
      8          1           0        6.305552    1.209041   -1.592969
      9          1           0        7.145319    0.095367   -0.503280
     10          1           0        7.176877    1.837925   -0.184209
     11          6           0        3.107308   -0.429456    0.634712
     12          6           0        2.212658   -1.573064    0.155392
     13          6           0        0.939375   -1.716985    0.989557
     14          1           0        3.374437   -0.598541    1.687065
     15          1           0        2.538772    0.510091    0.603682
     16          1           0        2.783450   -2.509968    0.187385
     17          1           0        1.948427   -1.402587   -0.896147
     18          1           0        0.346103   -0.797769    0.948691
     19          1           0        1.185870   -1.911442    2.038379
     20          1           0        0.314544   -2.540326    0.629619
     21          6           0       -3.120329   -2.223336   -0.473538
     22          6           0       -4.078844   -1.531453    0.274170
     23          6           0       -3.981387   -0.147519    0.446731
     24          6           0       -2.907583    0.515845   -0.145029
     25          6           0       -1.936652   -0.145339   -0.895643
     26          6           0       -2.054172   -1.529294   -1.055033
     27          1           0       -3.203828   -3.298417   -0.602472
     28          1           0       -4.907905   -2.067853    0.726914
     29          1           0       -4.709375    0.412958    1.020595
     30          1           0       -1.121475    0.416783   -1.334872
     31          1           0       -1.308302   -2.064015   -1.636236
     32          7           0       -2.793790    1.980965    0.030682
     33          8           0       -1.838249    2.542247   -0.500865
     34          8           0       -3.662293    2.540302    0.696625
 ---------------------------------------------------------------------

 SCF Done:  E(RHF) =  -669.534587526     A.U. after   15 cycles
 E2 =    -0.2092615842D+01 EUMP2 =    -0.67162720336873D+03

 The electronic state is 1-A.
 Alpha  occ. eigenvalues --  -20.60799 -20.60792 -15.85851 -11.31214 -11.27752
 Alpha  occ. eigenvalues --  -11.27747 -11.27491 -11.26783 -11.26765 -11.21985
 Alpha  occ. eigenvalues --  -11.21605 -11.21544 -11.21467 -11.21342 -11.21065
 Alpha  occ. eigenvalues --   -1.59874  -1.39428  -1.19376  -1.08773  -1.08589
 Alpha  occ. eigenvalues --   -1.04785  -1.03700  -0.96140  -0.95609  -0.87159
 Alpha  occ. eigenvalues --   -0.86176  -0.82440  -0.79773  -0.78384  -0.77492
 Alpha  occ. eigenvalues --   -0.72069  -0.71198  -0.70482  -0.65233  -0.65021
 Alpha  occ. eigenvalues --   -0.64791  -0.62151  -0.61096  -0.59532  -0.57753
 Alpha  occ. eigenvalues --   -0.55479  -0.55268  -0.53276  -0.52918  -0.52634
 Alpha  occ. eigenvalues --   -0.52525  -0.50045  -0.48827  -0.48824  -0.48085
 Alpha  occ. eigenvalues --   -0.46811  -0.45927  -0.45841  -0.44833  -0.43955
 Alpha  occ. eigenvalues --   -0.37343  -0.36282
 Alpha virt. eigenvalues --    0.05028   0.11157   0.16501   0.20311   0.22903
 Alpha virt. eigenvalues --    0.24063   0.26169   0.26830   0.27493   0.28232
 Alpha virt. eigenvalues --    0.28798   0.30168   0.31208   0.31439   0.32093

 Mulliken charges:
               1
     1  C   -0.298197
     2  C   -0.300411
     3  C   -0.475853
     4  H    0.148754
     5  H    0.148724
     6  H    0.152181
     7  H    0.155193
     8  H    0.155325
     9  H    0.154334
    10  H    0.161316
    11  C   -0.299575
    12  C   -0.300415
    13  C   -0.476459
    14  H    0.151025
    15  H    0.154678
    16  H    0.152117
    17  H    0.143622
    18  H    0.160392
    19  H    0.156791
    20  H    0.152715
    21  C   -0.172487
    22  C   -0.217738
    23  C   -0.171336
    24  C    0.158503
    25  C   -0.172678
    26  C   -0.211600
    27  H    0.225513
    28  H    0.223532
    29  H    0.275550
    30  H    0.275118
    31  H    0.224316
    32  N    0.488182
    33  O   -0.461112
    34  O   -0.460020
 Sum of Mulliken charges =  -0.00000

 Dipole moment (field-independent basis, Debye):
    X=             -0.3998    Y=             -5.1079    Z=             -0.5681  Tot=              5.1549
 Quadrupole moment (field-independent basis, Debye-Ang):
   XX=            -89.6378   YY=           -100.5337   ZZ=            -93.5435
   XY=             14.7372   XZ=              0.1190   YZ=              0.1566

 Normal termination of Gaussian 16 at Thu May  6 17:17:29 2021.
