 Gaussian 16, Revision A.03,
 Gaussian 16:  EM64L-G16RevA.03 25-Dec-2016

 -------------
 #p 6-31g* mp2
 -------------

 ------------------------------------------------------
 Input file generated by CHIRIPA (05-May-2021 14:55:24)
 ------------------------------------------------------
 Symbolic Z-matrix:
 Charge =  0 Multiplicity = 1

                         Standard orientation:
 ---------------------------------------------------------------------
 Center     Atomic      Atomic             Coordinates (Angstroms)
 Number     Number       Type             X           Y           Z
 ---------------------------------------------------------------------
      1          6           0        1.254607   -1.376193    1.693687
      2          6           0        2.428599   -2.035737    1.315186
      3          6           0        3.333748   -1.428080    0.439968
      4          6           0        3.031921   -0.154486   -0.039770
      5          6           0        1.870663    0.528344    0.318715
      6          6           0        0.979870   -0.098509    1.195123
      7          1           0        0.557041   -1.855691    2.374040
      8          1           0        2.644563   -3.028059    1.700806
      9          1           0        4.250043   -1.915992    0.130511
     10          1           0        1.682765    1.516949   -0.082251
     11          1           0        0.068911    0.416080    1.487350
     12          7           0        3.982563    0.498975   -0.966954
     13          8           0        3.693533    1.621512   -1.375622
     14          8           0        4.998705   -0.123753   -1.267457
     15          6           0       -3.704310    1.094902   -0.065255
     16          6           0       -2.464927    1.672452    0.619104
     17          6           0       -2.527760    3.192595    0.770800
     18          1           0       -3.819009    1.559094   -1.054353
     19          1           0       -4.596348    1.369911    0.514429
     20          1           0       -1.575362    1.395264    0.039053
     21          1           0       -2.353056    1.206691    1.606609
     22          1           0       -3.397672    3.484521    1.367987
     23          1           0       -2.615561    3.674166   -0.208477
     24          1           0       -1.631831    3.584369    1.262415
     25          6           0       -3.656315   -0.423710   -0.224129
     26          6           0       -4.895699   -1.001261   -0.908488
     27          6           0       -4.832865   -2.521403   -1.060184
     28          1           0       -2.764277   -0.698720   -0.803813
     29          1           0       -3.541615   -0.887903    0.764969
     30          1           0       -5.007569   -0.535500   -1.895993
     31          1           0       -5.785263   -0.724073   -0.328437
     32          1           0       -4.745064   -3.002975   -0.080908
     33          1           0       -3.962952   -2.813330   -1.657371
     34          1           0       -5.728793   -2.913178   -1.551800
 ---------------------------------------------------------------------

 SCF Done:  E(RHF) =  -669.535237491     A.U. after   15 cycles
 E2 =    -0.2091842679D+01 EUMP2 =    -0.67162708016986D+03

 The electronic state is 1-A.
 Alpha  occ. eigenvalues --  -20.60718 -20.60713 -15.85769 -11.31118 -11.27681
 Alpha  occ. eigenvalues --  -11.27662 -11.27397 -11.26700 -11.26582 -11.22654
 Alpha  occ. eigenvalues --  -11.22156 -11.22136 -11.22051 -11.21862 -11.21550
 Alpha  occ. eigenvalues --   -1.59794  -1.39348  -1.19279  -1.09182  -1.08675
 Alpha  occ. eigenvalues --   -1.04682  -1.04257  -0.96665  -0.95518  -0.87685
 Alpha  occ. eigenvalues --   -0.86076  -0.82362  -0.80385  -0.79009  -0.77384
 Alpha  occ. eigenvalues --   -0.71988  -0.71117  -0.70390  -0.65803  -0.64926
 Alpha  occ. eigenvalues --   -0.64687  -0.62075  -0.61635  -0.60035  -0.58292
 Alpha  occ. eigenvalues --   -0.55927  -0.55177  -0.53386  -0.53113  -0.53007
 Alpha  occ. eigenvalues --   -0.52748  -0.50600  -0.48795  -0.48745  -0.48570
 Alpha  occ. eigenvalues --   -0.47404  -0.46503  -0.46425  -0.44757  -0.44501
 Alpha  occ. eigenvalues --   -0.37258  -0.36269
 Alpha virt. eigenvalues --    0.05110   0.11354   0.16543   0.20382   0.22477
 Alpha virt. eigenvalues --    0.23699   0.25316   0.25823   0.27153   0.28265
 Alpha virt. eigenvalues --    0.28926   0.29993   0.30842   0.31350   0.31928

 Mulliken charges:
               1
     1  C   -0.173233
     2  C   -0.218362
     3  C   -0.171564
     4  C    0.158909
     5  C   -0.175484
     6  C   -0.224115
     7  H    0.225463
     8  H    0.223004
     9  H    0.275236
    10  H    0.275218
    11  H    0.236540
    12  N    0.488104
    13  O   -0.460717
    14  O   -0.460706
    15  C   -0.297130
    16  C   -0.308743
    17  C   -0.476162
    18  H    0.154196
    19  H    0.152074
    20  H    0.151564
    21  H    0.145864
    22  H    0.158724
    23  H    0.160740
    24  H    0.159405
    25  C   -0.299726
    26  C   -0.300152
    27  C   -0.476192
    28  H    0.151788
    29  H    0.145408
    30  H    0.154498
    31  H    0.152896
    32  H    0.153744
    33  H    0.156435
    34  H    0.162473
 Sum of Mulliken charges =  -0.00000

 Dipole moment (field-independent basis, Debye):
    X=             -3.5787    Y=             -2.2518    Z=              3.1891  Tot=              5.2961
 Quadrupole moment (field-independent basis, Debye-Ang):
   XX=           -112.9807   YY=            -91.9585   ZZ=            -94.9958
   XY=             -9.5694   XZ=             10.0977   YZ=             -1.0064

 Normal termination of Gaussian 16 at Thu May  6 09:29:04 2021.
