 Gaussian 16, Revision A.03,
 Gaussian 16:  EM64L-G16RevA.03 25-Dec-2016

 -------------
 #p 6-31g* mp2
 -------------

 ------------------------------------------------------
 Input file generated by CHIRIPA (05-May-2021 14:55:24)
 ------------------------------------------------------
 Symbolic Z-matrix:
 Charge =  0 Multiplicity = 1

                         Standard orientation:
 ---------------------------------------------------------------------
 Center     Atomic      Atomic             Coordinates (Angstroms)
 Number     Number       Type             X           Y           Z
 ---------------------------------------------------------------------
      1          6           0        2.654132    2.651096    0.727830
      2          6           0        3.184731    2.364783   -0.534315
      3          6           0        3.267018    1.044651   -0.987115
      4          6           0        2.807352    0.030831   -0.147969
      5          6           0        2.273596    0.284056    1.114675
      6          6           0        2.201056    1.611651    1.546853
      7          1           0        2.593995    3.679504    1.071567
      8          1           0        3.537358    3.170013   -1.172519
      9          1           0        3.673283    0.794730   -1.959692
     10          1           0        1.930125   -0.539887    1.728323
     11          1           0        1.788514    1.831042    2.527527
     12          7           0        2.889306   -1.370684   -0.616413
     13          8           0        2.477548   -2.245921    0.141910
     14          8           0        3.363748   -1.567418   -1.733031
     15          6           0       -4.305466   -0.273526   -0.127811
     16          6           0       -4.730338    1.165159   -0.423876
     17          6           0       -6.192025    1.272116   -0.859565
     18          1           0       -4.468665   -0.888928   -1.023128
     19          1           0       -4.954199   -0.685841    0.657388
     20          1           0       -4.080109    1.575100   -1.207308
     21          1           0       -4.565930    1.777248    0.472190
     22          1           0       -6.855998    0.888716   -0.078062
     23          1           0       -6.367416    0.685419   -1.767103
     24          1           0       -6.474530    2.309128   -1.066101
     25          6           0       -2.846777   -0.396726    0.308967
     26          6           0       -2.421905   -1.835411    0.605032
     27          6           0       -0.960219   -1.942369    1.040720
     28          1           0       -2.198045    0.015589   -0.476233
     29          1           0       -2.683579    0.218676    1.204284
     30          1           0       -2.586313   -2.447500   -0.291034
     31          1           0       -3.072135   -2.245352    1.388463
     32          1           0       -0.784828   -1.355671    1.948259
     33          1           0       -0.296246   -1.558968    0.259218
     34          1           0       -0.677715   -2.979380    1.247257
 ---------------------------------------------------------------------

 SCF Done:  E(RHF) =  -669.535447485     A.U. after   15 cycles
 E2 =    -0.2092087577D+01 EUMP2 =    -0.67162753506183D+03

 The electronic state is 1-A.
 Alpha  occ. eigenvalues --  -20.60834 -20.60808 -15.85847 -11.31178 -11.27762
 Alpha  occ. eigenvalues --  -11.27720 -11.27501 -11.26763 -11.26744 -11.21614
 Alpha  occ. eigenvalues --  -11.21335 -11.21305 -11.21246 -11.21084 -11.20621
 Alpha  occ. eigenvalues --   -1.59888  -1.39442  -1.19357  -1.08761  -1.08318
 Alpha  occ. eigenvalues --   -1.04753  -1.03374  -0.95828  -0.95587  -0.86839
 Alpha  occ. eigenvalues --   -0.86148  -0.82431  -0.79458  -0.78148  -0.77463
 Alpha  occ. eigenvalues --   -0.72074  -0.71214  -0.70466  -0.65020  -0.64942
 Alpha  occ. eigenvalues --   -0.64758  -0.62104  -0.60773  -0.59181  -0.57431
 Alpha  occ. eigenvalues --   -0.55264  -0.55114  -0.53101  -0.52880  -0.52460
 Alpha  occ. eigenvalues --   -0.52210  -0.49801  -0.48837  -0.48824  -0.47763
 Alpha  occ. eigenvalues --   -0.46517  -0.45697  -0.45625  -0.44717  -0.43607
 Alpha  occ. eigenvalues --   -0.37340  -0.36340
 Alpha virt. eigenvalues --    0.05031   0.11252   0.16507   0.21219   0.22965
 Alpha virt. eigenvalues --    0.24425   0.26134   0.26898   0.27659   0.27784
 Alpha virt. eigenvalues --    0.28880   0.30741   0.31411   0.31782   0.32330

 Mulliken charges:
               1
     1  C   -0.170393
     2  C   -0.218857
     3  C   -0.170966
     4  C    0.156114
     5  C   -0.170397
     6  C   -0.219479
     7  H    0.225593
     8  H    0.223322
     9  H    0.275389
    10  H    0.280319
    11  H    0.223375
    12  N    0.487468
    13  O   -0.457557
    14  O   -0.460076
    15  C   -0.298059
    16  C   -0.299214
    17  C   -0.475587
    18  H    0.151022
    19  H    0.149319
    20  H    0.151330
    21  H    0.149804
    22  H    0.155216
    23  H    0.155998
    24  H    0.159254
    25  C   -0.297529
    26  C   -0.301684
    27  C   -0.472522
    28  H    0.149188
    29  H    0.145033
    30  H    0.154789
    31  H    0.149980
    32  H    0.140447
    33  H    0.159483
    34  H    0.169878
 Sum of Mulliken charges =  -0.00000

 Dipole moment (field-independent basis, Debye):
    X=             -0.1963    Y=              4.8301    Z=              1.6050  Tot=              5.0936
 Quadrupole moment (field-independent basis, Debye-Ang):
   XX=            -97.5680   YY=            -94.2455   ZZ=            -91.0421
   XY=             15.0329   XZ=              2.2400   YZ=             -1.9736

 Normal termination of Gaussian 16 at Thu May  6 17:40:44 2021.
