 Gaussian 16, Revision A.03,
 Gaussian 16:  EM64L-G16RevA.03 25-Dec-2016

 -------------
 #p 6-31g* mp2
 -------------

 ------------------------------------------------------
 Input file generated by CHIRIPA (05-May-2021 14:55:20)
 ------------------------------------------------------
 Symbolic Z-matrix:
 Charge =  0 Multiplicity = 1

                         Standard orientation:
 ---------------------------------------------------------------------
 Center     Atomic      Atomic             Coordinates (Angstroms)
 Number     Number       Type             X           Y           Z
 ---------------------------------------------------------------------
      1          6           0       -3.162775    2.694023    0.430729
      2          6           0       -2.374337    1.903356    1.273184
      3          6           0       -2.229892    0.533930    1.031611
      4          6           0       -2.890997   -0.014351   -0.066396
      5          6           0       -3.683522    0.747019   -0.924014
      6          6           0       -3.813704    2.114354   -0.663253
      7          1           0       -3.269444    3.757014    0.625842
      8          1           0       -1.867655    2.350829    2.123529
      9          1           0       -1.625672   -0.101466    1.667699
     10          1           0       -4.176358    0.272441   -1.763839
     11          1           0       -4.426661    2.725956   -1.319203
     12          7           0       -2.745629   -1.462994   -0.332295
     13          8           0       -3.338404   -1.921957   -1.306260
     14          8           0       -2.041667   -2.112047    0.438292
     15          6           0        3.217461   -0.571500    0.517519
     16          6           0        2.366044   -1.691550   -0.081280
     17          6           0        1.343061   -2.250024    0.908371
     18          1           0        3.736294   -0.950422    1.408684
     19          1           0        2.557867    0.237725    0.860285
     20          1           0        3.027137   -2.497818   -0.424072
     21          1           0        1.849327   -1.309973   -0.971234
     22          1           0        0.660105   -1.462158    1.242196
     23          1           0        1.844608   -2.656753    1.792466
     24          1           0        0.745291   -3.049472    0.459582
     25          6           0        4.244824   -0.002971   -0.459735
     26          6           0        5.096241    1.117079    0.139065
     27          6           0        6.119223    1.675552   -0.850587
     28          1           0        4.904417   -0.812196   -0.802500
     29          1           0        3.725991    0.375951   -1.350899
     30          1           0        5.612958    0.735502    1.029018
     31          1           0        4.435148    1.923347    0.481856
     32          1           0        5.617677    2.082281   -1.734682
     33          1           0        6.802179    0.887687   -1.184411
     34          1           0        6.716994    2.475001   -0.401797
 ---------------------------------------------------------------------

 SCF Done:  E(RHF) =  -669.535251785     A.U. after   15 cycles
 E2 =    -0.2091819685D+01 EUMP2 =    -0.67162707146964D+03

 The electronic state is 1-A.
 Alpha  occ. eigenvalues --  -20.60867 -20.60841 -15.85887 -11.31262 -11.27827
 Alpha  occ. eigenvalues --  -11.27822 -11.27567 -11.26845 -11.26835 -11.21515
 Alpha  occ. eigenvalues --  -11.21185 -11.21089 -11.21014 -11.20997 -11.20091
 Alpha  occ. eigenvalues --   -1.59925  -1.39479  -1.19432  -1.08827  -1.08139
 Alpha  occ. eigenvalues --   -1.04835  -1.03146  -0.95695  -0.95538  -0.86584
 Alpha  occ. eigenvalues --   -0.86233  -0.82496  -0.79233  -0.77955  -0.77528
 Alpha  occ. eigenvalues --   -0.72121  -0.71244  -0.70541  -0.65089  -0.64856
 Alpha  occ. eigenvalues --   -0.64765  -0.62193  -0.60548  -0.58959  -0.57169
 Alpha  occ. eigenvalues --   -0.55339  -0.54877  -0.53165  -0.52932  -0.52190
 Alpha  occ. eigenvalues --   -0.52002  -0.49592  -0.48877  -0.48837  -0.47520
 Alpha  occ. eigenvalues --   -0.46304  -0.45480  -0.45433  -0.44812  -0.43351
 Alpha  occ. eigenvalues --   -0.37410  -0.36436
 Alpha virt. eigenvalues --    0.04965   0.11170   0.16455   0.20965   0.23093
 Alpha virt. eigenvalues --    0.24377   0.26050   0.27154   0.27666   0.27859
 Alpha virt. eigenvalues --    0.29148   0.30383   0.31497   0.32030   0.32549

 Mulliken charges:
               1
     1  C   -0.170634
     2  C   -0.219408
     3  C   -0.172937
     4  C    0.157343
     5  C   -0.170713
     6  C   -0.218525
     7  H    0.225889
     8  H    0.223996
     9  H    0.279622
    10  H    0.275795
    11  H    0.223721
    12  N    0.488830
    13  O   -0.460254
    14  O   -0.459311
    15  C   -0.296639
    16  C   -0.301119
    17  C   -0.473219
    18  H    0.148751
    19  H    0.143120
    20  H    0.151050
    21  H    0.150970
    22  H    0.149077
    23  H    0.147961
    24  H    0.179268
    25  C   -0.297739
    26  C   -0.298930
    27  C   -0.475439
    28  H    0.150262
    29  H    0.148934
    30  H    0.151724
    31  H    0.149061
    32  H    0.154607
    33  H    0.155829
    34  H    0.159057
 Sum of Mulliken charges =  -0.00000

 Dipole moment (field-independent basis, Debye):
    X=             -0.6945    Y=              4.9812    Z=              0.8926  Tot=              5.1080
 Quadrupole moment (field-independent basis, Debye-Ang):
   XX=            -91.2177   YY=            -94.8575   ZZ=            -92.3961
   XY=            -16.2593   XZ=              0.6674   YZ=             -0.6018

 Normal termination of Gaussian 16 at Wed May  5 18:56:05 2021.
