 Gaussian 16, Revision A.03,
 Gaussian 16:  EM64L-G16RevA.03 25-Dec-2016

 -------------
 #p 6-31g* mp2
 -------------

 ------------------------------------------------------
 Input file generated by CHIRIPA (05-May-2021 14:51:08)
 ------------------------------------------------------
 Symbolic Z-matrix:
 Charge =  0 Multiplicity = 1

                         Standard orientation:
 ---------------------------------------------------------------------
 Center     Atomic      Atomic             Coordinates (Angstroms)
 Number     Number       Type             X           Y           Z
 ---------------------------------------------------------------------
      1          6           0       -3.979160   -0.309939   -0.268216
      2          6           0       -2.831367   -0.142975    0.728117
      3          6           0       -1.457814   -0.340073    0.086014
      4          1           0       -3.923247   -1.310738   -0.717905
      5          1           0       -3.850488    0.409177   -1.089015
      6          1           0       -2.962919   -0.861251    1.547501
      7          1           0       -2.890133    0.857473    1.175628
      8          1           0       -1.301110    0.385412   -0.718795
      9          1           0       -1.374310   -1.343078   -0.344809
     10          1           0       -0.651868   -0.216245    0.816067
     11          6           0       -5.358652   -0.115868    0.358735
     12          6           0       -6.506445   -0.282832   -0.637597
     13          6           0       -7.879999   -0.085735    0.004506
     14          1           0       -5.487324   -0.834984    1.179534
     15          1           0       -5.414566    0.884931    0.808425
     16          1           0       -6.447680   -1.283281   -1.085108
     17          1           0       -6.374893    0.435444   -1.456981
     18          1           0       -7.963503    0.917271    0.435329
     19          1           0       -8.036703   -0.811219    0.809315
     20          1           0       -8.685945   -0.209562   -0.725548
     21          6           0        5.116790   -0.405723   -0.056826
     22          6           0        6.608640   -0.075380    0.000115
     23          6           0        7.491773   -1.323297   -0.023814
     24          1           0        4.858988   -1.055412    0.790750
     25          1           0        4.910988   -0.984274   -0.968045
     26          1           0        6.811329    0.503564    0.910257
     27          1           0        6.862882    0.573756   -0.847588
     28          1           0        7.318690   -1.900257   -0.938014
     29          1           0        7.266846   -1.970846    0.829819
     30          1           0        8.554285   -1.064055    0.017698
     31          6           0        4.221023    0.831530   -0.033693
     32          6           0        2.729173    0.501187   -0.090636
     33          6           0        1.846039    1.749104   -0.066705
     34          1           0        4.426825    1.410082    0.877524
     35          1           0        4.478825    1.481220   -0.881269
     36          1           0        2.474930   -0.147948    0.757068
     37          1           0        2.526482   -0.077757   -1.000776
     38          1           0        2.070967    2.396653   -0.920338
     39          1           0        2.019121    2.326064    0.847493
     40          1           0        0.783528    1.489862   -0.108217
 ---------------------------------------------------------------------

 SCF Done:  E(RHF) =  -470.732571592     A.U. after   11 cycles
 E2 =    -0.1582768119D+01 EUMP2 =    -0.47231533971099D+03

 The electronic state is 1-A.
 Alpha  occ. eigenvalues --  -11.21631 -11.21612 -11.21565 -11.21513 -11.21424
 Alpha  occ. eigenvalues --  -11.21364 -11.21349 -11.21287 -11.21104 -11.21079
 Alpha  occ. eigenvalues --  -11.21043 -11.20861  -1.08453  -1.08366  -1.03572
 Alpha  occ. eigenvalues --   -1.03444  -0.96060  -0.95862  -0.87097  -0.86862
 Alpha  occ. eigenvalues --   -0.79635  -0.79512  -0.78263  -0.78181  -0.65085
 Alpha  occ. eigenvalues --   -0.65000  -0.60991  -0.60860  -0.59632  -0.59091
 Alpha  occ. eigenvalues --   -0.57672  -0.57465  -0.55306  -0.55191  -0.52979
 Alpha  occ. eigenvalues --   -0.52467  -0.52428  -0.52145  -0.49923  -0.49847
 Alpha  occ. eigenvalues --   -0.47939  -0.47829  -0.46636  -0.46560  -0.45805
 Alpha  occ. eigenvalues --   -0.45738  -0.45711  -0.45651  -0.43877  -0.43595
 Alpha virt. eigenvalues --    0.22139   0.23010   0.23538   0.25016   0.26546
 Alpha virt. eigenvalues --    0.26618   0.27033   0.27418   0.27700   0.28916
 Alpha virt. eigenvalues --    0.30012   0.31201   0.31528   0.31744   0.32231

 Mulliken charges:
               1
     1  C   -0.298746
     2  C   -0.299963
     3  C   -0.480830
     4  H    0.149738
     5  H    0.149811
     6  H    0.152126
     7  H    0.152404
     8  H    0.156674
     9  H    0.155931
    10  H    0.164652
    11  C   -0.298316
    12  C   -0.299672
    13  C   -0.475722
    14  H    0.149569
    15  H    0.149758
    16  H    0.151952
    17  H    0.151975
    18  H    0.155224
    19  H    0.155192
    20  H    0.160295
    21  C   -0.298187
    22  C   -0.299592
    23  C   -0.475660
    24  H    0.149443
    25  H    0.149445
    26  H    0.151823
    27  H    0.151868
    28  H    0.155128
    29  H    0.155092
    30  H    0.160118
    31  C   -0.298130
    32  C   -0.298870
    33  C   -0.484918
    34  H    0.149256
    35  H    0.149532
    36  H    0.151068
    37  H    0.152126
    38  H    0.153764
    39  H    0.153579
    40  H    0.171065
 Sum of Mulliken charges =  -0.00000

 Dipole moment (field-independent basis, Debye):
    X=             -0.0655    Y=             -0.0246    Z=             -0.0024  Tot=              0.0700
 Quadrupole moment (field-independent basis, Debye-Ang):
   XX=            -86.7138   YY=            -84.5148   ZZ=            -83.7855
   XY=              0.7082   XZ=              0.2877   YZ=             -0.3120

 Normal termination of Gaussian 16 at Thu May  6 13:12:21 2021.
