 Gaussian 16, Revision A.03,
 Gaussian 16:  EM64L-G16RevA.03 25-Dec-2016

 -------------
 #p 6-31g* mp2
 -------------

 ------------------------------------------------------
 Input file generated by CHIRIPA (05-May-2021 14:53:12)
 ------------------------------------------------------
 Symbolic Z-matrix:
 Charge =  0 Multiplicity = 1

                         Standard orientation:
 ---------------------------------------------------------------------
 Center     Atomic      Atomic             Coordinates (Angstroms)
 Number     Number       Type             X           Y           Z
 ---------------------------------------------------------------------
      1          6           0        3.437929   -0.659263   -0.620286
      2          6           0        2.885681   -1.819946    0.207857
      3          6           0        2.725927   -3.103940   -0.606779
      4          1           0        2.769130   -0.474028   -1.471955
      5          1           0        4.409639   -0.949518   -1.043284
      6          1           0        1.915945   -1.527084    0.630300
      7          1           0        3.555772   -2.002315    1.057761
      8          1           0        3.689965   -3.423034   -1.015938
      9          1           0        2.040821   -2.945102   -1.445827
     10          1           0        2.329834   -3.920680    0.004699
     11          6           0        3.603272    0.631307    0.180225
     12          6           0        4.155520    1.791991   -0.647919
     13          6           0        4.315274    3.075985    0.166718
     14          1           0        2.631562    0.921563    0.603222
     15          1           0        4.272071    0.446072    1.031894
     16          1           0        3.485429    1.974360   -1.497822
     17          1           0        5.125257    1.499128   -1.070362
     18          1           0        5.000381    2.917146    1.005765
     19          1           0        3.351236    3.395078    0.575876
     20          1           0        4.711367    3.892725   -0.444761
     21          6           0       -4.739793    1.292791   -0.702927
     22          6           0       -4.655043   -0.089168   -0.901747
     23          6           0       -3.557417   -0.809604   -0.421394
     24          6           0       -2.558148   -0.113006    0.256474
     25          6           0       -2.613828    1.263372    0.470417
     26          6           0       -3.720712    1.963467   -0.018686
     27          1           0       -5.596052    1.844541   -1.079476
     28          1           0       -5.444989   -0.612650   -1.432781
     29          1           0       -3.466430   -1.879911   -0.561324
     30          1           0       -1.810711    1.757542    1.003539
     31          1           0       -3.783870    3.036669    0.137187
     32          7           0       -1.391241   -0.864932    0.769635
     33          8           0       -0.524104   -0.227875    1.363662
     34          8           0       -1.365851   -2.077111    0.568105
 ---------------------------------------------------------------------

 SCF Done:  E(RHF) =  -669.536926148     A.U. after   15 cycles
 E2 =    -0.2091777406D+01 EUMP2 =    -0.67162870355311D+03

 The electronic state is 1-A.
 Alpha  occ. eigenvalues --  -20.61145 -20.61137 -15.86137 -11.31406 -11.27957
 Alpha  occ. eigenvalues --  -11.27951 -11.27681 -11.26947 -11.26937 -11.20847
 Alpha  occ. eigenvalues --  -11.20500 -11.20277 -11.20165 -11.19853 -11.19645
 Alpha  occ. eigenvalues --   -1.60177  -1.39735  -1.19563  -1.08978  -1.07284
 Alpha  occ. eigenvalues --   -1.04948  -1.02390  -0.95828  -0.94890  -0.86352
 Alpha  occ. eigenvalues --   -0.85921  -0.82664  -0.78486  -0.77726  -0.77021
 Alpha  occ. eigenvalues --   -0.72344  -0.71483  -0.70670  -0.65218  -0.64951
 Alpha  occ. eigenvalues --   -0.63916  -0.62295  -0.59790  -0.58298  -0.56464
 Alpha  occ. eigenvalues --   -0.55454  -0.54196  -0.53283  -0.53038  -0.51611
 Alpha  occ. eigenvalues --   -0.51316  -0.49207  -0.49110  -0.48836  -0.46786
 Alpha  occ. eigenvalues --   -0.45497  -0.45211  -0.44612  -0.44277  -0.42642
 Alpha  occ. eigenvalues --   -0.37536  -0.36546
 Alpha virt. eigenvalues --    0.04765   0.11111   0.16263   0.21238   0.23925
 Alpha virt. eigenvalues --    0.25425   0.27171   0.27653   0.28118   0.28776
 Alpha virt. eigenvalues --    0.29076   0.30874   0.32381   0.32444   0.32801

 Mulliken charges:
               1
     1  C   -0.295787
     2  C   -0.313353
     3  C   -0.472071
     4  H    0.144376
     5  H    0.143530
     6  H    0.183483
     7  H    0.145683
     8  H    0.146459
     9  H    0.151803
    10  H    0.162388
    11  C   -0.300920
    12  C   -0.298472
    13  C   -0.474488
    14  H    0.159622
    15  H    0.147513
    16  H    0.148315
    17  H    0.149707
    18  H    0.154915
    19  H    0.153077
    20  H    0.156473
    21  C   -0.170323
    22  C   -0.218611
    23  C   -0.170658
    24  C    0.158916
    25  C   -0.170639
    26  C   -0.218562
    27  H    0.226458
    28  H    0.224267
    29  H    0.276205
    30  H    0.275790
    31  H    0.224285
    32  N    0.488635
    33  O   -0.460173
    34  O   -0.457844
 Sum of Mulliken charges =  -0.00000

 Dipole moment (field-independent basis, Debye):
    X=             -4.5615    Y=              2.6166    Z=             -1.6565  Tot=              5.5134
 Quadrupole moment (field-independent basis, Debye-Ang):
   XX=            -73.7937   YY=            -93.3496   ZZ=            -96.0950
   XY=             -4.9989   XZ=              5.2271   YZ=              1.9844

 Normal termination of Gaussian 16 at Thu May  6 17:01:38 2021.
