 Gaussian 16, Revision A.03,
 Gaussian 16:  EM64L-G16RevA.03 25-Dec-2016

 -------------
 #p 6-31g* mp2
 -------------

 ------------------------------------------------------
 Input file generated by CHIRIPA (05-May-2021 14:51:07)
 ------------------------------------------------------
 Symbolic Z-matrix:
 Charge =  0 Multiplicity = 1

                         Standard orientation:
 ---------------------------------------------------------------------
 Center     Atomic      Atomic             Coordinates (Angstroms)
 Number     Number       Type             X           Y           Z
 ---------------------------------------------------------------------
      1          6           0       -4.288573    0.454695   -0.030824
      2          6           0       -5.747917    0.002421   -0.092034
      3          6           0       -6.715805    1.160212   -0.338017
      4          1           0       -4.176512    1.203585    0.765135
      5          1           0       -4.028115    0.957848   -0.972309
      6          1           0       -6.005142   -0.500953    0.848745
      7          1           0       -5.856479   -0.745620   -0.887814
      8          1           0       -6.487318    1.658638   -1.285627
      9          1           0       -6.636827    1.904696    0.460799
     10          1           0       -7.753439    0.814427   -0.378128
     11          6           0       -3.308893   -0.691496    0.214534
     12          6           0       -1.849548   -0.239221    0.275743
     13          6           0       -0.881661   -1.397012    0.521726
     14          1           0       -3.569351   -1.194648    1.156019
     15          1           0       -3.420954   -1.440386   -0.581426
     16          1           0       -1.740987    0.508820    1.071523
     17          1           0       -1.592324    0.264152   -0.665036
     18          1           0       -0.960639   -2.141497   -0.277089
     19          1           0       -1.110148   -1.895439    1.469336
     20          1           0        0.155973   -1.051228    0.561838
     21          6           0        3.367214   -0.487894   -0.263988
     22          6           0        4.060781   -1.822961    0.009046
     23          6           0        3.184857   -3.026495   -0.340317
     24          1           0        2.432887   -0.442767    0.312155
     25          1           0        3.083155   -0.440336   -1.324386
     26          1           0        4.344682   -1.867406    1.068310
     27          1           0        4.993662   -1.864835   -0.567666
     28          1           0        2.912273   -3.009764   -1.400515
     29          1           0        2.259606   -3.012350    0.244757
     30          1           0        3.700185   -3.970484   -0.137375
     31          6           0        4.230252    0.724695    0.080279
     32          6           0        3.536685    2.059762   -0.192756
     33          6           0        4.412608    3.263296    0.156609
     34          1           0        4.514311    0.677136    1.140676
     35          1           0        5.164580    0.679567   -0.495864
     36          1           0        2.603805    2.101636    0.383957
     37          1           0        3.252784    2.104207   -1.252020
     38          1           0        5.337859    3.249150   -0.428466
     39          1           0        4.685192    3.246564    1.216806
     40          1           0        3.897282    4.207284   -0.046334
 ---------------------------------------------------------------------

 SCF Done:  E(RHF) =  -470.733217696     A.U. after   11 cycles
 E2 =    -0.1582809620D+01 EUMP2 =    -0.47231602731638D+03

 The electronic state is 1-A.
 Alpha  occ. eigenvalues --  -11.21603 -11.21600 -11.21599 -11.21581 -11.21404
 Alpha  occ. eigenvalues --  -11.21402 -11.21345 -11.21342 -11.21071 -11.21069
 Alpha  occ. eigenvalues --  -11.21048 -11.21008  -1.08437  -1.08418  -1.03538
 Alpha  occ. eigenvalues --   -1.03504  -0.95979  -0.95963  -0.86999  -0.86978
 Alpha  occ. eigenvalues --   -0.79632  -0.79538  -0.78256  -0.78230  -0.65073
 Alpha  occ. eigenvalues --   -0.65056  -0.60932  -0.60914  -0.59445  -0.59243
 Alpha  occ. eigenvalues --   -0.57637  -0.57532  -0.55269  -0.55243  -0.52735
 Alpha  occ. eigenvalues --   -0.52635  -0.52479  -0.52309  -0.49927  -0.49894
 Alpha  occ. eigenvalues --   -0.47955  -0.47855  -0.46628  -0.46601  -0.45791
 Alpha  occ. eigenvalues --   -0.45770  -0.45709  -0.45701  -0.43780  -0.43702
 Alpha virt. eigenvalues --    0.21516   0.23044   0.23645   0.24626   0.25961
 Alpha virt. eigenvalues --    0.26647   0.27129   0.27212   0.27961   0.29002
 Alpha virt. eigenvalues --    0.30721   0.31326   0.31563   0.31824   0.32045

 Mulliken charges:
               1
     1  C   -0.298219
     2  C   -0.299635
     3  C   -0.475699
     4  H    0.149571
     5  H    0.149573
     6  H    0.151907
     7  H    0.151973
     8  H    0.155191
     9  H    0.155153
    10  H    0.160249
    11  C   -0.298583
    12  C   -0.299189
    13  C   -0.484479
    14  H    0.149453
    15  H    0.149774
    16  H    0.151391
    17  H    0.152429
    18  H    0.156109
    19  H    0.154653
    20  H    0.167898
    21  C   -0.305830
    22  C   -0.299268
    23  C   -0.478459
    24  H    0.156238
    25  H    0.149529
    26  H    0.151659
    27  H    0.151853
    28  H    0.154817
    29  H    0.159347
    30  H    0.159901
    31  C   -0.297529
    32  C   -0.299694
    33  C   -0.475702
    34  H    0.149436
    35  H    0.149783
    36  H    0.151814
    37  H    0.151922
    38  H    0.155198
    39  H    0.155178
    40  H    0.160288
 Sum of Mulliken charges =  -0.00000

 Dipole moment (field-independent basis, Debye):
    X=              0.0007    Y=             -0.0018    Z=             -0.0055  Tot=              0.0058
 Quadrupole moment (field-independent basis, Debye-Ang):
   XX=            -85.6516   YY=            -86.2610   ZZ=            -82.9020
   XY=              0.1013   XZ=             -0.6765   YZ=              0.0750

 Normal termination of Gaussian 16 at Wed May  5 22:53:48 2021.
