 Gaussian 16, Revision A.03,
 Gaussian 16:  EM64L-G16RevA.03 25-Dec-2016

 -------------
 #p 6-31g* mp2
 -------------

 ------------------------------------------------------
 Input file generated by CHIRIPA (05-May-2021 14:57:25)
 ------------------------------------------------------
 Symbolic Z-matrix:
 Charge =  0 Multiplicity = 1

                         Standard orientation:
 ---------------------------------------------------------------------
 Center     Atomic      Atomic             Coordinates (Angstroms)
 Number     Number       Type             X           Y           Z
 ---------------------------------------------------------------------
      1          6           0        2.107689   -1.359636    0.030857
      2          6           0        3.296394   -1.914362    0.516429
      3          6           0        4.481403   -1.172585    0.508169
      4          6           0        4.441391    0.126786    0.004854
      5          6           0        3.272902    0.707388   -0.485887
      6          6           0        2.099751   -0.052836   -0.467873
      7          1           0        1.191751   -1.943031    0.041062
      8          1           0        3.305528   -2.928997    0.904343
      9          1           0        5.415642   -1.577403    0.877948
     10          1           0        3.295084    1.721387   -0.866323
     11          1           0        1.178053    0.380553   -0.845618
     12          7           0        5.689630    0.921836   -0.009054
     13          8           0        5.627964    2.064421   -0.457756
     14          8           0        6.706030    0.387357    0.429010
     15          6           0       -6.188143    1.565033    0.335938
     16          6           0       -6.412285    0.203731    0.105419
     17          6           0       -5.338035   -0.670275   -0.086021
     18          6           0       -4.046907   -0.146643   -0.040315
     19          6           0       -3.791187    1.204681    0.187331
     20          6           0       -4.880615    2.060290    0.376088
     21          1           0       -7.028541    2.236837    0.483611
     22          1           0       -7.426656   -0.183685    0.073710
     23          1           0       -5.482968   -1.728539   -0.266270
     24          1           0       -2.768712    1.561448    0.213381
     25          1           0       -4.703546    3.117034    0.554925
     26          7           0       -2.901613   -1.062176   -0.241562
     27          8           0       -1.773669   -0.576011   -0.196603
     28          8           0       -3.153563   -2.248600   -0.440451
 ---------------------------------------------------------------------

 SCF Done:  E(RHF) =  -868.341063261     A.U. after   16 cycles
 E2 =    -0.2598243902D+01 EUMP2 =    -0.87093930716282D+03

 The electronic state is 1-A.
 Alpha  occ. eigenvalues --  -20.61989 -20.61953 -20.60034 -20.60029 -15.86991
 Alpha  occ. eigenvalues --  -15.85080 -11.32005 -11.30198 -11.28544 -11.28515
 Alpha  occ. eigenvalues --  -11.28196 -11.27462 -11.27450 -11.26771 -11.26727
 Alpha  occ. eigenvalues --  -11.26192 -11.25666 -11.25513  -1.61024  -1.59116
 Alpha  occ. eigenvalues --   -1.40590  -1.38677  -1.20141  -1.18322  -1.09599
 Alpha  occ. eigenvalues --   -1.07709  -1.05491  -1.03696  -0.96496  -0.94596
 Alpha  occ. eigenvalues --   -0.86906  -0.85066  -0.83345  -0.81457  -0.78429
 Alpha  occ. eigenvalues --   -0.76580  -0.73243  -0.72312  -0.71301  -0.71243
 Alpha  occ. eigenvalues --   -0.70439  -0.69295  -0.65800  -0.65488  -0.63942
 Alpha  occ. eigenvalues --   -0.63640  -0.62845  -0.61051  -0.55999  -0.54016
 Alpha  occ. eigenvalues --   -0.53836  -0.53577  -0.52038  -0.51751  -0.49999
 Alpha  occ. eigenvalues --   -0.49942  -0.48073  -0.48031  -0.46066  -0.44140
 Alpha  occ. eigenvalues --   -0.38094  -0.37077  -0.36218  -0.35329
 Alpha virt. eigenvalues --    0.04082   0.05951   0.10583   0.12349   0.15650
 Alpha virt. eigenvalues --    0.17540   0.20696   0.22680   0.26646   0.27338
 Alpha virt. eigenvalues --    0.28529   0.29597   0.30446   0.31693   0.32601

 Mulliken charges:
               1
     1  C   -0.174246
     2  C   -0.220210
     3  C   -0.172575
     4  C    0.157228
     5  C   -0.173663
     6  C   -0.222636
     7  H    0.244547
     8  H    0.221000
     9  H    0.271833
    10  H    0.270642
    11  H    0.233752
    12  N    0.488323
    13  O   -0.463895
    14  O   -0.463291
    15  C   -0.169503
    16  C   -0.218470
    17  C   -0.170156
    18  C    0.157595
    19  C   -0.170023
    20  C   -0.218353
    21  H    0.228631
    22  H    0.226034
    23  H    0.276593
    24  H    0.273456
    25  H    0.226163
    26  N    0.493047
    27  O   -0.475193
    28  O   -0.456629
 Sum of Mulliken charges =  -0.00000

 Dipole moment (field-independent basis, Debye):
    X=             -9.1846    Y=              0.3497    Z=              0.7526  Tot=              9.2221
 Quadrupole moment (field-independent basis, Debye-Ang):
   XX=           -109.1173   YY=           -100.8744   ZZ=           -105.6565
   XY=            -25.5277   XZ=             -1.1197   YZ=             -1.4227

 Normal termination of Gaussian 16 at Thu May  6 13:03:47 2021.
