 Gaussian 16, Revision A.03,
 Gaussian 16:  EM64L-G16RevA.03 25-Dec-2016

 -------------
 #p 6-31g* mp2
 -------------

 ------------------------------------------------------
 Input file generated by CHIRIPA (05-May-2021 14:57:26)
 ------------------------------------------------------
 Symbolic Z-matrix:
 Charge =  0 Multiplicity = 1

                         Standard orientation:
 ---------------------------------------------------------------------
 Center     Atomic      Atomic             Coordinates (Angstroms)
 Number     Number       Type             X           Y           Z
 ---------------------------------------------------------------------
      1          6           0        6.149064    0.451849    0.657301
      2          6           0        5.254929    1.527031    0.689372
      3          6           0        3.921839    1.353553    0.305541
      4          6           0        3.515006    0.085588   -0.106820
      5          6           0        4.381887   -1.005269   -0.149685
      6          6           0        5.710463   -0.808647    0.238613
      7          1           0        7.182886    0.595601    0.957206
      8          1           0        5.592763    2.507068    1.014087
      9          1           0        3.208482    2.168604    0.320740
     10          1           0        4.015729   -1.970425   -0.478044
     11          1           0        6.402643   -1.645462    0.212698
     12          7           0        2.106113   -0.110317   -0.515529
     13          8           0        1.772504   -1.237352   -0.874879
     14          8           0        1.362110    0.866879   -0.468787
     15          6           0       -6.050754    0.837394    0.422946
     16          6           0       -5.323706    1.198970   -0.715994
     17          6           0       -4.046474    0.675879   -0.938710
     18          6           0       -3.524510   -0.210227    0.002385
     19          6           0       -4.224127   -0.589749    1.146845
     20          6           0       -5.499616   -0.054240    1.349097
     21          1           0       -7.042262    1.248566    0.588008
     22          1           0       -5.749215    1.891216   -1.436952
     23          1           0       -3.461770    0.938791   -1.811875
     24          1           0       -3.773499   -1.282009    1.847652
     25          1           0       -6.061961   -0.336828    2.234511
     26          7           0       -2.173285   -0.770574   -0.222562
     27          8           0       -1.735772   -1.549381    0.621641
     28          8           0       -1.577292   -0.420355   -1.238818
 ---------------------------------------------------------------------

 SCF Done:  E(RHF) =  -868.333855702     A.U. after   16 cycles
 E2 =    -0.2601412367D+01 EUMP2 =    -0.87093526806878D+03

 The electronic state is 1-A.
 Alpha  occ. eigenvalues --  -20.59319 -20.59246 -20.59190 -20.59048 -15.84384
 Alpha  occ. eigenvalues --  -15.84202 -11.30255 -11.30118 -11.26901 -11.26867
 Alpha  occ. eigenvalues --  -11.26770 -11.26735 -11.26725 -11.26610 -11.26026
 Alpha  occ. eigenvalues --  -11.26002 -11.25908 -11.25887  -1.58340  -1.58170
 Alpha  occ. eigenvalues --   -1.37895  -1.37724  -1.18474  -1.18344  -1.07773
 Alpha  occ. eigenvalues --   -1.07632  -1.03955  -1.03831  -0.94533  -0.94359
 Alpha  occ. eigenvalues --   -0.85330  -0.85204  -0.81366  -0.81215  -0.76315
 Alpha  occ. eigenvalues --   -0.76165  -0.70600  -0.70399  -0.69728  -0.69585
 Alpha  occ. eigenvalues --   -0.69507  -0.69453  -0.64116  -0.63994  -0.63957
 Alpha  occ. eigenvalues --   -0.63840  -0.61300  -0.61175  -0.54448  -0.54317
 Alpha  occ. eigenvalues --   -0.52255  -0.52131  -0.52056  -0.51935  -0.47791
 Alpha  occ. eigenvalues --   -0.47281  -0.47141  -0.46638  -0.43207  -0.42973
 Alpha  occ. eigenvalues --   -0.36485  -0.36356  -0.35582  -0.35461
 Alpha virt. eigenvalues --    0.06229   0.06388   0.12064   0.12185   0.17635
 Alpha virt. eigenvalues --    0.17782   0.22125   0.22235   0.27999   0.28105
 Alpha virt. eigenvalues --    0.29058   0.29177   0.31632   0.31740   0.33325

 Mulliken charges:
               1
     1  C   -0.172582
     2  C   -0.218480
     3  C   -0.172045
     4  C    0.160134
     5  C   -0.171417
     6  C   -0.218514
     7  H    0.222083
     8  H    0.219886
     9  H    0.273341
    10  H    0.276216
    11  H    0.220771
    12  N    0.487480
    13  O   -0.446300
    14  O   -0.460273
    15  C   -0.172803
    16  C   -0.218681
    17  C   -0.171136
    18  C    0.160509
    19  C   -0.172233
    20  C   -0.218584
    21  H    0.221502
    22  H    0.220123
    23  H    0.276556
    24  H    0.273615
    25  H    0.219559
    26  N    0.487277
    27  O   -0.464836
    28  O   -0.441168
 Sum of Mulliken charges =  -0.00000

 Dipole moment (field-independent basis, Debye):
    X=              0.2686    Y=              2.5175    Z=              1.9958  Tot=              3.2238
 Quadrupole moment (field-independent basis, Debye-Ang):
   XX=            -41.4069   YY=           -100.4268   ZZ=           -102.4373
   XY=             -4.2924   XZ=              1.3355   YZ=             -1.5232

 Normal termination of Gaussian 16 at Wed May  5 21:12:38 2021.
