 Gaussian 16, Revision A.03,
 Gaussian 16:  EM64L-G16RevA.03 25-Dec-2016

 -------------
 #p 6-31g* mp2
 -------------

 ------------------------------------------------------
 Input file generated by CHIRIPA (05-May-2021 14:53:15)
 ------------------------------------------------------
 Symbolic Z-matrix:
 Charge =  0 Multiplicity = 1

                         Standard orientation:
 ---------------------------------------------------------------------
 Center     Atomic      Atomic             Coordinates (Angstroms)
 Number     Number       Type             X           Y           Z
 ---------------------------------------------------------------------
      1          6           0        3.948147    0.878694   -0.102099
      2          6           0        2.442039    1.108275   -0.232156
      3          6           0        2.056370    2.582995   -0.112765
      4          1           0        4.290317    1.271506    0.865147
      5          1           0        4.468649    1.458649   -0.876777
      6          1           0        1.924444    0.526972    0.541665
      7          1           0        2.103382    0.714699   -1.199123
      8          1           0        2.546392    3.173760   -0.893455
      9          1           0        2.366437    2.984967    0.857223
     10          1           0        0.975303    2.724275   -0.208654
     11          6           0        4.349329   -0.590673   -0.219317
     12          6           0        5.855437   -0.820254   -0.089260
     13          6           0        6.241106   -2.294974   -0.208651
     14          1           0        3.828827   -1.170628    0.555361
     15          1           0        4.007159   -0.983485   -1.186563
     16          1           0        6.194095   -0.426678    0.877707
     17          1           0        6.373033   -0.238951   -0.863081
     18          1           0        5.931039   -2.696946   -1.178639
     19          1           0        5.751084   -2.885739    0.572039
     20          1           0        7.322173   -2.436254   -0.112762
     21          6           0       -5.287199   -1.414172   -0.571219
     22          6           0       -5.117730   -0.093810   -1.000692
     23          6           0       -3.988018    0.636927   -0.620792
     24          6           0       -3.043402    0.013332    0.192914
     25          6           0       -3.183787   -1.300542    0.637119
     26          6           0       -4.321389   -2.012269    0.244877
     27          1           0       -6.167850   -1.974442   -0.871129
     28          1           0       -5.866158    0.373242   -1.634540
     29          1           0       -3.831708    1.660550   -0.938883
     30          1           0       -2.420522   -1.739131    1.268376
     31          1           0       -4.450369   -3.037529    0.579919
     32          7           0       -1.843251    0.776868    0.601631
     33          8           0       -1.025559    0.204691    1.319009
     34          8           0       -1.742989    1.933047    0.196866
 ---------------------------------------------------------------------

 SCF Done:  E(RHF) =  -669.536834606     A.U. after   15 cycles
 E2 =    -0.2091781013D+01 EUMP2 =    -0.67162861561870D+03

 The electronic state is 1-A.
 Alpha  occ. eigenvalues --  -20.61099 -20.61094 -15.86098 -11.31371 -11.27923
 Alpha  occ. eigenvalues --  -11.27919 -11.27652 -11.26917 -11.26907 -11.20886
 Alpha  occ. eigenvalues --  -11.20515 -11.20464 -11.20179 -11.19927 -11.19146
 Alpha  occ. eigenvalues --   -1.60130  -1.39690  -1.19529  -1.08943  -1.07341
 Alpha  occ. eigenvalues --   -1.04917  -1.02335  -0.95795  -0.94798  -0.86320
 Alpha  occ. eigenvalues --   -0.85828  -0.82629  -0.78476  -0.77689  -0.77076
 Alpha  occ. eigenvalues --   -0.72312  -0.71433  -0.70638  -0.65186  -0.64920
 Alpha  occ. eigenvalues --   -0.63986  -0.62264  -0.59746  -0.58246  -0.56372
 Alpha  occ. eigenvalues --   -0.55415  -0.54124  -0.53250  -0.53008  -0.51485
 Alpha  occ. eigenvalues --   -0.51246  -0.49084  -0.48986  -0.48799  -0.46760
 Alpha  occ. eigenvalues --   -0.45552  -0.45141  -0.44625  -0.44429  -0.42556
 Alpha  occ. eigenvalues --   -0.37504  -0.36514
 Alpha virt. eigenvalues --    0.04808   0.11142   0.16305   0.21275   0.23853
 Alpha virt. eigenvalues --    0.25606   0.27204   0.27673   0.28129   0.28591
 Alpha virt. eigenvalues --    0.29230   0.30855   0.32322   0.32502   0.32747

 Mulliken charges:
               1
     1  C   -0.297139
     2  C   -0.303293
     3  C   -0.484172
     4  H    0.147847
     5  H    0.144908
     6  H    0.168847
     7  H    0.142957
     8  H    0.143158
     9  H    0.150280
    10  H    0.185757
    11  C   -0.297157
    12  C   -0.298651
    13  C   -0.474974
    14  H    0.149604
    15  H    0.146444
    16  H    0.151235
    17  H    0.150363
    18  H    0.153424
    19  H    0.154125
    20  H    0.157901
    21  C   -0.170366
    22  C   -0.218596
    23  C   -0.170548
    24  C    0.158271
    25  C   -0.170447
    26  C   -0.218610
    27  H    0.226295
    28  H    0.224110
    29  H    0.276018
    30  H    0.275985
    31  H    0.224122
    32  N    0.489546
    33  O   -0.458341
    34  O   -0.458903
 Sum of Mulliken charges =  -0.00000

 Dipole moment (field-independent basis, Debye):
    X=             -4.7215    Y=             -2.7054    Z=             -1.3253  Tot=              5.6008
 Quadrupole moment (field-independent basis, Debye-Ang):
   XX=            -70.6031   YY=            -93.2671   ZZ=            -93.7154
   XY=              7.1892   XZ=              4.9792   YZ=             -3.0070

 Normal termination of Gaussian 16 at Wed May  5 23:32:34 2021.
