 Gaussian 16, Revision A.03,
 Gaussian 16:  EM64L-G16RevA.03 25-Dec-2016

 -------------
 #p 6-31g* mp2
 -------------

 ------------------------------------------------------
 Input file generated by CHIRIPA (05-May-2021 14:55:21)
 ------------------------------------------------------
 Symbolic Z-matrix:
 Charge =  0 Multiplicity = 1

                         Standard orientation:
 ---------------------------------------------------------------------
 Center     Atomic      Atomic             Coordinates (Angstroms)
 Number     Number       Type             X           Y           Z
 ---------------------------------------------------------------------
      1          6           0       -0.852696   -2.718939    0.140266
      2          6           0       -2.037082   -2.658222   -0.601396
      3          6           0       -2.807794   -1.491865   -0.614196
      4          6           0       -2.362394   -0.400107    0.129424
      5          6           0       -1.186969   -0.429634    0.878287
      6          6           0       -0.432161   -1.606413    0.876443
      7          1           0       -0.260166   -3.629041    0.144522
      8          1           0       -2.366118   -3.520682   -1.174060
      9          1           0       -3.728774   -1.417535   -1.179608
     10          1           0       -0.884710    0.446364    1.439255
     11          1           0        0.487223   -1.650703    1.453346
     12          7           0       -3.169894    0.840180    0.123625
     13          8           0       -2.755764    1.788297    0.787106
     14          8           0       -4.201651    0.840714   -0.544292
     15          6           0        2.618231    1.462057    0.066259
     16          6           0        1.371259    1.957157   -0.667175
     17          6           0        0.912778    3.335421   -0.189705
     18          1           0        2.412235    1.428219    1.144853
     19          1           0        3.430439    2.188685   -0.074194
     20          1           0        0.562055    1.229131   -0.526531
     21          1           0        1.580187    1.989639   -1.744166
     22          1           0        1.701169    4.078947   -0.345299
     23          1           0        0.677252    3.314118    0.879254
     24          1           0        0.020028    3.670018   -0.727201
     25          6           0        3.088797    0.085515   -0.400031
     26          6           0        4.335768   -0.409584    0.333403
     27          6           0        4.794251   -1.787848   -0.144067
     28          1           0        2.276591   -0.641112   -0.259578
     29          1           0        3.294793    0.119354   -1.478625
     30          1           0        4.126842   -0.442066    1.410394
     31          1           0        5.144975    0.318442    0.192759
     32          1           0        5.029776   -1.766546   -1.213027
     33          1           0        4.005859   -2.531374    0.011527
     34          1           0        5.687000   -2.122444    0.393429
 ---------------------------------------------------------------------

 SCF Done:  E(RHF) =  -669.534695763     A.U. after   15 cycles
 E2 =    -0.2094278219D+01 EUMP2 =    -0.67162897398187D+03

 The electronic state is 1-A.
 Alpha  occ. eigenvalues --  -20.60857 -20.60848 -15.85903 -11.31293 -11.27868
 Alpha  occ. eigenvalues --  -11.27864 -11.27615 -11.26883 -11.26866 -11.22099
 Alpha  occ. eigenvalues --  -11.21779 -11.21649 -11.21647 -11.21510 -11.20736
 Alpha  occ. eigenvalues --   -1.59925  -1.39477  -1.19483  -1.08863  -1.08736
 Alpha  occ. eigenvalues --   -1.04894  -1.03742  -0.96182  -0.95693  -0.87195
 Alpha  occ. eigenvalues --   -0.86281  -0.82526  -0.79825  -0.78534  -0.77563
 Alpha  occ. eigenvalues --   -0.72121  -0.71249  -0.70587  -0.65447  -0.65124
 Alpha  occ. eigenvalues --   -0.64895  -0.62232  -0.61135  -0.59573  -0.57770
 Alpha  occ. eigenvalues --   -0.55505  -0.55374  -0.53254  -0.52972  -0.52810
 Alpha  occ. eigenvalues --   -0.52588  -0.50151  -0.48883  -0.48872  -0.48120
 Alpha  occ. eigenvalues --   -0.46895  -0.46047  -0.46003  -0.44862  -0.43989
 Alpha  occ. eigenvalues --   -0.37436  -0.36387
 Alpha virt. eigenvalues --    0.04942   0.10994   0.16354   0.19528   0.23160
 Alpha virt. eigenvalues --    0.23287   0.25825   0.27044   0.27424   0.28508
 Alpha virt. eigenvalues --    0.29351   0.30510   0.31389   0.31705   0.32111

 Mulliken charges:
               1
     1  C   -0.171522
     2  C   -0.218190
     3  C   -0.170301
     4  C    0.159745
     5  C   -0.174806
     6  C   -0.216574
     7  H    0.226446
     8  H    0.224077
     9  H    0.276121
    10  H    0.278533
    11  H    0.225150
    12  N    0.488470
    13  O   -0.460335
    14  O   -0.459907
    15  C   -0.297982
    16  C   -0.308166
    17  C   -0.474284
    18  H    0.142946
    19  H    0.152301
    20  H    0.154747
    21  H    0.152454
    22  H    0.152527
    23  H    0.155500
    24  H    0.170188
    25  C   -0.302520
    26  C   -0.299934
    27  C   -0.474064
    28  H    0.146212
    29  H    0.152261
    30  H    0.148319
    31  H    0.155260
    32  H    0.157567
    33  H    0.147864
    34  H    0.161895
 Sum of Mulliken charges =  -0.00000

 Dipole moment (field-independent basis, Debye):
    X=              2.7213    Y=             -4.3076    Z=             -0.0452  Tot=              5.0954
 Quadrupole moment (field-independent basis, Debye-Ang):
   XX=           -106.2156   YY=            -91.2715   ZZ=            -92.9941
   XY=             11.6738   XZ=              2.1960   YZ=              0.3741

 Normal termination of Gaussian 16 at Thu May  6 12:31:48 2021.
