 Gaussian 16, Revision A.03,
 Gaussian 16:  EM64L-G16RevA.03 25-Dec-2016

 -------------
 #p 6-31g* mp2
 -------------

 ------------------------------------------------------
 Input file generated by CHIRIPA (05-May-2021 14:51:10)
 ------------------------------------------------------
 Symbolic Z-matrix:
 Charge =  0 Multiplicity = 1

                         Standard orientation:
 ---------------------------------------------------------------------
 Center     Atomic      Atomic             Coordinates (Angstroms)
 Number     Number       Type             X           Y           Z
 ---------------------------------------------------------------------
      1          6           0       -3.191368    0.541461   -0.142006
      2          6           0       -2.589352    1.858792    0.348095
      3          6           0       -1.077743    1.934849    0.131190
      4          1           0       -2.702412   -0.293689    0.377986
      5          1           0       -2.966718    0.418820   -1.210597
      6          1           0       -2.816259    1.979574    1.415120
      7          1           0       -3.079932    2.690912   -0.172984
      8          1           0       -0.835905    1.839792   -0.932332
      9          1           0       -0.570733    1.124412    0.664795
     10          1           0       -0.668163    2.884752    0.488664
     11          6           0       -4.701780    0.450412    0.067986
     12          6           0       -5.303796   -0.866919   -0.422116
     13          6           0       -6.815405   -0.942976   -0.205210
     14          1           0       -4.926430    0.573053    1.136576
     15          1           0       -5.190736    1.285562   -0.452007
     16          1           0       -4.813216   -1.699039    0.098964
     17          1           0       -5.076889   -0.987701   -1.489140
     18          1           0       -7.322415   -0.132540   -0.738816
     19          1           0       -7.057243   -0.847919    0.858312
     20          1           0       -7.224985   -1.892879   -0.562684
     21          6           0        4.526769   -0.299733   -0.419400
     22          6           0        5.700112    0.333113    0.329437
     23          6           0        6.853063    0.720228   -0.597192
     24          1           0        4.880785   -1.189430   -0.957971
     25          1           0        4.165131    0.403931   -1.181941
     26          1           0        6.058540   -0.370988    1.091267
     27          1           0        5.343222    1.221297    0.866442
     28          1           0        6.517279    1.441392   -1.349370
     29          1           0        7.236661   -0.159941   -1.123268
     30          1           0        7.681120    1.170741   -0.041117
     31          6           0        3.366379   -0.692140    0.493420
     32          6           0        2.193036   -1.324986   -0.255416
     33          6           0        1.040085   -1.712101    0.671212
     34          1           0        3.728017   -1.395804    1.255961
     35          1           0        3.012364    0.197557    1.031991
     36          1           0        2.549926   -2.213170   -0.792421
     37          1           0        1.834607   -0.620884   -1.017247
     38          1           0        0.656487   -0.831932    1.197288
     39          1           0        1.375869   -2.433264    1.423391
     40          1           0        0.212027   -2.162614    0.115137
 ---------------------------------------------------------------------

 SCF Done:  E(RHF) =  -470.733292051     A.U. after   11 cycles
 E2 =    -0.1582614284D+01 EUMP2 =    -0.47231590633535D+03

 The electronic state is 1-A.
 Alpha  occ. eigenvalues --  -11.21605 -11.21592 -11.21580 -11.21576 -11.21392
 Alpha  occ. eigenvalues --  -11.21379 -11.21332 -11.21319 -11.21072 -11.21068
 Alpha  occ. eigenvalues --  -11.21063 -11.21053  -1.08425  -1.08403  -1.03545
 Alpha  occ. eigenvalues --   -1.03495  -0.96005  -0.95939  -0.87025  -0.86956
 Alpha  occ. eigenvalues --   -0.79621  -0.79547  -0.78239  -0.78212  -0.65092
 Alpha  occ. eigenvalues --   -0.65003  -0.61061  -0.60803  -0.59356  -0.59316
 Alpha  occ. eigenvalues --   -0.57623  -0.57546  -0.55447  -0.55096  -0.52680
 Alpha  occ. eigenvalues --   -0.52654  -0.52477  -0.52313  -0.50103  -0.49741
 Alpha  occ. eigenvalues --   -0.47981  -0.47807  -0.46747  -0.46471  -0.45816
 Alpha  occ. eigenvalues --   -0.45730  -0.45710  -0.45611  -0.43782  -0.43763
 Alpha virt. eigenvalues --    0.21130   0.23044   0.23587   0.25011   0.26153
 Alpha virt. eigenvalues --    0.26411   0.27202   0.27444   0.27944   0.29119
 Alpha virt. eigenvalues --    0.30253   0.31344   0.31520   0.31926   0.32123

 Mulliken charges:
               1
     1  C   -0.299214
     2  C   -0.299209
     3  C   -0.482179
     4  H    0.151127
     5  H    0.149307
     6  H    0.151846
     7  H    0.151906
     8  H    0.154965
     9  H    0.161546
    10  H    0.159852
    11  C   -0.298300
    12  C   -0.299689
    13  C   -0.475698
    14  H    0.149544
    15  H    0.149568
    16  H    0.152091
    17  H    0.151836
    18  H    0.155131
    19  H    0.155207
    20  H    0.160229
    21  C   -0.298335
    22  C   -0.299666
    23  C   -0.475701
    24  H    0.149494
    25  H    0.149794
    26  H    0.151809
    27  H    0.152066
    28  H    0.155215
    29  H    0.155106
    30  H    0.160178
    31  C   -0.298472
    32  C   -0.300062
    33  C   -0.479924
    34  H    0.149267
    35  H    0.150031
    36  H    0.151851
    37  H    0.153321
    38  H    0.158192
    39  H    0.155104
    40  H    0.160865
 Sum of Mulliken charges =  -0.00000

 Dipole moment (field-independent basis, Debye):
    X=              0.0008    Y=             -0.0060    Z=             -0.0013  Tot=              0.0062
 Quadrupole moment (field-independent basis, Debye-Ang):
   XX=            -86.6859   YY=            -83.9578   ZZ=            -84.2140
   XY=             -0.9575   XZ=              0.7661   YZ=             -0.3039

 Normal termination of Gaussian 16 at Thu May  6 02:12:21 2021.
