 Gaussian 16, Revision A.03,
 Gaussian 16:  EM64L-G16RevA.03 25-Dec-2016

 -------------
 #p 6-31g* mp2
 -------------

 ------------------------------------------------------
 Input file generated by CHIRIPA (05-May-2021 14:51:13)
 ------------------------------------------------------
 Symbolic Z-matrix:
 Charge =  0 Multiplicity = 1

                         Standard orientation:
 ---------------------------------------------------------------------
 Center     Atomic      Atomic             Coordinates (Angstroms)
 Number     Number       Type             X           Y           Z
 ---------------------------------------------------------------------
      1          6           0        2.994172   -0.366184   -0.546530
      2          6           0        3.232709   -1.796214   -0.060627
      3          6           0        2.390233   -2.825189   -0.815106
      4          1           0        1.928829   -0.121332   -0.436817
      5          1           0        3.219038   -0.308987   -1.620568
      6          1           0        3.008787   -1.850373    1.012472
      7          1           0        4.297642   -2.037623   -0.171331
      8          1           0        2.619299   -2.800400   -1.885393
      9          1           0        1.323120   -2.612086   -0.694864
     10          1           0        2.576456   -3.840642   -0.451737
     11          6           0        3.829266    0.673907    0.198155
     12          6           0        3.590729    2.103936   -0.287748
     13          6           0        4.433205    3.132912    0.466731
     14          1           0        3.604400    0.616710    1.272193
     15          1           0        4.894609    0.429055    0.088442
     16          1           0        2.525796    2.345346   -0.177044
     17          1           0        3.814651    2.158096   -1.360847
     18          1           0        5.500318    2.919809    0.346489
     19          1           0        4.204140    3.108122    1.537018
     20          1           0        4.246983    4.148364    0.103362
     21          6           0       -4.001703    0.052659   -0.264789
     22          6           0       -4.657687    1.361159    0.177363
     23          6           0       -5.836407    1.761077   -0.710601
     24          1           0       -3.661679    0.153414   -1.304586
     25          1           0       -4.754833   -0.747434   -0.258350
     26          1           0       -3.903223    2.158256    0.171420
     27          1           0       -4.996018    1.257342    1.216290
     28          1           0       -6.609524    0.986030   -0.696734
     29          1           0       -5.510521    1.892064   -1.747540
     30          1           0       -6.290481    2.699226   -0.376607
     31          6           0       -2.821735   -0.360383    0.613164
     32          6           0       -2.165752   -1.668882    0.171013
     33          6           0       -0.987031   -2.068799    1.058976
     34          1           0       -2.068605    0.439711    0.606725
     35          1           0       -3.161760   -0.461138    1.652960
     36          1           0       -1.827421   -1.565065   -0.867915
     37          1           0       -2.920216   -2.465980    0.176954
     38          1           0       -1.312918   -2.199786    2.095915
     39          1           0       -0.213914   -1.293753    1.045109
     40          1           0       -0.532957   -3.006948    0.724982
 ---------------------------------------------------------------------

 SCF Done:  E(RHF) =  -470.732735990     A.U. after   11 cycles
 E2 =    -0.1583170901D+01 EUMP2 =    -0.47231590689062D+03

 The electronic state is 1-A.
 Alpha  occ. eigenvalues --  -11.21662 -11.21626 -11.21612 -11.21551 -11.21447
 Alpha  occ. eigenvalues --  -11.21403 -11.21385 -11.21344 -11.21122 -11.21088
 Alpha  occ. eigenvalues --  -11.21077 -11.20930  -1.08477  -1.08414  -1.03598
 Alpha  occ. eigenvalues --   -1.03483  -0.96066  -0.95917  -0.87090  -0.86930
 Alpha  occ. eigenvalues --   -0.79664  -0.79544  -0.78285  -0.78231  -0.65179
 Alpha  occ. eigenvalues --   -0.64993  -0.61160  -0.60766  -0.59407  -0.59319
 Alpha  occ. eigenvalues --   -0.57697  -0.57521  -0.55445  -0.55116  -0.52780
 Alpha  occ. eigenvalues --   -0.52632  -0.52482  -0.52287  -0.50027  -0.49807
 Alpha  occ. eigenvalues --   -0.47950  -0.47868  -0.46719  -0.46543  -0.45852
 Alpha  occ. eigenvalues --   -0.45779  -0.45734  -0.45647  -0.43804  -0.43762
 Alpha virt. eigenvalues --    0.20441   0.23121   0.23637   0.25046   0.25952
 Alpha virt. eigenvalues --    0.26804   0.26969   0.27574   0.27974   0.29324
 Alpha virt. eigenvalues --    0.30839   0.31272   0.31608   0.31796   0.32123

 Mulliken charges:
               1
     1  C   -0.300677
     2  C   -0.299183
     3  C   -0.482772
     4  H    0.150252
     5  H    0.149610
     6  H    0.152447
     7  H    0.151785
     8  H    0.153962
     9  H    0.165056
    10  H    0.159068
    11  C   -0.298259
    12  C   -0.299535
    13  C   -0.475705
    14  H    0.149595
    15  H    0.149850
    16  H    0.151384
    17  H    0.151933
    18  H    0.155273
    19  H    0.155261
    20  H    0.160203
    21  C   -0.298369
    22  C   -0.299695
    23  C   -0.475742
    24  H    0.149879
    25  H    0.149696
    26  H    0.151919
    27  H    0.151964
    28  H    0.155239
    29  H    0.155282
    30  H    0.160333
    31  C   -0.298260
    32  C   -0.301467
    33  C   -0.482238
    34  H    0.149113
    35  H    0.149919
    36  H    0.152843
    37  H    0.152643
    38  H    0.156145
    39  H    0.157088
    40  H    0.164158
 Sum of Mulliken charges =  -0.00000

 Dipole moment (field-independent basis, Debye):
    X=             -0.0387    Y=             -0.0114    Z=              0.0132  Tot=              0.0425
 Quadrupole moment (field-independent basis, Debye-Ang):
   XX=            -84.8931   YY=            -85.4288   ZZ=            -84.4666
   XY=              0.2489   XZ=             -1.5934   YZ=             -0.4597

 Normal termination of Gaussian 16 at Thu May  6 02:22:18 2021.
