 Gaussian 16, Revision A.03,
 Gaussian 16:  EM64L-G16RevA.03 25-Dec-2016

 -------------
 #p 6-31g* mp2
 -------------

 ------------------------------------------------------
 Input file generated by CHIRIPA (05-May-2021 14:55:23)
 ------------------------------------------------------
 Symbolic Z-matrix:
 Charge =  0 Multiplicity = 1

                         Standard orientation:
 ---------------------------------------------------------------------
 Center     Atomic      Atomic             Coordinates (Angstroms)
 Number     Number       Type             X           Y           Z
 ---------------------------------------------------------------------
      1          6           0        4.011843   -2.258265   -0.347870
      2          6           0        4.445587   -1.085714   -0.975176
      3          6           0        3.803471    0.131232   -0.727633
      4          6           0        2.726044    0.139282    0.156887
      5          6           0        2.270373   -1.012017    0.797329
      6          6           0        2.927532   -2.217745    0.534824
      7          1           0        4.516497   -3.199261   -0.545979
      8          1           0        5.287409   -1.114193   -1.661156
      9          1           0        4.118507    1.053931   -1.199647
     10          1           0        1.428378   -0.952129    1.476207
     11          1           0        2.588505   -3.126796    1.023426
     12          7           0        2.038302    1.421670    0.426869
     13          8           0        1.091473    1.402169    1.210305
     14          8           0        2.459101    2.422025   -0.150066
     15          6           0       -3.739727   -0.574140    0.214282
     16          6           0       -4.635395   -1.542944   -0.558494
     17          6           0       -4.836627   -2.871638    0.170803
     18          1           0       -2.764609   -1.048199    0.391369
     19          1           0       -4.180757   -0.387519    1.203251
     20          1           0       -4.193522   -1.726601   -1.546235
     21          1           0       -5.608428   -1.066452   -0.733928
     22          1           0       -5.299127   -2.707717    1.149488
     23          1           0       -3.876182   -3.371617    0.332566
     24          1           0       -5.479994   -3.549091   -0.399281
     25          6           0       -3.529117    0.758642   -0.502002
     26          6           0       -2.633449    1.727447    0.270773
     27          6           0       -2.432217    3.056140   -0.458524
     28          1           0       -3.088087    0.572022   -1.490972
     29          1           0       -4.504234    1.232701   -0.679089
     30          1           0       -1.660416    1.250954    0.446208
     31          1           0       -3.075322    1.911104    1.258516
     32          1           0       -3.392663    3.556120   -0.620286
     33          1           0       -1.969717    2.892219   -1.437208
     34          1           0       -1.788850    3.733595    0.111561
 ---------------------------------------------------------------------

 SCF Done:  E(RHF) =  -669.536148495     A.U. after   15 cycles
 E2 =    -0.2091120875D+01 EUMP2 =    -0.67162726936985D+03

 The electronic state is 1-A.
 Alpha  occ. eigenvalues --  -20.60974 -20.60968 -15.85995 -11.31314 -11.27877
 Alpha  occ. eigenvalues --  -11.27873 -11.27612 -11.26883 -11.26873 -11.21280
 Alpha  occ. eigenvalues --  -11.20902 -11.20895 -11.20620 -11.20348 -11.19842
 Alpha  occ. eigenvalues --   -1.60029  -1.39585  -1.19483  -1.08887  -1.07776
 Alpha  occ. eigenvalues --   -1.04878  -1.02794  -0.95730  -0.95281  -0.86307
 Alpha  occ. eigenvalues --   -0.86278  -0.82564  -0.78913  -0.77638  -0.77490
 Alpha  occ. eigenvalues --   -0.72218  -0.71341  -0.70590  -0.65139  -0.64880
 Alpha  occ. eigenvalues --   -0.64419  -0.62225  -0.60196  -0.58694  -0.56840
 Alpha  occ. eigenvalues --   -0.55381  -0.54599  -0.53210  -0.52969  -0.51953
 Alpha  occ. eigenvalues --   -0.51705  -0.49269  -0.48983  -0.48974  -0.47215
 Alpha  occ. eigenvalues --   -0.46002  -0.45287  -0.45045  -0.44601  -0.43058
 Alpha  occ. eigenvalues --   -0.37460  -0.36480
 Alpha virt. eigenvalues --    0.04871   0.11174   0.16338   0.21258   0.23400
 Alpha virt. eigenvalues --    0.25076   0.26833   0.27381   0.27815   0.28577
 Alpha virt. eigenvalues --    0.28750   0.30857   0.31980   0.32198   0.32781

 Mulliken charges:
               1
     1  C   -0.170593
     2  C   -0.218547
     3  C   -0.170807
     4  C    0.158103
     5  C   -0.171194
     6  C   -0.218531
     7  H    0.226115
     8  H    0.223917
     9  H    0.275926
    10  H    0.275839
    11  H    0.224006
    12  N    0.488884
    13  O   -0.460066
    14  O   -0.458471
    15  C   -0.296179
    16  C   -0.298942
    17  C   -0.474784
    18  H    0.145357
    19  H    0.149277
    20  H    0.150353
    21  H    0.152063
    22  H    0.155195
    23  H    0.151664
    24  H    0.158856
    25  C   -0.297972
    26  C   -0.306194
    27  C   -0.474512
    28  H    0.146195
    29  H    0.146855
    30  H    0.169601
    31  H    0.148469
    32  H    0.147849
    33  H    0.151857
    34  H    0.170411
 Sum of Mulliken charges =  -0.00000

 Dipole moment (field-independent basis, Debye):
    X=              2.7080    Y=             -4.4316    Z=             -0.8885  Tot=              5.2689
 Quadrupole moment (field-independent basis, Debye-Ang):
   XX=            -80.1435   YY=            -96.3256   ZZ=            -93.6959
   XY=            -11.1435   XZ=             -5.1144   YZ=             -1.8008

 Normal termination of Gaussian 16 at Wed May  5 20:43:41 2021.
