 Gaussian 16, Revision A.03,
 Gaussian 16:  EM64L-G16RevA.03 25-Dec-2016

 -------------
 #p 6-31g* mp2
 -------------

 ------------------------------------------------------
 Input file generated by CHIRIPA (05-May-2021 14:53:12)
 ------------------------------------------------------
 Symbolic Z-matrix:
 Charge =  0 Multiplicity = 1

                         Standard orientation:
 ---------------------------------------------------------------------
 Center     Atomic      Atomic             Coordinates (Angstroms)
 Number     Number       Type             X           Y           Z
 ---------------------------------------------------------------------
      1          6           0       -4.353487   -0.205664    0.085837
      2          6           0       -5.871030   -0.260938   -0.093034
      3          6           0       -6.417773   -1.688583   -0.066651
      4          1           0       -3.875456   -0.797598   -0.706655
      5          1           0       -4.085843   -0.684249    1.038054
      6          1           0       -6.135853    0.218840   -1.043980
      7          1           0       -6.345496    0.331354    0.699863
      8          1           0       -6.182359   -2.173712    0.886151
      9          1           0       -5.971524   -2.286866   -0.867601
     10          1           0       -7.504421   -1.704788   -0.196241
     11          6           0       -3.791976    1.214847    0.061689
     12          6           0       -2.274433    1.270121    0.240561
     13          6           0       -1.727690    2.697766    0.214177
     14          1           0       -4.059620    1.693432   -0.890528
     15          1           0       -4.270007    1.806781    0.854182
     16          1           0       -1.799967    0.677829   -0.552337
     17          1           0       -2.009610    0.790343    1.191507
     18          1           0       -2.173939    3.296049    1.015127
     19          1           0       -1.963104    3.182895   -0.738624
     20          1           0       -0.641042    2.713971    0.343768
     21          6           0        5.312129    0.954444    0.036404
     22          6           0        5.339312   -0.417108    0.309586
     23          6           0        4.165066   -1.174262    0.260449
     24          6           0        2.975871   -0.524595   -0.066718
     25          6           0        2.916388    0.840270   -0.344021
     26          6           0        4.102885    1.577656   -0.288954
     27          1           0        6.229070    1.534941    0.076877
     28          1           0        6.276983   -0.903762    0.562540
     29          1           0        4.157522   -2.237523    0.467415
     30          1           0        1.966464    1.297376   -0.593249
     31          1           0        4.078778    2.642668   -0.501584
     32          7           0        1.726265   -1.315697   -0.121875
     33          8           0        0.691421   -0.719690   -0.412584
     34          8           0        1.805328   -2.516789    0.126645
 ---------------------------------------------------------------------

 SCF Done:  E(RHF) =  -669.535813038     A.U. after   15 cycles
 E2 =    -0.2091196415D+01 EUMP2 =    -0.67162700945315D+03

 The electronic state is 1-A.
 Alpha  occ. eigenvalues --  -20.60871 -20.60865 -15.85915 -11.31255 -11.27821
 Alpha  occ. eigenvalues --  -11.27818 -11.27561 -11.26833 -11.26823 -11.20899
 Alpha  occ. eigenvalues --  -11.20553 -11.20536 -11.20473 -11.20430 -11.20420
 Alpha  occ. eigenvalues --   -1.59939  -1.39494  -1.19425  -1.08826  -1.07577
 Alpha  occ. eigenvalues --   -1.04825  -1.02743  -0.95667  -0.95255  -0.86278
 Alpha  occ. eigenvalues --   -0.86221  -0.82503  -0.78779  -0.77576  -0.77314
 Alpha  occ. eigenvalues --   -0.72138  -0.71256  -0.70534  -0.65083  -0.64828
 Alpha  occ. eigenvalues --   -0.64210  -0.62175  -0.60142  -0.58613  -0.56839
 Alpha  occ. eigenvalues --   -0.55328  -0.54559  -0.53156  -0.52920  -0.51985
 Alpha  occ. eigenvalues --   -0.51666  -0.49199  -0.48900  -0.48891  -0.47093
 Alpha  occ. eigenvalues --   -0.45784  -0.45002  -0.44814  -0.44776  -0.43003
 Alpha  occ. eigenvalues --   -0.37406  -0.36427
 Alpha virt. eigenvalues --    0.04974   0.11219   0.16473   0.20745   0.23448
 Alpha virt. eigenvalues --    0.24238   0.26692   0.27490   0.27687   0.28536
 Alpha virt. eigenvalues --    0.29202   0.30499   0.31515   0.32119   0.32655

 Mulliken charges:
               1
     1  C   -0.297990
     2  C   -0.299117
     3  C   -0.475244
     4  H    0.155071
     5  H    0.150688
     6  H    0.149849
     7  H    0.149408
     8  H    0.155231
     9  H    0.156230
    10  H    0.157395
    11  C   -0.298843
    12  C   -0.301690
    13  C   -0.475430
    14  H    0.145691
    15  H    0.144861
    16  H    0.173634
    17  H    0.153314
    18  H    0.152009
    19  H    0.151608
    20  H    0.151364
    21  C   -0.170605
    22  C   -0.218626
    23  C   -0.170629
    24  C    0.157472
    25  C   -0.173004
    26  C   -0.218984
    27  H    0.225872
    28  H    0.223667
    29  H    0.275728
    30  H    0.278471
    31  H    0.224002
    32  N    0.494259
    33  O   -0.466022
    34  O   -0.459639
 Sum of Mulliken charges =  -0.00000

 Dipole moment (field-independent basis, Debye):
    X=              4.5931    Y=              2.6073    Z=              0.1544  Tot=              5.2838
 Quadrupole moment (field-independent basis, Debye-Ang):
   XX=            -68.8359   YY=            -96.0091   ZZ=            -94.3467
   XY=              3.5524   XZ=              1.0151   YZ=             -1.4868

 Normal termination of Gaussian 16 at Thu May  6 08:49:21 2021.
