 Gaussian 16, Revision A.03,
 Gaussian 16:  EM64L-G16RevA.03 25-Dec-2016

 -------------
 #p 6-31g* mp2
 -------------

 ------------------------------------------------------
 Input file generated by CHIRIPA (05-May-2021 14:51:09)
 ------------------------------------------------------
 Symbolic Z-matrix:
 Charge =  0 Multiplicity = 1

                         Standard orientation:
 ---------------------------------------------------------------------
 Center     Atomic      Atomic             Coordinates (Angstroms)
 Number     Number       Type             X           Y           Z
 ---------------------------------------------------------------------
      1          6           0        1.934508   -1.231926    0.632575
      2          6           0        1.085678   -2.452383    0.274862
      3          6           0        0.556169   -3.185995    1.507431
      4          1           0        2.777063   -1.550785    1.261364
      5          1           0        1.333856   -0.541889    1.241231
      6          1           0        1.687317   -3.139269   -0.334099
      7          1           0        0.245152   -2.130610   -0.353306
      8          1           0       -0.066419   -2.520382    2.114015
      9          1           0        1.383940   -3.534771    2.133332
     10          1           0       -0.047929   -4.055032    1.228682
     11          6           0        2.471058   -0.488039   -0.589093
     12          6           0        3.319888    0.732418   -0.231379
     13          6           0        3.849397    1.466030   -1.463949
     14          1           0        3.071710   -1.178076   -1.197748
     15          1           0        1.628503   -0.169180   -1.217881
     16          1           0        4.160414    0.410645    0.396789
     17          1           0        2.718249    1.419304    0.377582
     18          1           0        3.021626    1.814806   -2.089849
     19          1           0        4.471985    0.800417   -2.070532
     20          1           0        4.453495    2.335067   -1.185199
     21          6           0       -2.294250    0.102603   -0.059707
     22          6           0       -3.357795   -0.329861   -1.069574
     23          6           0       -3.529223   -1.847837   -1.134046
     24          1           0       -1.335780   -0.365207   -0.323213
     25          1           0       -2.565618   -0.279223    0.934256
     26          1           0       -3.085219    0.053840   -2.061083
     27          1           0       -4.313800    0.139185   -0.803744
     28          1           0       -3.824790   -2.243979   -0.157156
     29          1           0       -2.589227   -2.329808   -1.421638
     30          1           0       -4.294299   -2.134888   -1.862139
     31          6           0       -2.111316    1.617363    0.016224
     32          6           0       -1.047771    2.049826    1.026091
     33          6           0       -0.876343    3.567802    1.090562
     34          1           0       -1.839949    1.999188   -0.977740
     35          1           0       -3.069786    2.085172    0.279729
     36          1           0       -0.091765    1.580780    0.760262
     37          1           0       -1.320348    1.666125    2.017601
     38          1           0       -1.816339    4.049773    1.378156
     39          1           0       -0.580777    3.963943    0.113673
     40          1           0       -0.111266    3.854853    1.818656
 ---------------------------------------------------------------------

 SCF Done:  E(RHF) =  -470.732942263     A.U. after   11 cycles
 E2 =    -0.1585041815D+01 EUMP2 =    -0.47231798407770D+03

 The electronic state is 1-A.
 Alpha  occ. eigenvalues --  -11.21682 -11.21653 -11.21637 -11.21576 -11.21470
 Alpha  occ. eigenvalues --  -11.21431 -11.21408 -11.21345 -11.21136 -11.21110
 Alpha  occ. eigenvalues --  -11.21101 -11.21032  -1.08537  -1.08416  -1.03603
 Alpha  occ. eigenvalues --   -1.03528  -0.96039  -0.95983  -0.87057  -0.86998
 Alpha  occ. eigenvalues --   -0.79686  -0.79587  -0.78332  -0.78259  -0.65464
 Alpha  occ. eigenvalues --   -0.64782  -0.61128  -0.60823  -0.59414  -0.59343
 Alpha  occ. eigenvalues --   -0.57662  -0.57581  -0.55333  -0.55270  -0.52731
 Alpha  occ. eigenvalues --   -0.52676  -0.52487  -0.52384  -0.50029  -0.49897
 Alpha  occ. eigenvalues --   -0.48062  -0.47893  -0.46845  -0.46659  -0.46175
 Alpha  occ. eigenvalues --   -0.45822  -0.45569  -0.45286  -0.43846  -0.43789
 Alpha virt. eigenvalues --    0.19125   0.21885   0.23779   0.24774   0.25448
 Alpha virt. eigenvalues --    0.26308   0.26798   0.27353   0.28286   0.30058
 Alpha virt. eigenvalues --    0.31316   0.31635   0.31689   0.31802   0.32466

 Mulliken charges:
               1
     1  C   -0.303225
     2  C   -0.304721
     3  C   -0.475773
     4  H    0.150071
     5  H    0.154293
     6  H    0.151924
     7  H    0.155940
     8  H    0.156133
     9  H    0.154889
    10  H    0.160335
    11  C   -0.299181
    12  C   -0.302418
    13  C   -0.475481
    14  H    0.150116
    15  H    0.148683
    16  H    0.152429
    17  H    0.153915
    18  H    0.154786
    19  H    0.155319
    20  H    0.160522
    21  C   -0.307305
    22  C   -0.299380
    23  C   -0.477404
    24  H    0.158161
    25  H    0.149617
    26  H    0.151793
    27  H    0.152293
    28  H    0.155651
    29  H    0.156402
    30  H    0.160576
    31  C   -0.297315
    32  C   -0.307887
    33  C   -0.475463
    34  H    0.149233
    35  H    0.150180
    36  H    0.158975
    37  H    0.151929
    38  H    0.155629
    39  H    0.155324
    40  H    0.160435
 Sum of Mulliken charges =  -0.00000

 Dipole moment (field-independent basis, Debye):
    X=             -0.0159    Y=              0.0071    Z=              0.0126  Tot=              0.0215
 Quadrupole moment (field-independent basis, Debye-Ang):
   XX=            -83.7465   YY=            -86.0021   ZZ=            -84.8969
   XY=             -1.0483   XZ=             -0.1811   YZ=              0.3662

 Normal termination of Gaussian 16 at Wed May  5 18:10:51 2021.
