 Gaussian 16, Revision A.03,
 Gaussian 16:  EM64L-G16RevA.03 25-Dec-2016

 -------------
 #p 6-31g* mp2
 -------------

 ------------------------------------------------------
 Input file generated by CHIRIPA (05-May-2021 14:57:24)
 ------------------------------------------------------
 Symbolic Z-matrix:
 Charge =  0 Multiplicity = 1

                         Standard orientation:
 ---------------------------------------------------------------------
 Center     Atomic      Atomic             Coordinates (Angstroms)
 Number     Number       Type             X           Y           Z
 ---------------------------------------------------------------------
      1          6           0       -1.468159    1.692255    0.016961
      2          6           0       -2.800790    2.106440    0.112175
      3          6           0       -3.839868    1.172409    0.062665
      4          6           0       -3.508748   -0.173813   -0.083397
      5          6           0       -2.190889   -0.617687   -0.180930
      6          6           0       -1.167991    0.333908   -0.129030
      7          1           0       -0.667262    2.424655    0.056350
      8          1           0       -3.036869    3.160691    0.225610
      9          1           0       -4.880259    1.465518    0.134022
     10          1           0       -1.986793   -1.675567   -0.293416
     11          1           0       -0.133965    0.009359   -0.203222
     12          7           0       -4.600209   -1.171927   -0.137076
     13          8           0       -4.282118   -2.352083   -0.266256
     14          8           0       -5.753121   -0.755194   -0.048952
     15          6           0        2.238971    2.283718    0.146253
     16          6           0        1.944022    1.334808    1.130680
     17          6           0        2.541995    0.071444    1.100903
     18          6           0        3.434229   -0.210568    0.067618
     19          6           0        3.748489    0.713546   -0.927642
     20          6           0        3.138677    1.970609   -0.877961
     21          1           0        1.769852    3.262682    0.177115
     22          1           0        1.245684    1.575202    1.927286
     23          1           0        2.331651   -0.681971    1.850262
     24          1           0        4.448685    0.444726   -1.709230
     25          1           0        3.369623    2.705574   -1.643818
     26          7           0        4.073543   -1.544701    0.025558
     27          8           0        4.856175   -1.768517   -0.895328
     28          8           0        3.779901   -2.341316    0.914274
 ---------------------------------------------------------------------

 SCF Done:  E(RHF) =  -868.335051044     A.U. after   16 cycles
 E2 =    -0.2603892078D+01 EUMP2 =    -0.87093894312249D+03

 The electronic state is 1-A.
 Alpha  occ. eigenvalues --  -20.61666 -20.61660 -20.60976 -20.60965 -15.86726
 Alpha  occ. eigenvalues --  -15.86025 -11.32400 -11.31493 -11.28929 -11.28890
 Alpha  occ. eigenvalues --  -11.28777 -11.28066 -11.28042 -11.28008 -11.27991
 Alpha  occ. eigenvalues --  -11.27860 -11.27169 -11.26946  -1.60736  -1.60046
 Alpha  occ. eigenvalues --   -1.40279  -1.39596  -1.20601  -1.19666  -1.09962
 Alpha  occ. eigenvalues --   -1.09063  -1.06014  -1.05058  -0.96734  -0.95884
 Alpha  occ. eigenvalues --   -0.87400  -0.86463  -0.83529  -0.82699  -0.78511
 Alpha  occ. eigenvalues --   -0.77715  -0.72934  -0.72243  -0.72070  -0.71800
 Alpha  occ. eigenvalues --   -0.71370  -0.70784  -0.66215  -0.65979  -0.65308
 Alpha  occ. eigenvalues --   -0.65102  -0.63290  -0.62428  -0.56593  -0.55608
 Alpha  occ. eigenvalues --   -0.54438  -0.54062  -0.53399  -0.52997  -0.49716
 Alpha  occ. eigenvalues --   -0.49672  -0.49009  -0.48992  -0.45616  -0.44978
 Alpha  occ. eigenvalues --   -0.38614  -0.37908  -0.37417  -0.36608
 Alpha virt. eigenvalues --    0.03931   0.04766   0.09859   0.11008   0.15331
 Alpha virt. eigenvalues --    0.16196   0.19292   0.21904   0.25466   0.26336
 Alpha virt. eigenvalues --    0.27282   0.29139   0.30030   0.31150   0.32353

 Mulliken charges:
               1
     1  C   -0.176341
     2  C   -0.218655
     3  C   -0.171335
     4  C    0.159466
     5  C   -0.172606
     6  C   -0.225157
     7  H    0.215317
     8  H    0.221905
     9  H    0.276197
    10  H    0.278743
    11  H    0.234266
    12  N    0.487788
    13  O   -0.458106
    14  O   -0.460097
    15  C   -0.178915
    16  C   -0.225176
    17  C   -0.179846
    18  C    0.161093
    19  C   -0.170775
    20  C   -0.216262
    21  H    0.224012
    22  H    0.230041
    23  H    0.280988
    24  H    0.280294
    25  H    0.228383
    26  N    0.487735
    27  O   -0.456105
    28  O   -0.456854
 Sum of Mulliken charges =  -0.00000

 Dipole moment (field-independent basis, Debye):
    X=              1.9214    Y=              7.9980    Z=              0.2879  Tot=              8.2305
 Quadrupole moment (field-independent basis, Debye-Ang):
   XX=           -143.3336   YY=           -106.0339   ZZ=           -102.2298
   XY=              1.6714   XZ=             -3.4994   YZ=             -0.9990

 Normal termination of Gaussian 16 at Thu May  6 03:29:31 2021.
