 Gaussian 16, Revision A.03,
 Gaussian 16:  EM64L-G16RevA.03 25-Dec-2016

 -------------
 #p 6-31g* mp2
 -------------

 ------------------------------------------------------
 Input file generated by CHIRIPA (05-May-2021 14:57:23)
 ------------------------------------------------------
 Symbolic Z-matrix:
 Charge =  0 Multiplicity = 1

                         Standard orientation:
 ---------------------------------------------------------------------
 Center     Atomic      Atomic             Coordinates (Angstroms)
 Number     Number       Type             X           Y           Z
 ---------------------------------------------------------------------
      1          6           0        5.624073    0.897539   -0.536519
      2          6           0        4.793790    1.666604    0.285485
      3          6           0        3.572391    1.157325    0.736449
      4          6           0        3.210923   -0.130639    0.344301
      5          6           0        4.016348   -0.921421   -0.473772
      6          6           0        5.233390   -0.391746   -0.912861
      7          1           0        6.571192    1.301082   -0.882226
      8          1           0        5.094630    2.668195    0.579347
      9          1           0        2.910373    1.731052    1.373620
     10          1           0        3.689384   -1.916527   -0.749957
     11          1           0        5.876182   -0.991281   -1.551156
     12          7           0        1.920188   -0.680587    0.815431
     13          8           0        1.624589   -1.818096    0.455806
     14          8           0        1.228550    0.036288    1.535406
     15          6           0       -5.770101    0.727494    0.355801
     16          6           0       -5.365656   -0.602389    0.511862
     17          6           0       -4.067967   -0.994607    0.170227
     18          6           0       -3.196805   -0.026463   -0.326830
     19          6           0       -3.569977    1.306262   -0.493797
     20          6           0       -4.872553    1.675904   -0.145646
     21          1           0       -6.780076    1.023410    0.623722
     22          1           0       -6.060569   -1.341084    0.901056
     23          1           0       -3.728575   -2.017339    0.280915
     24          1           0       -2.854753    2.019999   -0.884247
     25          1           0       -5.183895    2.709423   -0.267906
     26          7           0       -1.820413   -0.429736   -0.691953
     27          8           0       -1.071915    0.442305   -1.127765
     28          8           0       -1.516155   -1.610227   -0.535411
 ---------------------------------------------------------------------

 SCF Done:  E(RHF) =  -868.336325702     A.U. after   16 cycles
 E2 =    -0.2601079870D+01 EUMP2 =    -0.87093740557251D+03

 The electronic state is 1-A.
 Alpha  occ. eigenvalues --  -20.59608 -20.59511 -20.59392 -20.59292 -15.84619
 Alpha  occ. eigenvalues --  -15.84408 -11.30296 -11.30122 -11.26928 -11.26887
 Alpha  occ. eigenvalues --  -11.26758 -11.26736 -11.26725 -11.26585 -11.26024
 Alpha  occ. eigenvalues --  -11.25997 -11.25872 -11.25849  -1.58610  -1.58377
 Alpha  occ. eigenvalues --   -1.38164  -1.37938  -1.18502  -1.18333  -1.07844
 Alpha  occ. eigenvalues --   -1.07665  -1.03961  -1.03802  -0.94633  -0.94440
 Alpha  occ. eigenvalues --   -0.85346  -0.85185  -0.81471  -0.81290  -0.76456
 Alpha  occ. eigenvalues --   -0.76269  -0.70906  -0.70591  -0.70059  -0.69632
 Alpha  occ. eigenvalues --   -0.69529  -0.69466  -0.64160  -0.63997  -0.63979
 Alpha  occ. eigenvalues --   -0.63827  -0.61311  -0.61154  -0.54473  -0.54315
 Alpha  occ. eigenvalues --   -0.52266  -0.52096  -0.52069  -0.51915  -0.47841
 Alpha  occ. eigenvalues --   -0.47617  -0.47391  -0.47135  -0.43656  -0.43076
 Alpha  occ. eigenvalues --   -0.36503  -0.36328  -0.35577  -0.35419
 Alpha virt. eigenvalues --    0.06094   0.06335   0.12074   0.12233   0.17533
 Alpha virt. eigenvalues --    0.17734   0.22120   0.22254   0.28001   0.28129
 Alpha virt. eigenvalues --    0.29047   0.29187   0.31628   0.31761   0.33314

 Mulliken charges:
               1
     1  C   -0.172196
     2  C   -0.218751
     3  C   -0.169986
     4  C    0.163638
     5  C   -0.169953
     6  C   -0.218730
     7  H    0.221552
     8  H    0.219274
     9  H    0.273168
    10  H    0.276072
    11  H    0.220255
    12  N    0.492640
    13  O   -0.448799
    14  O   -0.468332
    15  C   -0.171988
    16  C   -0.218679
    17  C   -0.170194
    18  C    0.162126
    19  C   -0.170548
    20  C   -0.218668
    21  H    0.222288
    22  H    0.221031
    23  H    0.276758
    24  H    0.273217
    25  H    0.219898
    26  N    0.491321
    27  O   -0.469250
    28  O   -0.447164
 Sum of Mulliken charges =  -0.00000

 Dipole moment (field-independent basis, Debye):
    X=             -0.3540    Y=              3.0301    Z=             -0.3791  Tot=              3.0742
 Quadrupole moment (field-independent basis, Debye-Ang):
   XX=            -48.2778   YY=            -97.5618   ZZ=           -107.0262
   XY=              1.4578   XZ=             -7.5110   YZ=              1.3870

 Normal termination of Gaussian 16 at Fri May  7 03:20:45 2021.
