 Gaussian 16, Revision A.03,
 Gaussian 16:  EM64L-G16RevA.03 25-Dec-2016

 -------------
 #p 6-31g* mp2
 -------------

 ------------------------------------------------------
 Input file generated by CHIRIPA (05-May-2021 14:55:19)
 ------------------------------------------------------
 Symbolic Z-matrix:
 Charge =  0 Multiplicity = 1

                         Standard orientation:
 ---------------------------------------------------------------------
 Center     Atomic      Atomic             Coordinates (Angstroms)
 Number     Number       Type             X           Y           Z
 ---------------------------------------------------------------------
      1          6           0       -0.965713    0.316026    1.317547
      2          6           0       -1.718264   -0.805254    1.682129
      3          6           0       -2.929225   -1.086215    1.042455
      4          6           0       -3.359633   -0.220740    0.037969
      5          6           0       -2.632447    0.904292   -0.347768
      6          6           0       -1.424398    1.165722    0.305546
      7          1           0       -0.026141    0.526697    1.819759
      8          1           0       -1.364503   -1.466888    2.467711
      9          1           0       -3.531764   -1.947326    1.304852
     10          1           0       -3.011008    1.545420   -1.134575
     11          1           0       -0.842047    2.037251    0.020327
     12          7           0       -4.640082   -0.507843   -0.646445
     13          8           0       -4.997394    0.270194   -1.528275
     14          8           0       -5.262140   -1.505475   -0.288101
     15          6           0        4.274287   -0.402745   -0.558465
     16          6           0        5.483003   -1.061360    0.107282
     17          6           0        5.959623   -2.309911   -0.635513
     18          1           0        3.454147   -1.131304   -0.617774
     19          1           0        4.533100   -0.138530   -1.593164
     20          1           0        5.222430   -1.323001    1.140850
     21          1           0        6.300296   -0.331090    0.165187
     22          1           0        6.246342   -2.061278   -1.662438
     23          1           0        5.162352   -3.058825   -0.681231
     24          1           0        6.824449   -2.764727   -0.142484
     25          6           0        3.786128    0.846705    0.172497
     26          6           0        2.577413    1.505320   -0.493251
     27          6           0        2.100792    2.753871    0.249545
     28          1           0        3.527315    0.582490    1.207195
     29          1           0        4.606267    1.575264    0.231806
     30          1           0        1.760120    0.775050   -0.551155
     31          1           0        2.837986    1.766960   -1.526819
     32          1           0        2.898064    3.502785    0.295263
     33          1           0        1.814073    2.505238    1.276469
     34          1           0        1.235966    3.208686   -0.243485
 ---------------------------------------------------------------------

 SCF Done:  E(RHF) =  -669.535167259     A.U. after   15 cycles
 E2 =    -0.2092317313D+01 EUMP2 =    -0.67162748457201D+03

 The electronic state is 1-A.
 Alpha  occ. eigenvalues --  -20.60746 -20.60740 -15.85798 -11.31165 -11.27731
 Alpha  occ. eigenvalues --  -11.27711 -11.27460 -11.26751 -11.26682 -11.22638
 Alpha  occ. eigenvalues --  -11.22443 -11.22298 -11.22199 -11.22070 -11.21549
 Alpha  occ. eigenvalues --   -1.59821  -1.39374  -1.19332  -1.09277  -1.08726
 Alpha  occ. eigenvalues --   -1.04739  -1.04397  -0.96873  -0.95561  -0.87886
 Alpha  occ. eigenvalues --   -0.86125  -0.82394  -0.80461  -0.79031  -0.77444
 Alpha  occ. eigenvalues --   -0.72017  -0.71143  -0.70460  -0.65942  -0.64979
 Alpha  occ. eigenvalues --   -0.64768  -0.62193  -0.61714  -0.60231  -0.58446
 Alpha  occ. eigenvalues --   -0.56162  -0.55224  -0.53619  -0.53311  -0.53066
 Alpha  occ. eigenvalues --   -0.52697  -0.50798  -0.48806  -0.48771  -0.48732
 Alpha  occ. eigenvalues --   -0.47496  -0.46579  -0.46485  -0.44780  -0.44636
 Alpha  occ. eigenvalues --   -0.37300  -0.36328
 Alpha virt. eigenvalues --    0.05074   0.11226   0.16544   0.18891   0.22543
 Alpha virt. eigenvalues --    0.24038   0.24703   0.25957   0.26592   0.27563
 Alpha virt. eigenvalues --    0.29120   0.30091   0.31287   0.31446   0.32503

 Mulliken charges:
               1
     1  C   -0.175407
     2  C   -0.219022
     3  C   -0.171180
     4  C    0.158833
     5  C   -0.172782
     6  C   -0.222280
     7  H    0.228098
     8  H    0.223204
     9  H    0.275431
    10  H    0.275838
    11  H    0.232530
    12  N    0.488020
    13  O   -0.460381
    14  O   -0.460554
    15  C   -0.299071
    16  C   -0.300070
    17  C   -0.476171
    18  H    0.150545
    19  H    0.152159
    20  H    0.150966
    21  H    0.153167
    22  H    0.156657
    23  H    0.155850
    24  H    0.161828
    25  C   -0.297931
    26  C   -0.306477
    27  C   -0.481961
    28  H    0.145032
    29  H    0.152789
    30  H    0.154079
    31  H    0.157592
    32  H    0.164433
    33  H    0.149481
    34  H    0.156756
 Sum of Mulliken charges =  -0.00000

 Dipole moment (field-independent basis, Debye):
    X=              4.7291    Y=              1.0109    Z=              2.3333  Tot=              5.3695
 Quadrupole moment (field-independent basis, Debye-Ang):
   XX=           -124.7431   YY=            -92.5039   ZZ=            -93.3729
   XY=             -2.9839   XZ=             -8.7715   YZ=             -3.9966

 Normal termination of Gaussian 16 at Thu May  6 06:05:36 2021.
