 Gaussian 16, Revision A.03,
 Gaussian 16:  EM64L-G16RevA.03 25-Dec-2016

 -------------
 #p 6-31g* mp2
 -------------

 ------------------------------------------------------
 Input file generated by CHIRIPA (05-May-2021 14:51:11)
 ------------------------------------------------------
 Symbolic Z-matrix:
 Charge =  0 Multiplicity = 1

                         Standard orientation:
 ---------------------------------------------------------------------
 Center     Atomic      Atomic             Coordinates (Angstroms)
 Number     Number       Type             X           Y           Z
 ---------------------------------------------------------------------
      1          6           0        2.988257    0.460132   -0.403539
      2          6           0        3.374974    1.936888   -0.490868
      3          6           0        2.184137    2.842087   -0.807594
      4          1           0        2.532782    0.150113   -1.354000
      5          1           0        2.216236    0.335488    0.368369
      6          1           0        4.147031    2.058505   -1.261422
      7          1           0        3.829756    2.243377    0.459844
      8          1           0        1.414155    2.750259   -0.034744
      9          1           0        1.733233    2.564336   -1.765791
     10          1           0        2.483136    3.893333   -0.865390
     11          6           0        4.168081   -0.457405   -0.087518
     12          6           0        3.781363   -1.934161   -0.000190
     13          6           0        4.972201   -2.839359    0.316536
     14          1           0        4.940102   -0.332760   -0.859427
     15          1           0        4.623556   -0.147386    0.862942
     16          1           0        3.326582   -2.240650   -0.950902
     17          1           0        3.009307   -2.055777    0.770364
     18          1           0        5.423105   -2.561609    1.274733
     19          1           0        5.742183   -2.747532   -0.456314
     20          1           0        4.673202   -3.890606    0.374332
     21          6           0       -3.948955   -0.493717   -0.205623
     22          6           0       -5.469848   -0.413418   -0.069899
     23          6           0       -6.197597   -1.404465   -0.978745
     24          1           0       -3.670189   -0.306962   -1.251739
     25          1           0       -3.620458   -1.515998    0.027667
     26          1           0       -5.795239    0.608760   -0.302031
     27          1           0       -5.745012   -0.600197    0.976052
     28          1           0       -5.901532   -2.431903   -0.743549
     29          1           0       -5.952045   -1.216076   -2.028895
     30          1           0       -7.283660   -1.330031   -0.865657
     31          6           0       -3.207383    0.490990    0.696681
     32          6           0       -1.686490    0.410692    0.560957
     33          6           0       -0.958740    1.401738    1.469803
     34          1           0       -3.535880    1.513271    0.463391
     35          1           0       -3.486149    0.304234    1.742797
     36          1           0       -1.411326    0.597470   -0.484994
     37          1           0       -1.361099   -0.611488    0.793090
     38          1           0       -1.204294    1.213348    2.519953
     39          1           0       -1.254806    2.429176    1.234607
     40          1           0        0.127321    1.327304    1.356714
 ---------------------------------------------------------------------

 SCF Done:  E(RHF) =  -470.732796230     A.U. after   11 cycles
 E2 =    -0.1583211658D+01 EUMP2 =    -0.47231600788766D+03

 The electronic state is 1-A.
 Alpha  occ. eigenvalues --  -11.21600 -11.21600 -11.21599 -11.21582 -11.21405
 Alpha  occ. eigenvalues --  -11.21403 -11.21346 -11.21343 -11.21084 -11.21070
 Alpha  occ. eigenvalues --  -11.21069 -11.20984  -1.08443  -1.08414  -1.03561
 Alpha  occ. eigenvalues --   -1.03492  -0.96013  -0.95943  -0.87040  -0.86955
 Alpha  occ. eigenvalues --   -0.79635  -0.79542  -0.78253  -0.78230  -0.65084
 Alpha  occ. eigenvalues --   -0.65052  -0.61013  -0.60889  -0.59493  -0.59204
 Alpha  occ. eigenvalues --   -0.57639  -0.57531  -0.55375  -0.55163  -0.52753
 Alpha  occ. eigenvalues --   -0.52646  -0.52420  -0.52362  -0.50021  -0.49809
 Alpha  occ. eigenvalues --   -0.47985  -0.47826  -0.46665  -0.46549  -0.45798
 Alpha  occ. eigenvalues --   -0.45754  -0.45714  -0.45676  -0.43781  -0.43725
 Alpha virt. eigenvalues --    0.21047   0.23087   0.23553   0.25026   0.26108
 Alpha virt. eigenvalues --    0.26636   0.27030   0.27472   0.27859   0.29230
 Alpha virt. eigenvalues --    0.30839   0.31271   0.31600   0.31875   0.32055

 Mulliken charges:
               1
     1  C   -0.303868
     2  C   -0.299459
     3  C   -0.482291
     4  H    0.149908
     5  H    0.153970
     6  H    0.151886
     7  H    0.151609
     8  H    0.163102
     9  H    0.154350
    10  H    0.159878
    11  C   -0.297920
    12  C   -0.299635
    13  C   -0.475715
    14  H    0.149688
    15  H    0.149617
    16  H    0.152056
    17  H    0.151823
    18  H    0.155181
    19  H    0.155204
    20  H    0.160219
    21  C   -0.298276
    22  C   -0.299666
    23  C   -0.475706
    24  H    0.149734
    25  H    0.149540
    26  H    0.151968
    27  H    0.151907
    28  H    0.155171
    29  H    0.155188
    30  H    0.160245
    31  C   -0.298535
    32  C   -0.299377
    33  C   -0.483913
    34  H    0.149719
    35  H    0.149573
    36  H    0.153276
    37  H    0.151825
    38  H    0.155198
    39  H    0.155778
    40  H    0.166748
 Sum of Mulliken charges =  -0.00000

 Dipole moment (field-independent basis, Debye):
    X=             -0.0168    Y=             -0.0049    Z=              0.0035  Tot=              0.0179
 Quadrupole moment (field-independent basis, Debye-Ang):
   XX=            -85.8634   YY=            -85.3668   ZZ=            -83.6462
   XY=              0.0622   XZ=             -0.6913   YZ=             -0.6093

 Normal termination of Gaussian 16 at Thu May  6 02:14:28 2021.
