 Gaussian 16, Revision A.03,
 Gaussian 16:  EM64L-G16RevA.03 25-Dec-2016

 -------------
 #p 6-31g* mp2
 -------------

 ------------------------------------------------------
 Input file generated by CHIRIPA (05-May-2021 14:55:24)
 ------------------------------------------------------
 Symbolic Z-matrix:
 Charge =  0 Multiplicity = 1

                         Standard orientation:
 ---------------------------------------------------------------------
 Center     Atomic      Atomic             Coordinates (Angstroms)
 Number     Number       Type             X           Y           Z
 ---------------------------------------------------------------------
      1          6           0        0.692426   -1.141930    0.782548
      2          6           0        1.501339   -1.955923   -0.017199
      3          6           0        2.791301   -1.547959   -0.369492
      4          6           0        3.242379   -0.314393    0.097557
      5          6           0        2.460410    0.519012    0.895838
      6          6           0        1.173695    0.090767    1.235715
      7          1           0       -0.308387   -1.466724    1.051395
      8          1           0        1.130208   -2.913751   -0.370573
      9          1           0        3.438687   -2.158357   -0.987330
     10          1           0        2.858072    1.468560    1.232946
     11          1           0        0.547699    0.724997    1.856945
     12          7           0        4.606285    0.128236   -0.268827
     13          8           0        4.980299    1.219452    0.155436
     14          8           0        5.275476   -0.624428   -0.973325
     15          6           0       -3.179662    0.687546   -0.485672
     16          6           0       -2.673763    2.040996    0.014551
     17          6           0       -1.306519    2.410675   -0.561450
     18          1           0       -2.448057   -0.089405   -0.224812
     19          1           0       -3.236291    0.707824   -1.582839
     20          1           0       -2.619420    2.018634    1.110528
     21          1           0       -3.406746    2.814787   -0.247360
     22          1           0       -1.349602    2.460609   -1.654267
     23          1           0       -0.557802    1.659933   -0.288665
     24          1           0       -0.963941    3.381782   -0.190705
     25          6           0       -4.545370    0.304053    0.081341
     26          6           0       -5.051269   -1.049397   -0.418882
     27          6           0       -6.418512   -1.419076    0.157119
     28          1           0       -4.488740    0.283776    1.178508
     29          1           0       -5.276973    1.081005   -0.179519
     30          1           0       -4.318285   -1.823189   -0.156971
     31          1           0       -5.105610   -1.027035   -1.514859
     32          1           0       -7.167228   -0.668333   -0.115666
     33          1           0       -6.375429   -1.469010    1.249937
     34          1           0       -6.761089   -2.390183   -0.213627
 ---------------------------------------------------------------------

 SCF Done:  E(RHF) =  -669.534863213     A.U. after   15 cycles
 E2 =    -0.2092787648D+01 EUMP2 =    -0.67162765086076D+03

 The electronic state is 1-A.
 Alpha  occ. eigenvalues --  -20.60804 -20.60799 -15.85858 -11.31260 -11.27823
 Alpha  occ. eigenvalues --  -11.27819 -11.27583 -11.26850 -11.26840 -11.22301
 Alpha  occ. eigenvalues --  -11.22292 -11.22172 -11.22072 -11.21650 -11.21511
 Alpha  occ. eigenvalues --   -1.59878  -1.39430  -1.19441  -1.09147  -1.08830
 Alpha  occ. eigenvalues --   -1.04852  -1.04176  -0.96612  -0.95655  -0.87627
 Alpha  occ. eigenvalues --   -0.86242  -0.82485  -0.80243  -0.78964  -0.77525
 Alpha  occ. eigenvalues --   -0.72076  -0.71200  -0.70545  -0.65819  -0.65089
 Alpha  occ. eigenvalues --   -0.64843  -0.62224  -0.61554  -0.59980  -0.58229
 Alpha  occ. eigenvalues --   -0.55982  -0.55314  -0.53320  -0.53272  -0.52961
 Alpha  occ. eigenvalues --   -0.52862  -0.50527  -0.48837  -0.48828  -0.48540
 Alpha  occ. eigenvalues --   -0.47294  -0.46496  -0.46439  -0.44828  -0.44449
 Alpha  occ. eigenvalues --   -0.37383  -0.36392
 Alpha virt. eigenvalues --    0.04980   0.11108   0.16357   0.19474   0.22824
 Alpha virt. eigenvalues --    0.23738   0.25109   0.26145   0.27167   0.28097
 Alpha virt. eigenvalues --    0.29400   0.30453   0.31026   0.31505   0.31589

 Mulliken charges:
               1
     1  C   -0.171099
     2  C   -0.218274
     3  C   -0.170587
     4  C    0.158950
     5  C   -0.170748
     6  C   -0.220492
     7  H    0.227177
     8  H    0.224043
     9  H    0.276006
    10  H    0.276450
    11  H    0.226738
    12  N    0.488077
    13  O   -0.459972
    14  O   -0.460174
    15  C   -0.298414
    16  C   -0.300259
    17  C   -0.485358
    18  H    0.141052
    19  H    0.153596
    20  H    0.145978
    21  H    0.155661
    22  H    0.158692
    23  H    0.160830
    24  H    0.160211
    25  C   -0.298665
    26  C   -0.298902
    27  C   -0.475973
    28  H    0.147743
    29  H    0.152914
    30  H    0.146794
    31  H    0.154118
    32  H    0.157238
    33  H    0.155053
    34  H    0.161598
 Sum of Mulliken charges =  -0.00000

 Dipole moment (field-independent basis, Debye):
    X=             -4.8225    Y=             -1.5576    Z=              1.2316  Tot=              5.2153
 Quadrupole moment (field-independent basis, Debye-Ang):
   XX=           -126.6788   YY=            -90.3350   ZZ=            -93.2074
   XY=             -4.8962   XZ=              4.2657   YZ=              1.6802

 Normal termination of Gaussian 16 at Thu May  6 12:39:52 2021.
