 Gaussian 16, Revision A.03,
 Gaussian 16:  EM64L-G16RevA.03 25-Dec-2016

 -------------
 #p 6-31g* mp2
 -------------

 ------------------------------------------------------
 Input file generated by CHIRIPA (05-May-2021 14:51:09)
 ------------------------------------------------------
 Symbolic Z-matrix:
 Charge =  0 Multiplicity = 1

                         Standard orientation:
 ---------------------------------------------------------------------
 Center     Atomic      Atomic             Coordinates (Angstroms)
 Number     Number       Type             X           Y           Z
 ---------------------------------------------------------------------
      1          6           0        3.041159    0.058558   -0.326994
      2          6           0        2.161812   -1.166307   -0.073143
      3          6           0        0.725943   -0.974842   -0.562444
      4          1           0        2.596004    0.931062    0.170519
      5          1           0        3.046083    0.281072   -1.403033
      6          1           0        2.159659   -1.387275    1.001931
      7          1           0        2.609213   -2.036036   -0.571158
      8          1           0        0.709003   -0.776897   -1.639074
      9          1           0        0.256894   -0.124450   -0.057047
     10          1           0        0.114861   -1.862423   -0.371029
     11          6           0        4.479486   -0.117537    0.156671
     12          6           0        5.358833    1.107328   -0.097180
     13          6           0        6.794702    0.915863    0.392121
     14          1           0        4.474562   -0.340051    1.232710
     15          1           0        4.924640   -0.990041   -0.340842
     16          1           0        4.911431    1.977057    0.400835
     17          1           0        5.360985    1.328296   -1.172254
     18          1           0        7.263750    0.065471   -0.113276
     19          1           0        6.811642    0.717918    1.468751
     20          1           0        7.405784    1.803444    0.200706
     21          6           0       -3.578183   -0.623148   -0.267430
     22          6           0       -3.211961   -1.751690    0.697070
     23          6           0       -2.849992   -3.050848   -0.023321
     24          1           0       -4.421739   -0.944039   -0.893837
     25          1           0       -2.734272   -0.443375   -0.947791
     26          1           0       -4.055790   -1.928345    1.376306
     27          1           0       -2.369302   -1.428004    1.321384
     28          1           0       -1.993663   -2.897129   -0.687905
     29          1           0       -3.689733   -3.400313   -0.632671
     30          1           0       -2.591575   -3.844129    0.685049
     31          6           0       -3.942462    0.682127    0.437753
     32          6           0       -4.308683    1.810669   -0.526746
     33          6           0       -4.670653    3.109827    0.193643
     34          1           0       -4.786372    0.502353    1.118115
     35          1           0       -3.098906    1.003018    1.064161
     36          1           0       -5.151343    1.486983   -1.151061
     37          1           0       -3.464855    1.987325   -1.205983
     38          1           0       -3.830911    3.459293    0.802994
     39          1           0       -5.526981    2.956108    0.858228
     40          1           0       -4.929069    3.903107   -0.514726
 ---------------------------------------------------------------------

 SCF Done:  E(RHF) =  -470.733170201     A.U. after   11 cycles
 E2 =    -0.1582935402D+01 EUMP2 =    -0.47231610560207D+03

 The electronic state is 1-A.
 Alpha  occ. eigenvalues --  -11.21658 -11.21627 -11.21565 -11.21535 -11.21444
 Alpha  occ. eigenvalues --  -11.21383 -11.21348 -11.21276 -11.21138 -11.21091
 Alpha  occ. eigenvalues --  -11.21048 -11.21016  -1.08472  -1.08373  -1.03586
 Alpha  occ. eigenvalues --   -1.03475  -0.96040  -0.95927  -0.87055  -0.86949
 Alpha  occ. eigenvalues --   -0.79649  -0.79540  -0.78283  -0.78184  -0.65113
 Alpha  occ. eigenvalues --   -0.65004  -0.61014  -0.60920  -0.59382  -0.59284
 Alpha  occ. eigenvalues --   -0.57672  -0.57524  -0.55318  -0.55237  -0.52730
 Alpha  occ. eigenvalues --   -0.52633  -0.52483  -0.52297  -0.49998  -0.49842
 Alpha  occ. eigenvalues --   -0.47958  -0.47846  -0.46682  -0.46566  -0.45843
 Alpha  occ. eigenvalues --   -0.45754  -0.45711  -0.45641  -0.43797  -0.43729
 Alpha virt. eigenvalues --    0.20874   0.22996   0.23699   0.24949   0.26025
 Alpha virt. eigenvalues --    0.26517   0.27014   0.27462   0.27858   0.29086
 Alpha virt. eigenvalues --    0.30705   0.31352   0.31647   0.31908   0.32033

 Mulliken charges:
               1
     1  C   -0.298662
     2  C   -0.299794
     3  C   -0.482906
     4  H    0.149514
     5  H    0.149601
     6  H    0.152153
     7  H    0.152319
     8  H    0.155051
     9  H    0.155181
    10  H    0.167885
    11  C   -0.298269
    12  C   -0.299652
    13  C   -0.475727
    14  H    0.149601
    15  H    0.149778
    16  H    0.151941
    17  H    0.151974
    18  H    0.155240
    19  H    0.155227
    20  H    0.160339
    21  C   -0.300669
    22  C   -0.299832
    23  C   -0.480127
    24  H    0.149138
    25  H    0.153555
    26  H    0.151579
    27  H    0.152927
    28  H    0.158769
    29  H    0.155268
    30  H    0.159589
    31  C   -0.298273
    32  C   -0.299678
    33  C   -0.475628
    34  H    0.149286
    35  H    0.149120
    36  H    0.151878
    37  H    0.152115
    38  H    0.154933
    39  H    0.155104
    40  H    0.160151
 Sum of Mulliken charges =  -0.00000

 Dipole moment (field-independent basis, Debye):
    X=              0.0329    Y=             -0.0069    Z=             -0.0128  Tot=              0.0360
 Quadrupole moment (field-independent basis, Debye-Ang):
   XX=            -85.0573   YY=            -85.6394   ZZ=            -84.1769
   XY=              0.4262   XZ=             -0.4494   YZ=             -0.0185

 Normal termination of Gaussian 16 at Thu May  6 00:32:59 2021.
