 Gaussian 16, Revision A.03,
 Gaussian 16:  EM64L-G16RevA.03 25-Dec-2016

 -------------
 #p 6-31g* mp2
 -------------

 ------------------------------------------------------
 Input file generated by CHIRIPA (05-May-2021 14:57:22)
 ------------------------------------------------------
 Symbolic Z-matrix:
 Charge =  0 Multiplicity = 1

                         Standard orientation:
 ---------------------------------------------------------------------
 Center     Atomic      Atomic             Coordinates (Angstroms)
 Number     Number       Type             X           Y           Z
 ---------------------------------------------------------------------
      1          6           0       -2.073019   -1.256233    0.599011
      2          6           0       -3.237188   -2.031147    0.571769
      3          6           0       -4.468427   -1.451757    0.250982
      4          6           0       -4.499163   -0.088480   -0.038539
      5          6           0       -3.356721    0.710122   -0.019768
      6          6           0       -2.136390    0.109520    0.303677
      7          1           0       -1.120800   -1.714557    0.849239
      8          1           0       -3.190970   -3.092044    0.800693
      9          1           0       -5.385084   -2.028253    0.222505
     10          1           0       -3.434372    1.765199   -0.252579
     11          1           0       -1.233895    0.713782    0.324059
     12          7           0       -5.796847    0.536122   -0.379549
     13          8           0       -5.797264    1.739263   -0.630726
     14          8           0       -6.788982   -0.189282   -0.389198
     15          6           0        3.004678    2.311514    0.463136
     16          6           0        2.351848    1.075089    0.502985
     17          6           0        3.051426   -0.106045    0.238297
     18          6           0        4.409093   -0.013540   -0.064146
     19          6           0        5.087646    1.203259   -0.111618
     20          6           0        4.368090    2.371547    0.156502
     21          1           0        2.453469    3.224058    0.670085
     22          1           0        1.293072    1.025443    0.740837
     23          1           0        2.570842   -1.076551    0.262290
     24          1           0        6.143803    1.220888   -0.351707
     25          1           0        4.877687    3.330377    0.124837
     26          7           0        5.160281   -1.257155   -0.346175
     27          8           0        6.355784   -1.148759   -0.610107
     28          8           0        4.539335   -2.316749   -0.297958
 ---------------------------------------------------------------------

 SCF Done:  E(RHF) =  -868.336529074     A.U. after   16 cycles
 E2 =    -0.2599507002D+01 EUMP2 =    -0.87093603607626D+03

 The electronic state is 1-A.
 Alpha  occ. eigenvalues --  -20.61396 -20.61380 -20.61177 -20.61167 -15.86451
 Alpha  occ. eigenvalues --  -15.86234 -11.31919 -11.31699 -11.28598 -11.28463
 Alpha  occ. eigenvalues --  -11.28343 -11.28276 -11.28252 -11.28105 -11.27684
 Alpha  occ. eigenvalues --  -11.27472 -11.27472 -11.27273  -1.60463  -1.60248
 Alpha  occ. eigenvalues --   -1.40015  -1.39799  -1.20113  -1.19899  -1.09484
 Alpha  occ. eigenvalues --   -1.09284  -1.05552  -1.05327  -0.96299  -0.96094
 Alpha  occ. eigenvalues --   -0.86952  -0.86726  -0.83146  -0.82930  -0.78187
 Alpha  occ. eigenvalues --   -0.77948  -0.72667  -0.72451  -0.71787  -0.71572
 Alpha  occ. eigenvalues --   -0.71214  -0.71021  -0.65774  -0.65723  -0.65557
 Alpha  occ. eigenvalues --   -0.65267  -0.62959  -0.62625  -0.56029  -0.55850
 Alpha  occ. eigenvalues --   -0.53847  -0.53749  -0.53635  -0.53351  -0.49435
 Alpha  occ. eigenvalues --   -0.49415  -0.49218  -0.49197  -0.45398  -0.45182
 Alpha  occ. eigenvalues --   -0.38079  -0.37888  -0.37149  -0.36921
 Alpha virt. eigenvalues --    0.04392   0.04604   0.10486   0.10728   0.15836
 Alpha virt. eigenvalues --    0.16062   0.17253   0.22114   0.24397   0.25934
 Alpha virt. eigenvalues --    0.27940   0.28925   0.29786   0.31225   0.32174

 Mulliken charges:
               1
     1  C   -0.170872
     2  C   -0.218092
     3  C   -0.169842
     4  C    0.159322
     5  C   -0.170759
     6  C   -0.221282
     7  H    0.223360
     8  H    0.226962
     9  H    0.277922
    10  H    0.276030
    11  H    0.217662
    12  N    0.487976
    13  O   -0.460122
    14  O   -0.458428
    15  C   -0.171140
    16  C   -0.221351
    17  C   -0.171124
    18  C    0.159313
    19  C   -0.169460
    20  C   -0.218125
    21  H    0.227608
    22  H    0.218470
    23  H    0.271599
    24  H    0.278226
    25  H    0.226629
    26  N    0.488258
    27  O   -0.457647
    28  O   -0.461093
 Sum of Mulliken charges =  -0.00000

 Dipole moment (field-independent basis, Debye):
    X=              1.9782    Y=              2.1623    Z=              2.1564  Tot=              3.6386
 Quadrupole moment (field-independent basis, Debye-Ang):
   XX=           -163.3720   YY=            -99.2991   ZZ=           -106.6496
   XY=             34.5571   XZ=             -2.0885   YZ=             -1.3761

 Normal termination of Gaussian 16 at Thu May  6 00:09:44 2021.
