 Gaussian 16, Revision A.03,
 Gaussian 16:  EM64L-G16RevA.03 25-Dec-2016

 -------------
 #p 6-31g* mp2
 -------------

 ------------------------------------------------------
 Input file generated by CHIRIPA (05-May-2021 14:53:13)
 ------------------------------------------------------
 Symbolic Z-matrix:
 Charge =  0 Multiplicity = 1

                         Standard orientation:
 ---------------------------------------------------------------------
 Center     Atomic      Atomic             Coordinates (Angstroms)
 Number     Number       Type             X           Y           Z
 ---------------------------------------------------------------------
      1          6           0        3.070346    1.015763   -0.293903
      2          6           0        3.640692    2.402113    0.007303
      3          6           0        2.695112    3.531949   -0.401528
      4          1           0        2.851185    0.941848   -1.367890
      5          1           0        2.111190    0.899887    0.229535
      6          1           0        4.599157    2.514821   -0.515437
      7          1           0        3.858700    2.472669    1.080667
      8          1           0        1.741593    3.447513    0.129766
      9          1           0        2.486258    3.489905   -1.475406
     10          1           0        3.122624    4.514189   -0.177258
     11          6           0        4.004102   -0.124129    0.109178
     12          6           0        3.433757   -1.510479   -0.192028
     13          6           0        4.379337   -2.640315    0.216803
     14          1           0        4.963259   -0.008253   -0.414261
     15          1           0        4.223264   -0.050214    1.183165
     16          1           0        3.215749   -1.581035   -1.265392
     17          1           0        2.475291   -1.623187    0.330712
     18          1           0        4.588191   -2.598271    1.290681
     19          1           0        5.332856   -2.555879   -0.314491
     20          1           0        3.951824   -3.622555   -0.007467
     21          6           0       -0.688325   -1.779078    0.184449
     22          6           0       -1.525885   -1.847192   -0.933752
     23          6           0       -2.678279   -1.059024   -1.006743
     24          6           0       -2.964073   -0.209971    0.061302
     25          6           0       -2.149415   -0.119670    1.188897
     26          6           0       -1.002210   -0.917055    1.240344
     27          1           0        0.204866   -2.394926    0.232783
     28          1           0       -1.284609   -2.515744   -1.755257
     29          1           0       -3.344181   -1.091956   -1.860504
     30          1           0       -2.416183    0.556329    1.992188
     31          1           0       -0.353584   -0.862083    2.110003
     32          7           0       -4.181314    0.629305   -0.004566
     33          8           0       -4.410935    1.369256    0.949575
     34          8           0       -4.882717    0.531287   -1.009087
 ---------------------------------------------------------------------

 SCF Done:  E(RHF) =  -669.535485873     A.U. after   15 cycles
 E2 =    -0.2091671380D+01 EUMP2 =    -0.67162715725306D+03

 The electronic state is 1-A.
 Alpha  occ. eigenvalues --  -20.60761 -20.60756 -15.85816 -11.31184 -11.27770
 Alpha  occ. eigenvalues --  -11.27758 -11.27476 -11.26787 -11.26752 -11.22621
 Alpha  occ. eigenvalues --  -11.22122 -11.22036 -11.21962 -11.21929 -11.21363
 Alpha  occ. eigenvalues --   -1.59836  -1.39390  -1.19362  -1.09116  -1.08750
 Alpha  occ. eigenvalues --   -1.04768  -1.04196  -0.96609  -0.95587  -0.87625
 Alpha  occ. eigenvalues --   -0.86163  -0.82425  -0.80299  -0.78896  -0.77467
 Alpha  occ. eigenvalues --   -0.72033  -0.71160  -0.70481  -0.65758  -0.65013
 Alpha  occ. eigenvalues --   -0.64767  -0.62117  -0.61598  -0.60019  -0.58227
 Alpha  occ. eigenvalues --   -0.55893  -0.55271  -0.53320  -0.53087  -0.53019
 Alpha  occ. eigenvalues --   -0.52859  -0.50548  -0.48798  -0.48788  -0.48575
 Alpha  occ. eigenvalues --   -0.47338  -0.46427  -0.46343  -0.44795  -0.44436
 Alpha  occ. eigenvalues --   -0.37311  -0.36371
 Alpha virt. eigenvalues --    0.05054   0.11200   0.16488   0.19981   0.22604
 Alpha virt. eigenvalues --    0.23708   0.25468   0.26360   0.26825   0.27816
 Alpha virt. eigenvalues --    0.28919   0.30405   0.30875   0.31332   0.32294

 Mulliken charges:
               1
     1  C   -0.299486
     2  C   -0.300306
     3  C   -0.475944
     4  H    0.151038
     5  H    0.148638
     6  H    0.152915
     7  H    0.151573
     8  H    0.156329
     9  H    0.156483
    10  H    0.161985
    11  C   -0.298329
    12  C   -0.302621
    13  C   -0.475956
    14  H    0.152736
    15  H    0.149818
    16  H    0.153401
    17  H    0.141900
    18  H    0.156590
    19  H    0.159724
    20  H    0.158074
    21  C   -0.170571
    22  C   -0.219596
    23  C   -0.170615
    24  C    0.158442
    25  C   -0.170983
    26  C   -0.220519
    27  H    0.230381
    28  H    0.223684
    29  H    0.275624
    30  H    0.275542
    31  H    0.222863
    32  N    0.488110
    33  O   -0.460531
    34  O   -0.460391
 Sum of Mulliken charges =  -0.00000

 Dipole moment (field-independent basis, Debye):
    X=              4.4019    Y=             -2.8883    Z=              0.1753  Tot=              5.2678
 Quadrupole moment (field-independent basis, Debye-Ang):
   XX=           -120.3354   YY=            -94.1442   ZZ=            -90.0239
   XY=              9.0203   XZ=              0.0585   YZ=              2.0043

 Normal termination of Gaussian 16 at Thu May  6 20:18:13 2021.
