 Gaussian 16, Revision A.03,
 Gaussian 16:  EM64L-G16RevA.03 25-Dec-2016

 -------------
 #p 6-31g* mp2
 -------------

 ------------------------------------------------------
 Input file generated by CHIRIPA (05-May-2021 14:51:14)
 ------------------------------------------------------
 Symbolic Z-matrix:
 Charge =  0 Multiplicity = 1

                         Standard orientation:
 ---------------------------------------------------------------------
 Center     Atomic      Atomic             Coordinates (Angstroms)
 Number     Number       Type             X           Y           Z
 ---------------------------------------------------------------------
      1          6           0       -3.345724   -0.806062   -0.037507
      2          6           0       -1.965615   -1.278016   -0.496359
      3          6           0       -1.787093   -2.791494   -0.372632
      4          1           0       -3.502212   -1.111053    1.006253
      5          1           0       -4.116366   -1.316862   -0.631300
      6          1           0       -1.197765   -0.765443    0.097183
      7          1           0       -1.812317   -0.971698   -1.539089
      8          1           0       -2.531530   -3.318024   -0.978585
      9          1           0       -1.913487   -3.110597    0.666983
     10          1           0       -0.793563   -3.107133   -0.705995
     11          6           0       -3.539414    0.704687   -0.155194
     12          6           0       -4.919522    1.176641    0.303658
     13          6           0       -5.098045    2.690119    0.179930
     14          1           0       -2.768772    1.215487    0.438598
     15          1           0       -3.382926    1.009678   -1.198955
     16          1           0       -5.072820    0.870323    1.346387
     17          1           0       -5.687372    0.664068   -0.289884
     18          1           0       -4.971651    3.009222   -0.859684
     19          1           0       -4.353607    3.216649    0.785884
     20          1           0       -6.091574    3.005758    0.513294
     21          6           0        2.994535   -0.433718    0.481122
     22          6           0        2.887001   -1.810989   -0.174273
     23          6           0        1.987288   -2.768912    0.607195
     24          1           0        3.380575   -0.550129    1.503065
     25          1           0        1.989167   -0.000181    0.574269
     26          1           0        3.892412   -2.241209   -0.267415
     27          1           0        2.501353   -1.691268   -1.194840
     28          1           0        0.973057   -2.364796    0.688599
     29          1           0        2.372020   -2.917861    1.621295
     30          1           0        1.924583   -3.747452    0.120998
     31          6           0        3.890603    0.535092   -0.288421
     32          6           0        3.998136    1.912364    0.366975
     33          6           0        4.897850    2.870287   -0.414495
     34          1           0        4.895970    0.101557   -0.381568
     35          1           0        3.504562    0.651503   -1.310364
     36          1           0        4.383784    1.792643    1.387541
     37          1           0        2.992726    2.342584    0.460115
     38          1           0        4.513118    3.019237   -1.428593
     39          1           0        5.912081    2.466171   -0.495898
     40          1           0        4.960554    3.848827    0.071704
 ---------------------------------------------------------------------

 SCF Done:  E(RHF) =  -470.732729273     A.U. after   11 cycles
 E2 =    -0.1583101389D+01 EUMP2 =    -0.47231583066206D+03

 The electronic state is 1-A.
 Alpha  occ. eigenvalues --  -11.21655 -11.21621 -11.21599 -11.21585 -11.21434
 Alpha  occ. eigenvalues --  -11.21402 -11.21375 -11.21343 -11.21088 -11.21068
 Alpha  occ. eigenvalues --  -11.21012 -11.20993  -1.08464  -1.08418  -1.03587
 Alpha  occ. eigenvalues --   -1.03487  -0.96064  -0.95903  -0.87092  -0.86905
 Alpha  occ. eigenvalues --   -0.79635  -0.79563  -0.78279  -0.78232  -0.65143
 Alpha  occ. eigenvalues --   -0.65015  -0.61125  -0.60826  -0.59401  -0.59294
 Alpha  occ. eigenvalues --   -0.57666  -0.57548  -0.55421  -0.55099  -0.52823
 Alpha  occ. eigenvalues --   -0.52557  -0.52452  -0.52305  -0.49998  -0.49785
 Alpha  occ. eigenvalues --   -0.47923  -0.47891  -0.46674  -0.46582  -0.45855
 Alpha  occ. eigenvalues --   -0.45779  -0.45753  -0.45628  -0.43857  -0.43704
 Alpha virt. eigenvalues --    0.20761   0.23128   0.23552   0.25176   0.25586
 Alpha virt. eigenvalues --    0.26827   0.27042   0.27392   0.28133   0.29013
 Alpha virt. eigenvalues --    0.30053   0.31348   0.31513   0.31958   0.32379

 Mulliken charges:
               1
     1  C   -0.298005
     2  C   -0.303127
     3  C   -0.480647
     4  H    0.149945
     5  H    0.149941
     6  H    0.152346
     7  H    0.152040
     8  H    0.155412
     9  H    0.155259
    10  H    0.166216
    11  C   -0.298321
    12  C   -0.299687
    13  C   -0.475733
    14  H    0.149305
    15  H    0.149580
    16  H    0.152070
    17  H    0.152019
    18  H    0.155159
    19  H    0.155188
    20  H    0.160361
    21  C   -0.299157
    22  C   -0.299802
    23  C   -0.483164
    24  H    0.149626
    25  H    0.149792
    26  H    0.151935
    27  H    0.151855
    28  H    0.165240
    29  H    0.154729
    30  H    0.159480
    31  C   -0.298267
    32  C   -0.299672
    33  C   -0.475704
    34  H    0.149574
    35  H    0.149818
    36  H    0.151858
    37  H    0.151900
    38  H    0.155238
    39  H    0.155173
    40  H    0.160227
 Sum of Mulliken charges =  -0.00000

 Dipole moment (field-independent basis, Debye):
    X=             -0.0155    Y=             -0.0112    Z=             -0.0008  Tot=              0.0191
 Quadrupole moment (field-independent basis, Debye-Ang):
   XX=            -84.5172   YY=            -86.4775   ZZ=            -83.7798
   XY=             -0.3918   XZ=              1.0449   YZ=              0.3381

 Normal termination of Gaussian 16 at Wed May  5 15:22:16 2021.
