 Gaussian 16, Revision A.03,
 Gaussian 16:  EM64L-G16RevA.03 25-Dec-2016

 -------------
 #p 6-31g* mp2
 -------------

 ------------------------------------------------------
 Input file generated by CHIRIPA (05-May-2021 14:53:15)
 ------------------------------------------------------
 Symbolic Z-matrix:
 Charge =  0 Multiplicity = 1

                         Standard orientation:
 ---------------------------------------------------------------------
 Center     Atomic      Atomic             Coordinates (Angstroms)
 Number     Number       Type             X           Y           Z
 ---------------------------------------------------------------------
      1          6           0        4.048345   -0.517354   -0.152646
      2          6           0        5.560208   -0.667997    0.019287
      3          6           0        5.983136   -2.111660    0.292714
      4          1           0        3.544523   -0.883377    0.752415
      5          1           0        3.714302   -1.160900   -0.978272
      6          1           0        5.891505   -0.023308    0.843444
      7          1           0        6.060498   -0.301394   -0.886212
      8          1           0        5.680626   -2.764560   -0.532397
      9          1           0        5.510673   -2.484894    1.207086
     10          1           0        7.067740   -2.196459    0.412317
     11          6           0        3.610040    0.920203   -0.426594
     12          6           0        2.098176    1.070846   -0.598527
     13          6           0        1.675248    2.514509   -0.871955
     14          1           0        3.944082    1.563750    0.399032
     15          1           0        4.113861    1.286227   -1.331655
     16          1           0        1.597887    0.704244    0.306972
     17          1           0        1.766879    0.426157   -1.422684
     18          1           0        2.147711    2.887743   -1.786326
     19          1           0        1.977759    3.167410   -0.046843
     20          1           0        0.590645    2.599309   -0.991557
     21          6           0       -1.044156    1.103199    1.218504
     22          6           0       -2.204032    1.789172    0.843471
     23          6           0       -3.289197    1.100976    0.292698
     24          6           0       -3.179824   -0.279229    0.130340
     25          6           0       -2.037735   -0.990953    0.494170
     26          6           0       -0.964849   -0.282232    1.042966
     27          1           0       -0.205943    1.645778    1.645590
     28          1           0       -2.268431    2.865103    0.978636
     29          1           0       -4.199068    1.607086   -0.006309
     30          1           0       -2.003125   -2.063625    0.347215
     31          1           0       -0.065325   -0.817581    1.333313
     32          7           0       -4.322140   -1.018656   -0.451692
     33          8           0       -4.200804   -2.234510   -0.584417
     34          8           0       -5.317193   -0.368365   -0.764144
 ---------------------------------------------------------------------

 SCF Done:  E(RHF) =  -669.533663264     A.U. after   15 cycles
 E2 =    -0.2093781559D+01 EUMP2 =    -0.67162744482283D+03

 The electronic state is 1-A.
 Alpha  occ. eigenvalues --  -20.60757 -20.60752 -15.85812 -11.31177 -11.27760
 Alpha  occ. eigenvalues --  -11.27746 -11.27479 -11.26769 -11.26741 -11.22443
 Alpha  occ. eigenvalues --  -11.22185 -11.22133 -11.22075 -11.21898 -11.21562
 Alpha  occ. eigenvalues --   -1.59833  -1.39386  -1.19365  -1.09181  -1.08753
 Alpha  occ. eigenvalues --   -1.04770  -1.04241  -0.96692  -0.95586  -0.87702
 Alpha  occ. eigenvalues --   -0.86179  -0.82421  -0.80322  -0.78984  -0.77461
 Alpha  occ. eigenvalues --   -0.72032  -0.71157  -0.70521  -0.65848  -0.65013
 Alpha  occ. eigenvalues --   -0.64772  -0.62142  -0.61617  -0.60065  -0.58311
 Alpha  occ. eigenvalues --   -0.56034  -0.55191  -0.53449  -0.53170  -0.52903
 Alpha  occ. eigenvalues --   -0.52852  -0.50636  -0.48804  -0.48786  -0.48603
 Alpha  occ. eigenvalues --   -0.47361  -0.46517  -0.46430  -0.44793  -0.44492
 Alpha  occ. eigenvalues --   -0.37262  -0.36346
 Alpha virt. eigenvalues --    0.05054   0.11176   0.16502   0.19853   0.22751
 Alpha virt. eigenvalues --    0.23725   0.24963   0.26128   0.27065   0.28420
 Alpha virt. eigenvalues --    0.28845   0.30346   0.30901   0.31423   0.31865

 Mulliken charges:
               1
     1  C   -0.298035
     2  C   -0.299988
     3  C   -0.476141
     4  H    0.143580
     5  H    0.151860
     6  H    0.152163
     7  H    0.154087
     8  H    0.156559
     9  H    0.154448
    10  H    0.162306
    11  C   -0.298077
    12  C   -0.299382
    13  C   -0.481966
    14  H    0.148308
    15  H    0.153014
    16  H    0.140907
    17  H    0.157496
    18  H    0.160745
    19  H    0.150270
    20  H    0.163754
    21  C   -0.167250
    22  C   -0.221774
    23  C   -0.170988
    24  C    0.158046
    25  C   -0.172376
    26  C   -0.216238
    27  H    0.228391
    28  H    0.223876
    29  H    0.275647
    30  H    0.275686
    31  H    0.223922
    32  N    0.488129
    33  O   -0.460461
    34  O   -0.460515
 Sum of Mulliken charges =  -0.00000

 Dipole moment (field-independent basis, Debye):
    X=              4.1198    Y=              2.5939    Z=              1.9544  Tot=              5.2460
 Quadrupole moment (field-independent basis, Debye-Ang):
   XX=           -119.3945   YY=            -93.7102   ZZ=            -93.9221
   XY=            -11.6933   XZ=             -6.2826   YZ=             -0.3297

 Normal termination of Gaussian 16 at Wed May  5 21:55:25 2021.
