 Gaussian 16, Revision A.03,
 Gaussian 16:  EM64L-G16RevA.03 25-Dec-2016

 -------------
 #p 6-31g* mp2
 -------------

 ------------------------------------------------------
 Input file generated by CHIRIPA (05-May-2021 14:53:17)
 ------------------------------------------------------
 Symbolic Z-matrix:
 Charge =  0 Multiplicity = 1

                         Standard orientation:
 ---------------------------------------------------------------------
 Center     Atomic      Atomic             Coordinates (Angstroms)
 Number     Number       Type             X           Y           Z
 ---------------------------------------------------------------------
      1          6           0       -2.929959    0.793227    0.057041
      2          6           0       -3.263396    1.625615    1.295562
      3          6           0       -2.658364    3.028893    1.245152
      4          1           0       -1.838529    0.720055   -0.044798
      5          1           0       -3.292866    1.318080   -0.837511
      6          1           0       -2.901195    1.098688    2.187624
      7          1           0       -4.354160    1.696653    1.394573
      8          1           0       -3.028643    3.576947    0.372723
      9          1           0       -1.567422    2.975584    1.170280
     10          1           0       -2.909164    3.606611    2.140250
     11          6           0       -3.527794   -0.612138    0.092692
     12          6           0       -3.194358   -1.444527   -1.145829
     13          6           0       -3.799389   -2.847805   -1.095419
     14          1           0       -3.164887   -1.136992    0.987244
     15          1           0       -4.619224   -0.538966    0.194531
     16          1           0       -2.103593   -1.515565   -1.244840
     17          1           0       -3.556558   -0.917600   -2.037891
     18          1           0       -4.890331   -2.794495   -1.020547
     19          1           0       -3.429111   -3.395858   -0.222990
     20          1           0       -3.548589   -3.425523   -1.990518
     21          6           0        2.751552   -2.202648    1.271339
     22          6           0        1.484911   -1.748565    0.889305
     23          6           0        1.346108   -0.568667    0.152337
     24          6           0        2.500422    0.135368   -0.187052
     25          6           0        3.776170   -0.291160    0.178773
     26          6           0        3.891130   -1.473781    0.915481
     27          1           0        2.850116   -3.120279    1.843733
     28          1           0        0.598149   -2.312564    1.164266
     29          1           0        0.377662   -0.194289   -0.156484
     30          1           0        4.641697    0.292652   -0.110098
     31          1           0        4.876094   -1.824034    1.210804
     32          7           0        2.366099    1.385914   -0.967110
     33          8           0        3.398621    1.987942   -1.253638
     34          8           0        1.230837    1.740387   -1.277220
 ---------------------------------------------------------------------

 SCF Done:  E(RHF) =  -669.535527521     A.U. after   15 cycles
 E2 =    -0.2091983239D+01 EUMP2 =    -0.67162751076017D+03

 The electronic state is 1-A.
 Alpha  occ. eigenvalues --  -20.60809 -20.60804 -15.85857 -11.31223 -11.27792
 Alpha  occ. eigenvalues --  -11.27785 -11.27537 -11.26813 -11.26804 -11.21942
 Alpha  occ. eigenvalues --  -11.21658 -11.21566 -11.21446 -11.21419 -11.20743
 Alpha  occ. eigenvalues --   -1.59881  -1.39435  -1.19398  -1.08792  -1.08598
 Alpha  occ. eigenvalues --   -1.04803  -1.03628  -0.96065  -0.95627  -0.87073
 Alpha  occ. eigenvalues --   -0.86202  -0.82458  -0.79706  -0.78390  -0.77498
 Alpha  occ. eigenvalues --   -0.72075  -0.71202  -0.70517  -0.65305  -0.65049
 Alpha  occ. eigenvalues --   -0.64780  -0.62147  -0.61038  -0.59447  -0.57662
 Alpha  occ. eigenvalues --   -0.55404  -0.55263  -0.53130  -0.52918  -0.52746
 Alpha  occ. eigenvalues --   -0.52450  -0.50005  -0.48837  -0.48833  -0.48001
 Alpha  occ. eigenvalues --   -0.46770  -0.45890  -0.45842  -0.44834  -0.43900
 Alpha  occ. eigenvalues --   -0.37378  -0.36404
 Alpha virt. eigenvalues --    0.05010   0.11231   0.16506   0.19040   0.23057
 Alpha virt. eigenvalues --    0.24050   0.24830   0.26720   0.27815   0.28036
 Alpha virt. eigenvalues --    0.29900   0.31092   0.31575   0.31790   0.32089

 Mulliken charges:
               1
     1  C   -0.305967
     2  C   -0.299474
     3  C   -0.476620
     4  H    0.153392
     5  H    0.156117
     6  H    0.147707
     7  H    0.151713
     8  H    0.158237
     9  H    0.162562
    10  H    0.158382
    11  C   -0.298808
    12  C   -0.299804
    13  C   -0.475253
    14  H    0.142840
    15  H    0.152238
    16  H    0.145272
    17  H    0.157690
    18  H    0.157545
    19  H    0.150635
    20  H    0.161778
    21  C   -0.170383
    22  C   -0.223443
    23  C   -0.181572
    24  C    0.156693
    25  C   -0.169565
    26  C   -0.219039
    27  H    0.225840
    28  H    0.223917
    29  H    0.293097
    30  H    0.275803
    31  H    0.223663
    32  N    0.486487
    33  O   -0.459812
    34  O   -0.461868
 Sum of Mulliken charges =  -0.00000

 Dipole moment (field-independent basis, Debye):
    X=              0.4299    Y=             -4.2825    Z=              2.6642  Tot=              5.0619
 Quadrupole moment (field-independent basis, Debye-Ang):
   XX=            -86.3791   YY=            -97.3843   ZZ=            -96.4450
   XY=            -11.3873   XZ=              7.7026   YZ=              0.8001

 Normal termination of Gaussian 16 at Thu May  6 07:34:02 2021.
