 Gaussian 16, Revision A.03,
 Gaussian 16:  EM64L-G16RevA.03 25-Dec-2016

 -------------
 #p 6-31g* mp2
 -------------

 ------------------------------------------------------
 Input file generated by CHIRIPA (05-May-2021 14:57:22)
 ------------------------------------------------------
 Symbolic Z-matrix:
 Charge =  0 Multiplicity = 1

                         Standard orientation:
 ---------------------------------------------------------------------
 Center     Atomic      Atomic             Coordinates (Angstroms)
 Number     Number       Type             X           Y           Z
 ---------------------------------------------------------------------
      1          6           0        1.826362   -1.848964    1.066289
      2          6           0        2.627224   -1.062469    1.900895
      3          6           0        3.419874   -0.041492    1.368111
      4          6           0        3.387257    0.166386   -0.009936
      5          6           0        2.599859   -0.600272   -0.867568
      6          6           0        1.815255   -1.615767   -0.312847
      7          1           0        1.213738   -2.639955    1.488689
      8          1           0        2.637843   -1.241311    2.972318
      9          1           0        4.049158    0.582340    1.991211
     10          1           0        2.610277   -0.398152   -1.931737
     11          1           0        1.194268   -2.225001   -0.963426
     12          7           0        4.222141    1.244346   -0.585583
     13          8           0        4.175673    1.407359   -1.802918
     14          8           0        4.907183    1.905829    0.191461
     15          6           0       -4.484292    2.043068    0.759705
     16          6           0       -3.737092    1.259652    1.645410
     17          6           0       -3.048990    0.131689    1.188504
     18          6           0       -3.130298   -0.185151   -0.166594
     19          6           0       -3.866339    0.575479   -1.073775
     20          6           0       -4.546421    1.699088   -0.594672
     21          1           0       -5.015711    2.917607    1.123261
     22          1           0       -3.687047    1.524399    2.697764
     23          1           0       -2.463109   -0.492372    1.852364
     24          1           0       -3.897312    0.286348   -2.117260
     25          1           0       -5.125928    2.305658   -1.284810
     26          7           0       -2.406080   -1.376970   -0.662048
     27          8           0       -2.493682   -1.634815   -1.860581
     28          8           0       -1.764551   -2.030706    0.157528
 ---------------------------------------------------------------------

 SCF Done:  E(RHF) =  -868.340533805     A.U. after   16 cycles
 E2 =    -0.2599013006D+01 EUMP2 =    -0.87093954681115D+03

 The electronic state is 1-A.
 Alpha  occ. eigenvalues --  -20.61713 -20.61688 -20.60230 -20.60219 -15.86717
 Alpha  occ. eigenvalues --  -15.85272 -11.31764 -11.30433 -11.28318 -11.28279
 Alpha  occ. eigenvalues --  -11.27974 -11.27247 -11.27221 -11.27028 -11.26893
 Alpha  occ. eigenvalues --  -11.26528 -11.25986 -11.25697  -1.60760  -1.59309
 Alpha  occ. eigenvalues --   -1.40323  -1.38868  -1.19906  -1.18562  -1.09360
 Alpha  occ. eigenvalues --   -1.07961  -1.05264  -1.03925  -0.96252  -0.94840
 Alpha  occ. eigenvalues --   -0.86677  -0.85304  -0.83101  -0.81683  -0.78182
 Alpha  occ. eigenvalues --   -0.76783  -0.72971  -0.72054  -0.71491  -0.71014
 Alpha  occ. eigenvalues --   -0.70633  -0.69588  -0.65566  -0.65267  -0.64186
 Alpha  occ. eigenvalues --   -0.63868  -0.62620  -0.61264  -0.55774  -0.54328
 Alpha  occ. eigenvalues --   -0.53603  -0.53355  -0.52288  -0.51978  -0.49728
 Alpha  occ. eigenvalues --   -0.49682  -0.48262  -0.48226  -0.45794  -0.44320
 Alpha  occ. eigenvalues --   -0.37861  -0.36849  -0.36479  -0.35543
 Alpha virt. eigenvalues --    0.04309   0.05733   0.10812   0.12118   0.15884
 Alpha virt. eigenvalues --    0.17298   0.20944   0.22437   0.26879   0.27743
 Alpha virt. eigenvalues --    0.28339   0.29250   0.30613   0.31806   0.32261

 Mulliken charges:
               1
     1  C   -0.169146
     2  C   -0.221908
     3  C   -0.173474
     4  C    0.157325
     5  C   -0.175260
     6  C   -0.219993
     7  H    0.233502
     8  H    0.218609
     9  H    0.271512
    10  H    0.274234
    11  H    0.239894
    12  N    0.488123
    13  O   -0.462013
    14  O   -0.463856
    15  C   -0.169356
    16  C   -0.218173
    17  C   -0.169030
    18  C    0.158504
    19  C   -0.170012
    20  C   -0.218240
    21  H    0.228135
    22  H    0.224722
    23  H    0.272548
    24  H    0.276567
    25  H    0.225946
    26  N    0.490058
    27  O   -0.458667
    28  O   -0.470550
 Sum of Mulliken charges =  -0.00000

 Dipole moment (field-independent basis, Debye):
    X=             -5.9650    Y=              0.3275    Z=              3.6765  Tot=              7.0146
 Quadrupole moment (field-independent basis, Debye-Ang):
   XX=           -109.4764   YY=           -108.1905   ZZ=            -97.2355
   XY=            -27.0821   XZ=              5.2098   YZ=             -0.2593

 Normal termination of Gaussian 16 at Thu May  6 03:21:58 2021.
