 Gaussian 16, Revision A.03,
 Gaussian 16:  EM64L-G16RevA.03 25-Dec-2016

 -------------
 #p 6-31g* mp2
 -------------

 ------------------------------------------------------
 Input file generated by CHIRIPA (05-May-2021 14:51:11)
 ------------------------------------------------------
 Symbolic Z-matrix:
 Charge =  0 Multiplicity = 1

                         Standard orientation:
 ---------------------------------------------------------------------
 Center     Atomic      Atomic             Coordinates (Angstroms)
 Number     Number       Type             X           Y           Z
 ---------------------------------------------------------------------
      1          6           0       -3.230184    0.534377    0.042687
      2          6           0       -4.605979    0.437990   -0.617527
      3          6           0       -5.096061    1.780333   -1.161336
      4          1           0       -3.272760    1.268693    0.858721
      5          1           0       -2.506678    0.921073   -0.688341
      6          1           0       -5.326387    0.050285    0.114123
      7          1           0       -4.560172   -0.296322   -1.431961
      8          1           0       -4.399581    2.169745   -1.910919
      9          1           0       -5.170149    2.518321   -0.356050
     10          1           0       -6.081303    1.688450   -1.629007
     11          6           0       -2.726682   -0.799522    0.591253
     12          6           0       -1.350887   -0.703135    1.251467
     13          6           0       -0.860804   -2.045479    1.795276
     14          1           0       -3.450187   -1.186218    1.322281
     15          1           0       -2.684106   -1.533838   -0.224781
     16          1           0       -1.396693    0.031177    2.065901
     17          1           0       -0.630478   -0.315430    0.519816
     18          1           0       -0.786716   -2.783466    0.989990
     19          1           0       -1.557285   -2.434890    2.544859
     20          1           0        0.124438   -1.953595    2.262947
     21          6           0        2.825522    0.755276    0.098110
     22          6           0        3.834535    1.885221   -0.109499
     23          6           0        3.515173    3.124165    0.727651
     24          1           0        1.819861    1.119658   -0.152522
     25          1           0        2.803344    0.483895    1.162654
     26          1           0        3.855812    2.153448   -1.173556
     27          1           0        4.837937    1.518050    0.141472
     28          1           0        3.513604    2.878318    1.794495
     29          1           0        2.525898    3.517327    0.471995
     30          1           0        4.249024    3.919459    0.563849
     31          6           0        3.131343   -0.490131   -0.732050
     32          6           0        2.122330   -1.620076   -0.524441
     33          6           0        2.441692   -2.859020   -1.361590
     34          1           0        3.153521   -0.218750   -1.796594
     35          1           0        4.137005   -0.854513   -0.481418
     36          1           0        1.118928   -1.252905   -0.775412
     37          1           0        2.101053   -1.888303    0.539616
     38          1           0        3.430967   -3.252181   -1.105935
     39          1           0        2.443262   -2.613173   -2.428435
     40          1           0        1.707842   -3.654314   -1.197789
 ---------------------------------------------------------------------

 SCF Done:  E(RHF) =  -470.732495755     A.U. after   11 cycles
 E2 =    -0.1584056757D+01 EUMP2 =    -0.47231655251288D+03

 The electronic state is 1-A.
 Alpha  occ. eigenvalues --  -11.21611 -11.21603 -11.21557 -11.21512 -11.21413
 Alpha  occ. eigenvalues --  -11.21395 -11.21352 -11.21330 -11.21076 -11.21076
 Alpha  occ. eigenvalues --  -11.21072 -11.21003  -1.08465  -1.08386  -1.03582
 Alpha  occ. eigenvalues --   -1.03454  -0.96001  -0.95940  -0.87012  -0.86962
 Alpha  occ. eigenvalues --   -0.79607  -0.79569  -0.78340  -0.78146  -0.65164
 Alpha  occ. eigenvalues --   -0.64969  -0.61039  -0.60845  -0.59449  -0.59214
 Alpha  occ. eigenvalues --   -0.57608  -0.57556  -0.55273  -0.55237  -0.52706
 Alpha  occ. eigenvalues --   -0.52628  -0.52443  -0.52344  -0.49965  -0.49869
 Alpha  occ. eigenvalues --   -0.47943  -0.47888  -0.46844  -0.46487  -0.46020
 Alpha  occ. eigenvalues --   -0.45739  -0.45720  -0.45270  -0.43788  -0.43740
 Alpha virt. eigenvalues --    0.20904   0.23183   0.23507   0.24512   0.25057
 Alpha virt. eigenvalues --    0.26022   0.26706   0.27632   0.28678   0.29362
 Alpha virt. eigenvalues --    0.30157   0.31182   0.31596   0.32155   0.32551

 Mulliken charges:
               1
     1  C   -0.297986
     2  C   -0.299609
     3  C   -0.475686
     4  H    0.149812
     5  H    0.148479
     6  H    0.152051
     7  H    0.151865
     8  H    0.154981
     9  H    0.155224
    10  H    0.160276
    11  C   -0.298421
    12  C   -0.306097
    13  C   -0.474958
    14  H    0.149574
    15  H    0.149145
    16  H    0.151735
    17  H    0.158355
    18  H    0.155361
    19  H    0.154237
    20  H    0.160654
    21  C   -0.299805
    22  C   -0.299620
    23  C   -0.475693
    24  H    0.150837
    25  H    0.149442
    26  H    0.151875
    27  H    0.152054
    28  H    0.155217
    29  H    0.155358
    30  H    0.160237
    31  C   -0.298382
    32  C   -0.304685
    33  C   -0.475883
    34  H    0.148971
    35  H    0.149540
    36  H    0.155537
    37  H    0.155863
    38  H    0.155211
    39  H    0.154775
    40  H    0.160158
 Sum of Mulliken charges =  -0.00000

 Dipole moment (field-independent basis, Debye):
    X=              0.0217    Y=             -0.0021    Z=              0.0100  Tot=              0.0240
 Quadrupole moment (field-independent basis, Debye-Ang):
   XX=            -84.5883   YY=            -86.3835   ZZ=            -83.9172
   XY=              0.2058   XZ=             -0.0695   YZ=             -0.2348

 Normal termination of Gaussian 16 at Wed May  5 18:14:43 2021.
