 Gaussian 16, Revision A.03,
 Gaussian 16:  EM64L-G16RevA.03 25-Dec-2016

 -------------
 #p 6-31g* mp2
 -------------

 ------------------------------------------------------
 Input file generated by CHIRIPA (05-May-2021 14:51:11)
 ------------------------------------------------------
 Symbolic Z-matrix:
 Charge =  0 Multiplicity = 1

                         Standard orientation:
 ---------------------------------------------------------------------
 Center     Atomic      Atomic             Coordinates (Angstroms)
 Number     Number       Type             X           Y           Z
 ---------------------------------------------------------------------
      1          6           0       -3.414082   -0.757036   -0.105851
      2          6           0       -4.127894    0.376348   -0.843346
      3          6           0       -5.289443   -0.118749   -1.705596
      4          1           0       -3.043511   -1.486699   -0.838799
      5          1           0       -4.139705   -1.288760    0.525129
      6          1           0       -3.400853    0.906643   -1.471689
      7          1           0       -4.496641    1.103495   -0.108568
      8          1           0       -6.036119   -0.629932   -1.089342
      9          1           0       -4.934104   -0.827901   -2.460208
     10          1           0       -5.785557    0.707820   -2.223780
     11          6           0       -2.250515   -0.277893    0.760326
     12          6           0       -1.536702   -1.411276    1.497821
     13          6           0       -0.375153   -0.916179    2.360071
     14          1           0       -1.524891    0.253832    0.129346
     15          1           0       -2.621085    0.451770    1.493275
     16          1           0       -1.167955   -2.138423    0.763043
     17          1           0       -2.263743   -1.941572    2.126164
     18          1           0       -0.730492   -0.207027    3.114683
     19          1           0        0.371523   -0.404997    1.743817
     20          1           0        0.120961   -1.742748    2.878255
     21          6           0        2.672245    1.116825    0.118386
     22          6           0        1.443222    1.902394   -0.340276
     23          6           0        1.135813    3.098448    0.561248
     24          1           0        2.514366    0.770106    1.148825
     25          1           0        3.540281    1.790039    0.144656
     26          1           0        0.578050    1.227575   -0.367002
     27          1           0        1.603965    2.247120   -1.369811
     28          1           0        1.981007    3.794077    0.579917
     29          1           0        0.949262    2.768738    1.588424
     30          1           0        0.253513    3.645800    0.215106
     31          6           0        2.992352   -0.081897   -0.772861
     32          6           0        4.221374   -0.867465   -0.314199
     33          6           0        4.528783   -2.063520   -1.215723
     34          1           0        2.124314   -0.755110   -0.799131
     35          1           0        3.150230    0.264823   -1.803301
     36          1           0        4.060631   -1.212192    0.715335
     37          1           0        5.086545   -0.192647   -0.287473
     38          1           0        4.715333   -1.733810   -2.242899
     39          1           0        3.683589   -2.759148   -1.234393
     40          1           0        5.411083   -2.610872   -0.869582
 ---------------------------------------------------------------------

 SCF Done:  E(RHF) =  -470.732807793     A.U. after   11 cycles
 E2 =    -0.1584379184D+01 EUMP2 =    -0.47231718697716D+03

 The electronic state is 1-A.
 Alpha  occ. eigenvalues --  -11.21661 -11.21617 -11.21611 -11.21606 -11.21433
 Alpha  occ. eigenvalues --  -11.21427 -11.21373 -11.21364 -11.21128 -11.21081
 Alpha  occ. eigenvalues --  -11.21081 -11.21054  -1.08498  -1.08427  -1.03593
 Alpha  occ. eigenvalues --   -1.03518  -0.96030  -0.95977  -0.87046  -0.86997
 Alpha  occ. eigenvalues --   -0.79650  -0.79597  -0.78335  -0.78220  -0.65366
 Alpha  occ. eigenvalues --   -0.64888  -0.61141  -0.60773  -0.59388  -0.59343
 Alpha  occ. eigenvalues --   -0.57643  -0.57582  -0.55455  -0.55139  -0.52715
 Alpha  occ. eigenvalues --   -0.52676  -0.52463  -0.52395  -0.50033  -0.49890
 Alpha  occ. eigenvalues --   -0.48071  -0.47845  -0.46819  -0.46590  -0.46042
 Alpha  occ. eigenvalues --   -0.45797  -0.45723  -0.45305  -0.43820  -0.43794
 Alpha virt. eigenvalues --    0.19691   0.23046   0.23841   0.24834   0.25611
 Alpha virt. eigenvalues --    0.26199   0.26991   0.27921   0.28532   0.29319
 Alpha virt. eigenvalues --    0.31090   0.31349   0.31667   0.31845   0.31945

 Mulliken charges:
               1
     1  C   -0.297581
     2  C   -0.299791
     3  C   -0.475737
     4  H    0.149563
     5  H    0.149669
     6  H    0.152070
     7  H    0.152048
     8  H    0.155198
     9  H    0.155243
    10  H    0.160344
    11  C   -0.307026
    12  C   -0.299094
    13  C   -0.484280
    14  H    0.157345
    15  H    0.150055
    16  H    0.151371
    17  H    0.152424
    18  H    0.155505
    19  H    0.163389
    20  H    0.160333
    21  C   -0.301714
    22  C   -0.309065
    23  C   -0.475672
    24  H    0.152285
    25  H    0.150564
    26  H    0.158724
    27  H    0.152318
    28  H    0.155161
    29  H    0.156352
    30  H    0.160344
    31  C   -0.298915
    32  C   -0.299695
    33  C   -0.475741
    34  H    0.148961
    35  H    0.149863
    36  H    0.152534
    37  H    0.152049
    38  H    0.155102
    39  H    0.155121
    40  H    0.160375
 Sum of Mulliken charges =  -0.00000

 Dipole moment (field-independent basis, Debye):
    X=             -0.0031    Y=              0.0105    Z=              0.0084  Tot=              0.0138
 Quadrupole moment (field-independent basis, Debye-Ang):
   XX=            -84.8356   YY=            -85.2812   ZZ=            -84.5667
   XY=              0.4090   XZ=             -1.2274   YZ=             -0.8684

 Normal termination of Gaussian 16 at Wed May  5 19:52:30 2021.
