 Gaussian 16, Revision A.03,
 Gaussian 16:  EM64L-G16RevA.03 25-Dec-2016

 -------------
 #p 6-31g* mp2
 -------------

 ------------------------------------------------------
 Input file generated by CHIRIPA (05-May-2021 14:55:23)
 ------------------------------------------------------
 Symbolic Z-matrix:
 Charge =  0 Multiplicity = 1

                         Standard orientation:
 ---------------------------------------------------------------------
 Center     Atomic      Atomic             Coordinates (Angstroms)
 Number     Number       Type             X           Y           Z
 ---------------------------------------------------------------------
      1          6           0        5.703950   -0.967461    0.322142
      2          6           0        4.794772   -1.745775   -0.401836
      3          6           0        3.488535   -1.296143   -0.616601
      4          6           0        3.123601   -0.057746   -0.090782
      5          6           0        4.006410    0.740752    0.634709
      6          6           0        5.307566    0.271135    0.837196
      7          1           0        6.716692   -1.324509    0.484207
      8          1           0        5.099835   -2.708088   -0.803005
      9          1           0        2.764362   -1.878353   -1.173398
     10          1           0        3.673078    1.695791    1.022278
     11          1           0        6.011516    0.877715    1.399833
     12          7           0        1.743436    0.428838   -0.311644
     13          8           0        1.446606    1.523449    0.162018
     14          8           0        0.984626   -0.293602   -0.954237
     15          6           0       -4.916276   -0.211373   -0.130198
     16          6           0       -5.091036   -1.520065    0.641015
     17          6           0       -6.349669   -2.284803    0.230146
     18          1           0       -5.800003    0.421541    0.029147
     19          1           0       -4.878523   -0.430285   -1.206324
     20          1           0       -5.127060   -1.298888    1.715445
     21          1           0       -4.206705   -2.149858    0.479971
     22          1           0       -6.318273   -2.534210   -0.835411
     23          1           0       -7.243858   -1.678404    0.407083
     24          1           0       -6.454954   -3.217034    0.793814
     25          6           0       -3.662460    0.564503    0.269413
     26          6           0       -3.487699    1.873194   -0.501800
     27          6           0       -2.229066    2.637933   -0.090931
     28          1           0       -3.700213    0.783415    1.345539
     29          1           0       -2.778732   -0.068412    0.110068
     30          1           0       -4.372030    2.502987   -0.340756
     31          1           0       -3.451675    1.652017   -1.576230
     32          1           0       -1.334878    2.031534   -0.267868
     33          1           0       -2.260462    2.887339    0.974626
     34          1           0       -2.123781    3.570163   -0.654599
 ---------------------------------------------------------------------

 SCF Done:  E(RHF) =  -669.536880690     A.U. after   15 cycles
 E2 =    -0.2091321237D+01 EUMP2 =    -0.67162820192711D+03

 The electronic state is 1-A.
 Alpha  occ. eigenvalues --  -20.61113 -20.61094 -15.86096 -11.31375 -11.27927
 Alpha  occ. eigenvalues --  -11.27922 -11.27655 -11.26921 -11.26911 -11.20768
 Alpha  occ. eigenvalues --  -11.20405 -11.20353 -11.20110 -11.20014 -11.19047
 Alpha  occ. eigenvalues --   -1.60140  -1.39697  -1.19534  -1.08949  -1.07253
 Alpha  occ. eigenvalues --   -1.04921  -1.02295  -0.95798  -0.94722  -0.86324
 Alpha  occ. eigenvalues --   -0.85734  -0.82631  -0.78411  -0.77694  -0.77007
 Alpha  occ. eigenvalues --   -0.72305  -0.71441  -0.70642  -0.65188  -0.64924
 Alpha  occ. eigenvalues --   -0.63887  -0.62267  -0.59690  -0.58187  -0.56334
 Alpha  occ. eigenvalues --   -0.55431  -0.54001  -0.53256  -0.53011  -0.51442
 Alpha  occ. eigenvalues --   -0.51162  -0.49248  -0.49075  -0.48474  -0.46662
 Alpha  occ. eigenvalues --   -0.45430  -0.45119  -0.44550  -0.44393  -0.42562
 Alpha  occ. eigenvalues --   -0.37510  -0.36518
 Alpha virt. eigenvalues --    0.04840   0.11138   0.16352   0.21279   0.23970
 Alpha virt. eigenvalues --    0.25615   0.27201   0.27805   0.28168   0.28642
 Alpha virt. eigenvalues --    0.29353   0.30848   0.32390   0.32667   0.32794

 Mulliken charges:
               1
     1  C   -0.170385
     2  C   -0.218610
     3  C   -0.170647
     4  C    0.158495
     5  C   -0.170617
     6  C   -0.218584
     7  H    0.226295
     8  H    0.224081
     9  H    0.275871
    10  H    0.276289
    11  H    0.224165
    12  N    0.488656
    13  O   -0.456971
    14  O   -0.460411
    15  C   -0.297275
    16  C   -0.298915
    17  C   -0.474982
    18  H    0.146306
    19  H    0.148535
    20  H    0.149967
    21  H    0.152372
    22  H    0.154267
    23  H    0.153707
    24  H    0.157252
    25  C   -0.299961
    26  C   -0.297853
    27  C   -0.486553
    28  H    0.145327
    29  H    0.159754
    30  H    0.143972
    31  H    0.149755
    32  H    0.187911
    33  H    0.147091
    34  H    0.151694
 Sum of Mulliken charges =  -0.00000

 Dipole moment (field-independent basis, Debye):
    X=              5.3758    Y=             -1.7877    Z=              0.7485  Tot=              5.7145
 Quadrupole moment (field-independent basis, Debye-Ang):
   XX=            -66.7144   YY=            -92.1399   ZZ=            -93.9013
   XY=             -5.3216   XZ=              2.3080   YZ=              2.9172

 Normal termination of Gaussian 16 at Thu May  6 14:16:59 2021.
