 Gaussian 16, Revision A.03,
 Gaussian 16:  EM64L-G16RevA.03 25-Dec-2016

 -------------
 #p 6-31g* mp2
 -------------

 ------------------------------------------------------
 Input file generated by CHIRIPA (05-May-2021 14:51:14)
 ------------------------------------------------------
 Symbolic Z-matrix:
 Charge =  0 Multiplicity = 1

                         Standard orientation:
 ---------------------------------------------------------------------
 Center     Atomic      Atomic             Coordinates (Angstroms)
 Number     Number       Type             X           Y           Z
 ---------------------------------------------------------------------
      1          6           0        4.041536    0.685433   -0.332169
      2          6           0        4.980783    1.526501    0.532934
      3          6           0        5.403589    2.828856   -0.147435
      4          1           0        4.536887    0.458401   -1.286123
      5          1           0        3.149628    1.278867   -0.576568
      6          1           0        5.870022    0.931178    0.776779
      7          1           0        4.483212    1.751396    1.485016
      8          1           0        4.528521    3.445760   -0.376099
      9          1           0        5.923211    2.620882   -1.088361
     10          1           0        6.074743    3.414516    0.488500
     11          6           0        3.610050   -0.619660    0.334375
     12          6           0        2.670802   -1.460729   -0.530728
     13          6           0        2.247997   -2.763083    0.149642
     14          1           0        4.501958   -1.213095    0.578774
     15          1           0        3.114698   -0.392628    1.288329
     16          1           0        3.168374   -1.685623   -1.482810
     17          1           0        1.781564   -0.865405   -0.774573
     18          1           0        1.728374   -2.555109    1.090567
     19          1           0        3.123064   -3.379987    0.378305
     20          1           0        1.576843   -3.348744   -0.486294
     21          6           0       -4.446612    0.255546    0.337751
     22          6           0       -5.107517    1.378601   -0.462209
     23          6           0       -6.348187    1.945422    0.228621
     24          1           0       -5.176979   -0.548788    0.500702
     25          1           0       -4.172665    0.635116    1.331872
     26          1           0       -5.378885    0.997409   -1.455018
     27          1           0       -4.375434    2.180271   -0.623439
     28          1           0       -6.089809    2.351830    1.211817
     29          1           0       -7.098961    1.162247    0.375512
     30          1           0       -6.804787    2.746900   -0.360453
     31          6           0       -3.204974   -0.321320   -0.339957
     32          6           0       -2.544068   -1.444373    0.460003
     33          6           0       -1.303399   -2.011194   -0.230827
     34          1           0       -3.478920   -0.700889   -1.334079
     35          1           0       -2.474606    0.483015   -0.502908
     36          1           0       -3.276152   -2.246044    0.621233
     37          1           0       -2.272701   -1.063182    1.452812
     38          1           0       -0.552624   -1.228019   -0.377718
     39          1           0       -1.561777   -2.417602   -1.214023
     40          1           0       -0.846799   -2.812673    0.358247
 ---------------------------------------------------------------------

 SCF Done:  E(RHF) =  -470.732226783     A.U. after   11 cycles
 E2 =    -0.1583316015D+01 EUMP2 =    -0.47231554279757D+03

 The electronic state is 1-A.
 Alpha  occ. eigenvalues --  -11.21604 -11.21598 -11.21574 -11.21542 -11.21403
 Alpha  occ. eigenvalues --  -11.21389 -11.21344 -11.21327 -11.21074 -11.21071
 Alpha  occ. eigenvalues --  -11.20976 -11.20954  -1.08436  -1.08398  -1.03571
 Alpha  occ. eigenvalues --   -1.03448  -0.96067  -0.95851  -0.87089  -0.86865
 Alpha  occ. eigenvalues --   -0.79597  -0.79559  -0.78255  -0.78210  -0.65129
 Alpha  occ. eigenvalues --   -0.64987  -0.61132  -0.60730  -0.59494  -0.59172
 Alpha  occ. eigenvalues --   -0.57613  -0.57536  -0.55455  -0.55047  -0.52901
 Alpha  occ. eigenvalues --   -0.52449  -0.52386  -0.52285  -0.49924  -0.49856
 Alpha  occ. eigenvalues --   -0.47969  -0.47838  -0.46712  -0.46490  -0.45834
 Alpha  occ. eigenvalues --   -0.45752  -0.45719  -0.45570  -0.43891  -0.43596
 Alpha virt. eigenvalues --    0.21731   0.23071   0.23590   0.24978   0.26036
 Alpha virt. eigenvalues --    0.26778   0.27045   0.27293   0.27791   0.29185
 Alpha virt. eigenvalues --    0.30254   0.31124   0.31189   0.32016   0.32377

 Mulliken charges:
               1
     1  C   -0.298218
     2  C   -0.299606
     3  C   -0.475682
     4  H    0.149756
     5  H    0.149006
     6  H    0.152002
     7  H    0.151791
     8  H    0.155049
     9  H    0.155224
    10  H    0.160227
    11  C   -0.298169
    12  C   -0.304064
    13  C   -0.475602
    14  H    0.149589
    15  H    0.149298
    16  H    0.151906
    17  H    0.155218
    18  H    0.155274
    19  H    0.153843
    20  H    0.163269
    21  C   -0.298219
    22  C   -0.299604
    23  C   -0.475691
    24  H    0.149709
    25  H    0.149369
    26  H    0.151953
    27  H    0.151806
    28  H    0.155135
    29  H    0.155206
    30  H    0.160250
    31  C   -0.298355
    32  C   -0.300145
    33  C   -0.480650
    34  H    0.149563
    35  H    0.149035
    36  H    0.151719
    37  H    0.151237
    38  H    0.159186
    39  H    0.154106
    40  H    0.164276
 Sum of Mulliken charges =  -0.00000

 Dipole moment (field-independent basis, Debye):
    X=              0.0026    Y=             -0.0270    Z=             -0.0068  Tot=              0.0280
 Quadrupole moment (field-independent basis, Debye-Ang):
   XX=            -84.9549   YY=            -85.2607   ZZ=            -84.6755
   XY=              0.1154   XZ=              0.4116   YZ=              0.7164

 Normal termination of Gaussian 16 at Thu May  6 02:24:46 2021.
