 Gaussian 16, Revision A.03,
 Gaussian 16:  EM64L-G16RevA.03 25-Dec-2016

 -------------
 #p 6-31g* mp2
 -------------

 ------------------------------------------------------
 Input file generated by CHIRIPA (05-May-2021 14:57:23)
 ------------------------------------------------------
 Symbolic Z-matrix:
 Charge =  0 Multiplicity = 1

                         Standard orientation:
 ---------------------------------------------------------------------
 Center     Atomic      Atomic             Coordinates (Angstroms)
 Number     Number       Type             X           Y           Z
 ---------------------------------------------------------------------
      1          6           0       -2.391662   -1.787898    1.659748
      2          6           0       -1.735663   -1.529579    0.451668
      3          6           0       -2.261734   -0.608583   -0.459135
      4          6           0       -3.451014    0.038987   -0.128142
      5          6           0       -4.128038   -0.196845    1.067397
      6          6           0       -3.583654   -1.121881    1.963222
      7          1           0       -1.975884   -2.504919    2.361465
      8          1           0       -0.809791   -2.045337    0.213339
      9          1           0       -1.774561   -0.389596   -1.401539
     10          1           0       -5.049366    0.332881    1.277069
     11          1           0       -4.095279   -1.320503    2.900683
     12          7           0       -4.017636    1.016143   -1.084440
     13          8           0       -5.066766    1.573488   -0.769274
     14          8           0       -3.401895    1.206190   -2.131045
     15          6           0        3.486007    2.387958    1.072870
     16          6           0        2.248844    1.753959    0.917969
     17          6           0        2.165805    0.498407    0.308676
     18          6           0        3.345217   -0.096999   -0.136037
     19          6           0        4.592710    0.509213    0.003824
     20          6           0        4.651935    1.764660    0.616108
     21          1           0        3.541265    3.363261    1.547346
     22          1           0        1.341725    2.235653    1.271738
     23          1           0        1.221161   -0.014876    0.175988
     24          1           0        5.479653    0.004086   -0.358935
     25          1           0        5.614109    2.254677    0.735069
     26          7           0        3.269912   -1.426140   -0.782653
     27          8           0        4.323595   -1.929627   -1.165914
     28          8           0        2.158630   -1.939268   -0.893965
 ---------------------------------------------------------------------

 SCF Done:  E(RHF) =  -868.339790817     A.U. after   16 cycles
 E2 =    -0.2599484110D+01 EUMP2 =    -0.87093927492655D+03

 The electronic state is 1-A.
 Alpha  occ. eigenvalues --  -20.61475 -20.61418 -20.60832 -20.60825 -15.86488
 Alpha  occ. eigenvalues --  -15.85881 -11.31636 -11.31225 -11.28195 -11.28154
 Alpha  occ. eigenvalues --  -11.27851 -11.27808 -11.27737 -11.27474 -11.27130
 Alpha  occ. eigenvalues --  -11.27120 -11.26806 -11.26630  -1.60505  -1.59910
 Alpha  occ. eigenvalues --   -1.40073  -1.39462  -1.19780  -1.19387  -1.09209
 Alpha  occ. eigenvalues --   -1.08774  -1.05152  -1.04764  -0.96085  -0.95617
 Alpha  occ. eigenvalues --   -0.86563  -0.86147  -0.82931  -0.82433  -0.78023
 Alpha  occ. eigenvalues --   -0.77478  -0.72719  -0.72094  -0.71812  -0.71239
 Alpha  occ. eigenvalues --   -0.70891  -0.70464  -0.65439  -0.65162  -0.65012
 Alpha  occ. eigenvalues --   -0.64692  -0.62540  -0.62040  -0.55651  -0.55239
 Alpha  occ. eigenvalues --   -0.53489  -0.53297  -0.53073  -0.52787  -0.49482
 Alpha  occ. eigenvalues --   -0.49427  -0.48855  -0.48849  -0.45523  -0.44872
 Alpha  occ. eigenvalues --   -0.37739  -0.37368  -0.36743  -0.36393
 Alpha virt. eigenvalues --    0.04512   0.04974   0.10888   0.11258   0.16061
 Alpha virt. eigenvalues --    0.16316   0.20454   0.21857   0.25783   0.27344
 Alpha virt. eigenvalues --    0.28318   0.28910   0.30476   0.31271   0.32523

 Mulliken charges:
               1
     1  C   -0.172509
     2  C   -0.234174
     3  C   -0.178288
     4  C    0.158115
     5  C   -0.171988
     6  C   -0.218951
     7  H    0.227983
     8  H    0.246658
     9  H    0.279296
    10  H    0.275160
    11  H    0.223253
    12  N    0.487737
    13  O   -0.461047
    14  O   -0.459798
    15  C   -0.169882
    16  C   -0.219452
    17  C   -0.172469
    18  C    0.158329
    19  C   -0.170206
    20  C   -0.218455
    21  H    0.227932
    22  H    0.227081
    23  H    0.271224
    24  H    0.276353
    25  H    0.225168
    26  N    0.491545
    27  O   -0.455426
    28  O   -0.473188
 Sum of Mulliken charges =  -0.00000

 Dipole moment (field-independent basis, Debye):
    X=              2.4549    Y=              1.2556    Z=              5.6726  Tot=              6.3073
 Quadrupole moment (field-independent basis, Debye-Ang):
   XX=           -108.6610   YY=           -106.8005   ZZ=           -105.4608
   XY=             27.5617   XZ=             -7.7320   YZ=              0.4053

 Normal termination of Gaussian 16 at Thu May  6 00:15:39 2021.
