 Gaussian 16, Revision A.03,
 Gaussian 16:  EM64L-G16RevA.03 25-Dec-2016

 -------------
 #p 6-31g* mp2
 -------------

 ------------------------------------------------------
 Input file generated by CHIRIPA (05-May-2021 14:57:21)
 ------------------------------------------------------
 Symbolic Z-matrix:
 Charge =  0 Multiplicity = 1

                         Standard orientation:
 ---------------------------------------------------------------------
 Center     Atomic      Atomic             Coordinates (Angstroms)
 Number     Number       Type             X           Y           Z
 ---------------------------------------------------------------------
      1          6           0        3.316470    2.548592    0.542261
      2          6           0        3.533864    2.140930   -0.777993
      3          6           0        3.462374    0.788349   -1.124349
      4          6           0        3.169981   -0.133826   -0.120661
      5          6           0        2.948424    0.241099    1.203588
      6          6           0        3.024958    1.599050    1.527102
      7          1           0        3.373965    3.601395    0.802447
      8          1           0        3.760437    2.876148   -1.544911
      9          1           0        3.626295    0.445186   -2.138640
     10          1           0        2.724467   -0.515074    1.946194
     11          1           0        2.855667    1.912756    2.553247
     12          7           0        3.091627   -1.568585   -0.475241
     13          8           0        2.832423   -2.361375    0.427495
     14          8           0        3.290902   -1.873191   -1.649184
     15          6           0       -0.964204   -0.922327    0.940542
     16          6           0       -1.087952   -0.537462   -0.398519
     17          6           0       -2.312422   -0.081725   -0.896038
     18          6           0       -3.397389   -0.023396   -0.022692
     19          6           0       -3.305775   -0.399750    1.316433
     20          6           0       -2.071558   -0.852366    1.792243
     21          1           0       -0.009220   -1.275142    1.318596
     22          1           0       -0.229660   -0.590743   -1.062252
     23          1           0       -2.436176    0.222486   -1.928297
     24          1           0       -4.179213   -0.335552    1.953930
     25          1           0       -1.978383   -1.150601    2.832638
     26          7           0       -4.698840    0.457421   -0.537901
     27          8           0       -5.639626    0.499450    0.251904
     28          8           0       -4.753488    0.783150   -1.721773
 ---------------------------------------------------------------------

 SCF Done:  E(RHF) =  -868.338771474     A.U. after   16 cycles
 E2 =    -0.2600606131D+01 EUMP2 =    -0.87093937760530D+03

 The electronic state is 1-A.
 Alpha  occ. eigenvalues --  -20.62027 -20.61990 -20.60627 -20.60621 -15.87027
 Alpha  occ. eigenvalues --  -15.85679 -11.32261 -11.30979 -11.28824 -11.28743
 Alpha  occ. eigenvalues --  -11.28408 -11.27734 -11.27690 -11.27561 -11.27540
 Alpha  occ. eigenvalues --  -11.27198 -11.26544 -11.26505  -1.61078  -1.59704
 Alpha  occ. eigenvalues --   -1.40633  -1.39260  -1.20391  -1.19144  -1.09797
 Alpha  occ. eigenvalues --   -1.08537  -1.05754  -1.04543  -0.96659  -0.95384
 Alpha  occ. eigenvalues --   -0.87159  -0.85939  -0.83483  -0.82224  -0.78577
 Alpha  occ. eigenvalues --   -0.77295  -0.73228  -0.72437  -0.71896  -0.71462
 Alpha  occ. eigenvalues --   -0.71028  -0.70200  -0.66024  -0.65725  -0.64791
 Alpha  occ. eigenvalues --   -0.64545  -0.63105  -0.61900  -0.56212  -0.55007
 Alpha  occ. eigenvalues --   -0.54095  -0.53817  -0.52862  -0.52629  -0.50011
 Alpha  occ. eigenvalues --   -0.49973  -0.48657  -0.48651  -0.46038  -0.44680
 Alpha  occ. eigenvalues --   -0.38341  -0.37409  -0.37021  -0.36151
 Alpha virt. eigenvalues --    0.03891   0.05247   0.10207   0.11505   0.15448
 Alpha virt. eigenvalues --    0.16772   0.20148   0.21535   0.25848   0.26890
 Alpha virt. eigenvalues --    0.27224   0.28569   0.30263   0.30679   0.32412

 Mulliken charges:
               1
     1  C   -0.169285
     2  C   -0.217181
     3  C   -0.173411
     4  C    0.155050
     5  C   -0.176223
     6  C   -0.216148
     7  H    0.230307
     8  H    0.227907
     9  H    0.277842
    10  H    0.271976
    11  H    0.226570
    12  N    0.486570
    13  O   -0.463633
    14  O   -0.454763
    15  C   -0.174266
    16  C   -0.218659
    17  C   -0.171801
    18  C    0.157818
    19  C   -0.171249
    20  C   -0.220190
    21  H    0.232594
    22  H    0.223480
    23  H    0.274809
    24  H    0.274376
    25  H    0.221931
    26  N    0.488116
    27  O   -0.461383
    28  O   -0.461154
 Sum of Mulliken charges =  -0.00000

 Dipole moment (field-independent basis, Debye):
    X=              5.1820    Y=              3.5298    Z=              3.0020  Tot=              6.9516
 Quadrupole moment (field-independent basis, Debye-Ang):
   XX=           -134.2293   YY=           -106.5926   ZZ=            -96.6189
   XY=             23.0414   XZ=             -5.7660   YZ=             -2.5448

 Normal termination of Gaussian 16 at Thu May  6 04:54:15 2021.
