 Gaussian 16, Revision A.03,
 Gaussian 16:  EM64L-G16RevA.03 25-Dec-2016

 -------------
 #p 6-31g* mp2
 -------------

 ------------------------------------------------------
 Input file generated by CHIRIPA (05-May-2021 14:55:23)
 ------------------------------------------------------
 Symbolic Z-matrix:
 Charge =  0 Multiplicity = 1

                         Standard orientation:
 ---------------------------------------------------------------------
 Center     Atomic      Atomic             Coordinates (Angstroms)
 Number     Number       Type             X           Y           Z
 ---------------------------------------------------------------------
      1          6           0        2.619310    2.469371    0.987456
      2          6           0        1.441085    1.715559    0.978880
      3          6           0        1.400775    0.468254    0.348680
      4          6           0        2.562352    0.003182   -0.265922
      5          6           0        3.751472    0.730651   -0.274446
      6          6           0        3.768717    1.975382    0.361869
      7          1           0        2.641666    3.437307    1.479386
      8          1           0        0.546924    2.096691    1.463916
      9          1           0        0.502066   -0.136121    0.326981
     10          1           0        4.626838    0.324307   -0.766419
     11          1           0        4.685151    2.558622    0.366950
     12          7           0        2.531887   -1.315922   -0.936324
     13          8           0        3.568728   -1.703351   -1.470642
     14          8           0        1.471744   -1.937428   -0.914771
     15          6           0       -2.950804   -0.501183    0.849359
     16          6           0       -2.116568   -1.774206    0.702910
     17          6           0       -1.451835   -2.199299    2.012574
     18          1           0       -2.307990    0.310646    1.216329
     19          1           0       -3.720426   -0.661774    1.617012
     20          1           0       -1.349629   -1.611724   -0.065219
     21          1           0       -2.761401   -2.583050    0.336064
     22          1           0       -2.205748   -2.388601    2.783535
     23          1           0       -0.785955   -1.411756    2.379972
     24          1           0       -0.860520   -3.111414    1.885085
     25          6           0       -3.621671   -0.063517   -0.451454
     26          6           0       -4.455908    1.209505   -0.305003
     27          6           0       -5.120641    1.634598   -1.614667
     28          1           0       -2.852051    0.097073   -1.219105
     29          1           0       -4.264486   -0.875347   -0.818423
     30          1           0       -3.811075    2.018350    0.061842
     31          1           0       -5.222846    1.047023    0.463126
     32          1           0       -5.786520    0.847056   -1.982066
     33          1           0       -4.366728    1.823901   -2.385628
     34          1           0       -5.711957    2.546713   -1.487179
 ---------------------------------------------------------------------

 SCF Done:  E(RHF) =  -669.535574605     A.U. after   15 cycles
 E2 =    -0.2092742665D+01 EUMP2 =    -0.67162831726984D+03

 The electronic state is 1-A.
 Alpha  occ. eigenvalues --  -20.60858 -20.60853 -15.85900 -11.31226 -11.27798
 Alpha  occ. eigenvalues --  -11.27768 -11.27538 -11.26811 -11.26800 -11.21803
 Alpha  occ. eigenvalues --  -11.21634 -11.21505 -11.21442 -11.21204 -11.20998
 Alpha  occ. eigenvalues --   -1.59925  -1.39481  -1.19401  -1.08804  -1.08569
 Alpha  occ. eigenvalues --   -1.04803  -1.03598  -0.96060  -0.95642  -0.87074
 Alpha  occ. eigenvalues --   -0.86203  -0.82480  -0.79647  -0.78371  -0.77534
 Alpha  occ. eigenvalues --   -0.72128  -0.71241  -0.70528  -0.65325  -0.65057
 Alpha  occ. eigenvalues --   -0.64753  -0.62234  -0.60895  -0.59404  -0.57636
 Alpha  occ. eigenvalues --   -0.55428  -0.55258  -0.53131  -0.52881  -0.52704
 Alpha  occ. eigenvalues --   -0.52465  -0.50036  -0.48906  -0.48872  -0.47940
 Alpha  occ. eigenvalues --   -0.46683  -0.45932  -0.45802  -0.44889  -0.43860
 Alpha  occ. eigenvalues --   -0.37382  -0.36399
 Alpha virt. eigenvalues --    0.04984   0.11228   0.16483   0.19043   0.23050
 Alpha virt. eigenvalues --    0.23973   0.25451   0.26705   0.27847   0.28242
 Alpha virt. eigenvalues --    0.29880   0.30559   0.31532   0.31772   0.31937

 Mulliken charges:
               1
     1  C   -0.170107
     2  C   -0.224098
     3  C   -0.176592
     4  C    0.155194
     5  C   -0.169578
     6  C   -0.219145
     7  H    0.225892
     8  H    0.224411
     9  H    0.291886
    10  H    0.275709
    11  H    0.223653
    12  N    0.489666
    13  O   -0.459560
    14  O   -0.465159
    15  C   -0.297879
    16  C   -0.316101
    17  C   -0.474907
    18  H    0.135360
    19  H    0.151158
    20  H    0.169953
    21  H    0.157561
    22  H    0.153940
    23  H    0.144176
    24  H    0.171488
    25  C   -0.298397
    26  C   -0.298765
    27  C   -0.475825
    28  H    0.150747
    29  H    0.153231
    30  H    0.147073
    31  H    0.152407
    32  H    0.156916
    33  H    0.155891
    34  H    0.159801
 Sum of Mulliken charges =  -0.00000

 Dipole moment (field-independent basis, Debye):
    X=              0.1142    Y=              4.4762    Z=              2.2493  Tot=              5.0109
 Quadrupole moment (field-independent basis, Debye-Ang):
   XX=            -88.9349   YY=            -94.7502   ZZ=            -97.3563
   XY=             13.7548   XZ=              4.2537   YZ=             -1.0909

 Normal termination of Gaussian 16 at Wed May  5 17:33:09 2021.
