 Gaussian 16, Revision A.03,
 Gaussian 16:  EM64L-G16RevA.03 25-Dec-2016

 -------------
 #p 6-31g* mp2
 -------------

 ------------------------------------------------------
 Input file generated by CHIRIPA (05-May-2021 14:51:12)
 ------------------------------------------------------
 Symbolic Z-matrix:
 Charge =  0 Multiplicity = 1

                         Standard orientation:
 ---------------------------------------------------------------------
 Center     Atomic      Atomic             Coordinates (Angstroms)
 Number     Number       Type             X           Y           Z
 ---------------------------------------------------------------------
      1          6           0       -4.171278   -0.051919   -0.372720
      2          6           0       -5.573044    0.166182    0.197779
      3          6           0       -6.623079    0.402534   -0.888203
      4          1           0       -3.887486    0.821823   -0.975200
      5          1           0       -4.191339   -0.910798   -1.057789
      6          1           0       -5.550044    1.023539    0.882633
      7          1           0       -5.853454   -0.708098    0.799128
      8          1           0       -6.675346   -0.455084   -1.566702
      9          1           0       -6.370211    1.286392   -1.482723
     10          1           0       -7.617775    0.556087   -0.458248
     11          6           0       -3.110572   -0.289534    0.700672
     12          6           0       -1.708806   -0.507635    0.130173
     13          6           0       -0.658771   -0.743988    1.216155
     14          1           0       -3.090511    0.569344    1.385741
     15          1           0       -3.394364   -1.163276    1.303152
     16          1           0       -1.428396    0.366645   -0.471176
     17          1           0       -1.731806   -1.364993   -0.554681
     18          1           0       -0.911639   -1.627846    1.810675
     19          1           0       -0.606504    0.113630    1.894654
     20          1           0        0.335924   -0.897541    0.786200
     21          6           0        3.960805    0.863617   -0.132158
     22          6           0        2.940536    1.998965   -0.042589
     23          6           0        3.595799    3.378988    0.020343
     24          1           0        4.632105    0.913098    0.736088
     25          1           0        4.588507    1.013396   -1.021512
     26          1           0        2.314045    1.846338    0.845573
     27          1           0        2.271467    1.946659   -0.911050
     28          1           0        4.206156    3.556644   -0.871007
     29          1           0        4.248976    3.455753    0.895597
     30          1           0        2.848245    4.175841    0.083970
     31          6           0        3.321045   -0.522163   -0.195794
     32          6           0        4.341314   -1.657511   -0.285364
     33          6           0        3.686051   -3.037534   -0.348294
     34          1           0        2.693343   -0.671942    0.693561
     35          1           0        2.649745   -0.571645   -1.064040
     36          1           0        5.010383   -1.605206    0.583098
     37          1           0        4.967805   -1.504884   -1.173524
     38          1           0        3.032874   -3.114299   -1.223548
     39          1           0        3.075694   -3.215190    0.543055
     40          1           0        4.433605   -3.834387   -0.411923
 ---------------------------------------------------------------------

 SCF Done:  E(RHF) =  -470.733231406     A.U. after   11 cycles
 E2 =    -0.1582816085D+01 EUMP2 =    -0.47231604749125D+03

 The electronic state is 1-A.
 Alpha  occ. eigenvalues --  -11.21617 -11.21604 -11.21583 -11.21550 -11.21420
 Alpha  occ. eigenvalues --  -11.21373 -11.21360 -11.21313 -11.21083 -11.21079
 Alpha  occ. eigenvalues --  -11.21057 -11.20961  -1.08453  -1.08392  -1.03541
 Alpha  occ. eigenvalues --   -1.03488  -0.96004  -0.95929  -0.87023  -0.86947
 Alpha  occ. eigenvalues --   -0.79614  -0.79550  -0.78277  -0.78206  -0.65084
 Alpha  occ. eigenvalues --   -0.65024  -0.60940  -0.60883  -0.59400  -0.59292
 Alpha  occ. eigenvalues --   -0.57687  -0.57472  -0.55283  -0.55225  -0.52780
 Alpha  occ. eigenvalues --   -0.52642  -0.52430  -0.52276  -0.49931  -0.49883
 Alpha  occ. eigenvalues --   -0.47980  -0.47824  -0.46646  -0.46580  -0.45795
 Alpha  occ. eigenvalues --   -0.45756  -0.45727  -0.45670  -0.43808  -0.43656
 Alpha virt. eigenvalues --    0.21817   0.23113   0.23941   0.24250   0.26121
 Alpha virt. eigenvalues --    0.26538   0.26849   0.27644   0.27957   0.29201
 Alpha virt. eigenvalues --    0.30787   0.31386   0.31642   0.31874   0.32093

 Mulliken charges:
               1
     1  C   -0.298196
     2  C   -0.299596
     3  C   -0.475678
     4  H    0.149524
     5  H    0.149422
     6  H    0.151874
     7  H    0.151905
     8  H    0.155142
     9  H    0.155121
    10  H    0.160183
    11  C   -0.298402
    12  C   -0.298877
    13  C   -0.484117
    14  H    0.149365
    15  H    0.149517
    16  H    0.151934
    17  H    0.151616
    18  H    0.154187
    19  H    0.154014
    20  H    0.169695
    21  C   -0.297676
    22  C   -0.300601
    23  C   -0.475684
    24  H    0.149659
    25  H    0.149535
    26  H    0.153243
    27  H    0.151723
    28  H    0.155192
    29  H    0.155237
    30  H    0.160134
    31  C   -0.304688
    32  C   -0.298913
    33  C   -0.476457
    34  H    0.155687
    35  H    0.149729
    36  H    0.151996
    37  H    0.151964
    38  H    0.155137
    39  H    0.155639
    40  H    0.160507
 Sum of Mulliken charges =  -0.00000

 Dipole moment (field-independent basis, Debye):
    X=              0.0447    Y=             -0.0034    Z=             -0.0036  Tot=              0.0450
 Quadrupole moment (field-independent basis, Debye-Ang):
   XX=            -85.6464   YY=            -84.9285   ZZ=            -84.2109
   XY=             -0.0284   XZ=             -0.5115   YZ=              0.0627

 Normal termination of Gaussian 16 at Thu May  6 03:53:08 2021.
