 Gaussian 16, Revision A.03,
 Gaussian 16:  EM64L-G16RevA.03 25-Dec-2016

 -------------
 #p 6-31g* mp2
 -------------

 ------------------------------------------------------
 Input file generated by CHIRIPA (05-May-2021 14:53:13)
 ------------------------------------------------------
 Symbolic Z-matrix:
 Charge =  0 Multiplicity = 1

                         Standard orientation:
 ---------------------------------------------------------------------
 Center     Atomic      Atomic             Coordinates (Angstroms)
 Number     Number       Type             X           Y           Z
 ---------------------------------------------------------------------
      1          6           0       -4.330637    0.266392   -0.426702
      2          6           0       -5.132402   -0.846062    0.249762
      3          6           0       -6.245489   -1.398202   -0.641289
      4          1           0       -5.012080    1.079834   -0.711121
      5          1           0       -3.897267   -0.119032   -1.359994
      6          1           0       -5.562987   -0.459054    1.182198
      7          1           0       -4.448943   -1.656867    0.532775
      8          1           0       -5.829668   -1.810233   -1.566451
      9          1           0       -6.950042   -0.605614   -0.913339
     10          1           0       -6.805913   -2.192271   -0.138060
     11          6           0       -3.214240    0.828533    0.451582
     12          6           0       -2.412476    1.940987   -0.224883
     13          6           0       -1.299388    2.493127    0.666169
     14          1           0       -3.647610    1.213957    1.384873
     15          1           0       -2.532798    0.015091    0.736000
     16          1           0       -3.095935    2.751791   -0.507896
     17          1           0       -1.981890    1.553979   -1.157319
     18          1           0       -0.594835    1.700539    0.938218
     19          1           0       -1.715210    2.905158    1.591331
     20          1           0       -0.738965    3.287196    0.162939
     21          6           0        4.962962    1.038913   -0.399246
     22          6           0        3.687831    1.608341   -0.319789
     23          6           0        2.563843    0.805385   -0.104241
     24          6           0        2.752343   -0.569493    0.027940
     25          6           0        4.009801   -1.166614   -0.046448
     26          6           0        5.119601   -0.344309   -0.262563
     27          1           0        5.830592    1.670185   -0.566909
     28          1           0        3.563183    2.682268   -0.425569
     29          1           0        1.565220    1.219933   -0.038512
     30          1           0        4.102446   -2.240336    0.062897
     31          1           0        6.108684   -0.789289   -0.323828
     32          7           0        1.569938   -1.429788    0.256431
     33          8           0        1.762695   -2.638373    0.369590
     34          8           0        0.472801   -0.879214    0.318036
 ---------------------------------------------------------------------

 SCF Done:  E(RHF) =  -669.536197050     A.U. after   15 cycles
 E2 =    -0.2092095648D+01 EUMP2 =    -0.67162829269774D+03

 The electronic state is 1-A.
 Alpha  occ. eigenvalues --  -20.60988 -20.60973 -15.86017 -11.31269 -11.27837
 Alpha  occ. eigenvalues --  -11.27790 -11.27567 -11.26833 -11.26813 -11.20987
 Alpha  occ. eigenvalues --  -11.20821 -11.20686 -11.20581 -11.20424 -11.20402
 Alpha  occ. eigenvalues --   -1.60044  -1.39604  -1.19438  -1.08857  -1.07644
 Alpha  occ. eigenvalues --   -1.04824  -1.02874  -0.95713  -0.95339  -0.86393
 Alpha  occ. eigenvalues --   -0.86214  -0.82546  -0.78950  -0.77628  -0.77412
 Alpha  occ. eigenvalues --   -0.72252  -0.71353  -0.70554  -0.65103  -0.64846
 Alpha  occ. eigenvalues --   -0.64233  -0.62201  -0.60234  -0.58726  -0.56952
 Alpha  occ. eigenvalues --   -0.55351  -0.54617  -0.53162  -0.52915  -0.52097
 Alpha  occ. eigenvalues --   -0.51772  -0.49366  -0.48990  -0.48877  -0.47254
 Alpha  occ. eigenvalues --   -0.45933  -0.45045  -0.44995  -0.44815  -0.43102
 Alpha  occ. eigenvalues --   -0.37420  -0.36422
 Alpha virt. eigenvalues --    0.04907   0.11217   0.16423   0.20846   0.23510
 Alpha virt. eigenvalues --    0.24482   0.26914   0.27423   0.27930   0.28434
 Alpha virt. eigenvalues --    0.29548   0.30789   0.31665   0.32124   0.32527

 Mulliken charges:
               1
     1  C   -0.297790
     2  C   -0.300387
     3  C   -0.475357
     4  H    0.144947
     5  H    0.150777
     6  H    0.149510
     7  H    0.157935
     8  H    0.155245
     9  H    0.152557
    10  H    0.158813
    11  C   -0.306086
    12  C   -0.295104
    13  C   -0.491804
    14  H    0.144604
    15  H    0.173089
    16  H    0.147594
    17  H    0.152912
    18  H    0.172810
    19  H    0.155432
    20  H    0.147892
    21  C   -0.170057
    22  C   -0.222105
    23  C   -0.174164
    24  C    0.154702
    25  C   -0.169805
    26  C   -0.219131
    27  H    0.225958
    28  H    0.224649
    29  H    0.287527
    30  H    0.275616
    31  H    0.223670
    32  N    0.492741
    33  O   -0.458683
    34  O   -0.468508
 Sum of Mulliken charges =  -0.00000

 Dipole moment (field-independent basis, Debye):
    X=              4.3393    Y=              2.8113    Z=             -0.7620  Tot=              5.2263
 Quadrupole moment (field-independent basis, Debye-Ang):
   XX=            -71.3871   YY=            -95.5664   ZZ=            -95.8947
   XY=              2.8901   XZ=             -2.9159   YZ=              0.3765

 Normal termination of Gaussian 16 at Thu May  6 07:22:30 2021.
