 Gaussian 16, Revision A.03,
 Gaussian 16:  EM64L-G16RevA.03 25-Dec-2016

 -------------
 #p 6-31g* mp2
 -------------

 ------------------------------------------------------
 Input file generated by CHIRIPA (05-May-2021 14:55:24)
 ------------------------------------------------------
 Symbolic Z-matrix:
 Charge =  0 Multiplicity = 1

                         Standard orientation:
 ---------------------------------------------------------------------
 Center     Atomic      Atomic             Coordinates (Angstroms)
 Number     Number       Type             X           Y           Z
 ---------------------------------------------------------------------
      1          6           0       -2.510453    0.140811    2.510552
      2          6           0       -1.337883   -0.194124    1.825410
      3          6           0       -1.341120   -0.322927    0.433309
      4          6           0       -2.540005   -0.108793   -0.245008
      5          6           0       -3.724599    0.226038    0.409144
      6          6           0       -3.697975    0.349455    1.801483
      7          1           0       -2.498854    0.238776    3.592063
      8          1           0       -0.414183   -0.356738    2.373480
      9          1           0       -0.447769   -0.581227   -0.122228
     10          1           0       -4.630062    0.382043   -0.164631
     11          1           0       -4.610119    0.609674    2.330939
     12          7           0       -2.555811   -0.242301   -1.718889
     13          8           0       -3.624969   -0.048501   -2.293328
     14          8           0       -1.498743   -0.538216   -2.271771
     15          6           0        3.008755   -0.551807    0.297334
     16          6           0        3.787334   -1.761567   -0.220623
     17          6           0        3.297324   -3.080404    0.378004
     18          1           0        3.091020   -0.512175    1.392144
     19          1           0        1.942353   -0.685552    0.068654
     20          1           0        4.852133   -1.624936    0.007740
     21          1           0        3.703364   -1.798215   -1.314343
     22          1           0        2.241515   -3.243395    0.138628
     23          1           0        3.396812   -3.069132    1.468222
     24          1           0        3.867626   -3.932000   -0.005922
     25          6           0        3.486988    0.773989   -0.291973
     26          6           0        2.708408    1.983749    0.225986
     27          6           0        3.198418    3.302585   -0.372643
     28          1           0        4.553390    0.907733   -0.063292
     29          1           0        3.404722    0.734357   -1.386782
     30          1           0        2.792379    2.020397    1.319705
     31          1           0        1.643609    1.847118   -0.002378
     32          1           0        3.098931    3.291314   -1.462861
     33          1           0        4.254228    3.465577   -0.133266
     34          1           0        2.628117    4.154182    0.011284
 ---------------------------------------------------------------------

 SCF Done:  E(RHF) =  -669.535753069     A.U. after   15 cycles
 E2 =    -0.2091832718D+01 EUMP2 =    -0.67162758578650D+03

 The electronic state is 1-A.
 Alpha  occ. eigenvalues --  -20.60783 -20.60777 -15.85833 -11.31175 -11.27741
 Alpha  occ. eigenvalues --  -11.27724 -11.27476 -11.26761 -11.26732 -11.21960
 Alpha  occ. eigenvalues --  -11.21890 -11.21873 -11.21647 -11.21363 -11.21212
 Alpha  occ. eigenvalues --   -1.59856  -1.39411  -1.19345  -1.08780  -1.08744
 Alpha  occ. eigenvalues --   -1.04743  -1.03802  -0.96263  -0.95584  -0.87274
 Alpha  occ. eigenvalues --   -0.86144  -0.82416  -0.79877  -0.78646  -0.77456
 Alpha  occ. eigenvalues --   -0.72053  -0.71178  -0.70466  -0.65432  -0.64994
 Alpha  occ. eigenvalues --   -0.64724  -0.62099  -0.61182  -0.59631  -0.57880
 Alpha  occ. eigenvalues --   -0.55559  -0.55239  -0.53077  -0.52925  -0.52852
 Alpha  occ. eigenvalues --   -0.52675  -0.50192  -0.48811  -0.48808  -0.48194
 Alpha  occ. eigenvalues --   -0.46905  -0.46147  -0.46062  -0.44821  -0.44090
 Alpha  occ. eigenvalues --   -0.37326  -0.36339
 Alpha virt. eigenvalues --    0.05044   0.11286   0.16535   0.19544   0.22920
 Alpha virt. eigenvalues --    0.24014   0.24730   0.26097   0.27704   0.28138
 Alpha virt. eigenvalues --    0.30387   0.30718   0.31273   0.31624   0.31842

 Mulliken charges:
               1
     1  C   -0.170841
     2  C   -0.221557
     3  C   -0.182056
     4  C    0.160708
     5  C   -0.170342
     6  C   -0.218735
     7  H    0.225629
     8  H    0.225461
     9  H    0.286381
    10  H    0.275527
    11  H    0.223448
    12  N    0.487289
    13  O   -0.460189
    14  O   -0.460971
    15  C   -0.304120
    16  C   -0.299591
    17  C   -0.476691
    18  H    0.145809
    19  H    0.145193
    20  H    0.153425
    21  H    0.158275
    22  H    0.155197
    23  H    0.152390
    24  H    0.163514
    25  C   -0.298339
    26  C   -0.301325
    27  C   -0.476066
    28  H    0.150895
    29  H    0.156467
    30  H    0.147995
    31  H    0.152064
    32  H    0.159428
    33  H    0.155200
    34  H    0.160529
 Sum of Mulliken charges =  -0.00000

 Dipole moment (field-independent basis, Debye):
    X=              0.1732    Y=              0.4839    Z=              5.0955  Tot=              5.1213
 Quadrupole moment (field-independent basis, Debye-Ang):
   XX=            -89.3394   YY=            -96.2898   ZZ=            -97.4173
   XY=             -2.7352   XZ=            -13.1560   YZ=             -0.2587

 Normal termination of Gaussian 16 at Thu May  6 03:10:43 2021.
