 Gaussian 16, Revision A.03,
 Gaussian 16:  EM64L-G16RevA.03 25-Dec-2016

 -------------
 #p 6-31g* mp2
 -------------

 ------------------------------------------------------
 Input file generated by CHIRIPA (05-May-2021 14:51:10)
 ------------------------------------------------------
 Symbolic Z-matrix:
 Charge =  0 Multiplicity = 1

                         Standard orientation:
 ---------------------------------------------------------------------
 Center     Atomic      Atomic             Coordinates (Angstroms)
 Number     Number       Type             X           Y           Z
 ---------------------------------------------------------------------
      1          6           0       -3.749234   -0.773608    0.033269
      2          6           0       -4.554113    0.519001    0.172254
      3          6           0       -6.048604    0.266103    0.373084
      4          1           0       -4.141566   -1.353083   -0.813625
      5          1           0       -3.900483   -1.389772    0.930409
      6          1           0       -4.400293    1.133161   -0.724274
      7          1           0       -4.159695    1.095556    1.018797
      8          1           0       -6.220977   -0.325979    1.277698
      9          1           0       -6.462942   -0.288161   -0.475277
     10          1           0       -6.604944    1.203618    0.470102
     11          6           0       -2.253475   -0.537206   -0.168092
     12          6           0       -1.448596   -1.829815   -0.307077
     13          6           0        0.045896   -1.576918   -0.507907
     14          1           0       -2.102225    0.078958   -1.065232
     15          1           0       -1.861142    0.042269    0.678802
     16          1           0       -1.843013   -2.406370   -1.153620
     17          1           0       -1.602416   -2.443975    0.589451
     18          1           0        0.460234   -1.022654    0.340454
     19          1           0        0.218269   -0.984835   -1.412521
     20          1           0        0.602235   -2.514432   -0.604925
     21          6           0        2.627052    1.166193   -0.359704
     22          6           0        1.924991    2.246750    0.463396
     23          6           0        1.180540    3.261214   -0.405196
     24          1           0        3.331808    1.643362   -1.054380
     25          1           0        1.883220    0.644916   -0.978072
     26          1           0        2.669717    2.764912    1.081057
     27          1           0        1.221964    1.766942    1.156326
     28          1           0        0.416758    2.762786   -1.010841
     29          1           0        1.872736    3.766426   -1.086537
     30          1           0        0.685985    4.024575    0.203537
     31          6           0        3.375657    0.144621    0.494527
     32          6           0        4.077717   -0.935936   -0.328572
     33          6           0        4.822168   -1.950399    0.540019
     34          1           0        4.119489    0.665898    1.112895
     35          1           0        2.670901   -0.332548    1.189203
     36          1           0        4.780744   -0.456127   -1.021503
     37          1           0        3.332991   -1.454098   -0.946234
     38          1           0        4.129972   -2.455611    1.221360
     39          1           0        5.585952   -1.451971    1.145664
     40          1           0        5.316723   -2.713760   -0.068714
 ---------------------------------------------------------------------

 SCF Done:  E(RHF) =  -470.731959808     A.U. after   11 cycles
 E2 =    -0.1584741516D+01 EUMP2 =    -0.47231670132397D+03

 The electronic state is 1-A.
 Alpha  occ. eigenvalues --  -11.21691 -11.21639 -11.21528 -11.21486 -11.21485
 Alpha  occ. eigenvalues --  -11.21417 -11.21271 -11.21182 -11.21160 -11.21100
 Alpha  occ. eigenvalues --  -11.21011 -11.21000  -1.08515  -1.08316  -1.03609
 Alpha  occ. eigenvalues --   -1.03440  -0.96100  -0.95862  -0.87097  -0.86906
 Alpha  occ. eigenvalues --   -0.79703  -0.79500  -0.78331  -0.78125  -0.65174
 Alpha  occ. eigenvalues --   -0.64964  -0.61012  -0.60864  -0.59418  -0.59251
 Alpha  occ. eigenvalues --   -0.57718  -0.57489  -0.55417  -0.55160  -0.52764
 Alpha  occ. eigenvalues --   -0.52590  -0.52526  -0.52233  -0.50091  -0.49770
 Alpha  occ. eigenvalues --   -0.48058  -0.47796  -0.46767  -0.46523  -0.45993
 Alpha  occ. eigenvalues --   -0.45843  -0.45536  -0.45317  -0.43848  -0.43678
 Alpha virt. eigenvalues --    0.20487   0.22850   0.23790   0.24653   0.25072
 Alpha virt. eigenvalues --    0.26036   0.27210   0.27573   0.28151   0.30036
 Alpha virt. eigenvalues --    0.30567   0.31086   0.31652   0.31915   0.32080

 Mulliken charges:
               1
     1  C   -0.298311
     2  C   -0.299728
     3  C   -0.475772
     4  H    0.149894
     5  H    0.149723
     6  H    0.152130
     7  H    0.152153
     8  H    0.155224
     9  H    0.155232
    10  H    0.160481
    11  C   -0.298958
    12  C   -0.300520
    13  C   -0.481641
    14  H    0.149338
    15  H    0.149849
    16  H    0.152291
    17  H    0.152173
    18  H    0.161304
    19  H    0.156645
    20  H    0.160959
    21  C   -0.305151
    22  C   -0.299641
    23  C   -0.475684
    24  H    0.148854
    25  H    0.158318
    26  H    0.151636
    27  H    0.150509
    28  H    0.155277
    29  H    0.154932
    30  H    0.159834
    31  C   -0.299103
    32  C   -0.302395
    33  C   -0.475703
    34  H    0.149196
    35  H    0.149786
    36  H    0.151399
    37  H    0.155954
    38  H    0.154911
    39  H    0.154870
    40  H    0.159737
 Sum of Mulliken charges =  -0.00000

 Dipole moment (field-independent basis, Debye):
    X=             -0.0620    Y=             -0.0402    Z=             -0.0245  Tot=              0.0778
 Quadrupole moment (field-independent basis, Debye-Ang):
   XX=            -85.8073   YY=            -85.2064   ZZ=            -84.0157
   XY=              0.8849   XZ=             -0.0705   YZ=              0.3611

 Normal termination of Gaussian 16 at Wed May  5 19:47:16 2021.
