 Gaussian 16, Revision A.03,
 Gaussian 16:  EM64L-G16RevA.03 25-Dec-2016

 -------------
 #p 6-31g* mp2
 -------------

 ------------------------------------------------------
 Input file generated by CHIRIPA (05-May-2021 14:55:19)
 ------------------------------------------------------
 Symbolic Z-matrix:
 Charge =  0 Multiplicity = 1

                         Standard orientation:
 ---------------------------------------------------------------------
 Center     Atomic      Atomic             Coordinates (Angstroms)
 Number     Number       Type             X           Y           Z
 ---------------------------------------------------------------------
      1          6           0        4.946085    0.618103    0.022384
      2          6           0        3.869175    1.358333   -0.476461
      3          6           0        2.588177    0.800828   -0.529172
      4          6           0        2.419244   -0.505435   -0.072631
      5          6           0        3.472181   -1.268404    0.429855
      6          6           0        4.744506   -0.690596    0.473156
      7          1           0        5.937826    1.059073    0.059676
      8          1           0        4.022773    2.374905   -0.827223
      9          1           0        1.736809    1.351424   -0.910531
     10          1           0        3.287974   -2.279460    0.772274
     11          1           0        5.578997   -1.267823    0.861072
     12          7           0        1.067700   -1.106388   -0.123452
     13          8           0        0.945122   -2.259160    0.284871
     14          8           0        0.156529   -0.413264   -0.570647
     15          6           0       -3.637851   -0.061317   -0.341671
     16          6           0       -4.289768   -1.171788    0.482857
     17          6           0       -4.797102   -2.328099   -0.379322
     18          1           0       -4.363736    0.316853   -1.074490
     19          1           0       -2.803160   -0.483911   -0.917954
     20          1           0       -5.122111   -0.746948    1.058470
     21          1           0       -3.562307   -1.547228    1.213925
     22          1           0       -3.973600   -2.778779   -0.942645
     23          1           0       -5.542265   -1.973953   -1.098983
     24          1           0       -5.259388   -3.110703    0.230337
     25          6           0       -3.125657    1.101678    0.506165
     26          6           0       -2.473740    2.212149   -0.318363
     27          6           0       -1.966406    3.368459    0.543814
     28          1           0       -3.960348    1.524271    1.082447
     29          1           0       -2.399773    0.723508    1.238983
     30          1           0       -3.201200    2.587589   -1.049433
     31          1           0       -1.641397    1.787309   -0.893978
     32          1           0       -1.221242    3.014313    1.263476
     33          1           0       -2.789908    3.819140    1.107137
     34          1           0       -1.504120    4.151064   -0.065843
 ---------------------------------------------------------------------

 SCF Done:  E(RHF) =  -669.536567839     A.U. after   15 cycles
 E2 =    -0.2092052736D+01 EUMP2 =    -0.67162862057499D+03

 The electronic state is 1-A.
 Alpha  occ. eigenvalues --  -20.61124 -20.61115 -15.86142 -11.31388 -11.27941
 Alpha  occ. eigenvalues --  -11.27938 -11.27666 -11.26932 -11.26922 -11.20469
 Alpha  occ. eigenvalues --  -11.20390 -11.20271 -11.20075 -11.19883 -11.19801
 Alpha  occ. eigenvalues --   -1.60174  -1.39733  -1.19549  -1.08968  -1.07107
 Alpha  occ. eigenvalues --   -1.04933  -1.02384  -0.95823  -0.94850  -0.86338
 Alpha  occ. eigenvalues --   -0.85878  -0.82663  -0.78450  -0.77724  -0.76901
 Alpha  occ. eigenvalues --   -0.72382  -0.71480  -0.70657  -0.65216  -0.64936
 Alpha  occ. eigenvalues --   -0.63664  -0.62282  -0.59765  -0.58254  -0.56472
 Alpha  occ. eigenvalues --   -0.55441  -0.54131  -0.53269  -0.53022  -0.51617
 Alpha  occ. eigenvalues --   -0.51304  -0.49181  -0.49112  -0.48729  -0.46781
 Alpha  occ. eigenvalues --   -0.45424  -0.45158  -0.44472  -0.44260  -0.42582
 Alpha  occ. eigenvalues --   -0.37524  -0.36530
 Alpha virt. eigenvalues --    0.04794   0.11123   0.16297   0.20957   0.23857
 Alpha virt. eigenvalues --    0.25084   0.26996   0.27487   0.28293   0.29005
 Alpha virt. eigenvalues --    0.29201   0.30809   0.31776   0.32557   0.32674

 Mulliken charges:
               1
     1  C   -0.170297
     2  C   -0.218716
     3  C   -0.170704
     4  C    0.157134
     5  C   -0.170480
     6  C   -0.218630
     7  H    0.226420
     8  H    0.224505
     9  H    0.276694
    10  H    0.275974
    11  H    0.224151
    12  N    0.495127
    13  O   -0.458195
    14  O   -0.467335
    15  C   -0.305059
    16  C   -0.298771
    17  C   -0.475811
    18  H    0.140862
    19  H    0.173291
    20  H    0.145020
    21  H    0.156291
    22  H    0.160236
    23  H    0.150467
    24  H    0.155771
    25  C   -0.293084
    26  C   -0.305307
    27  C   -0.475424
    28  H    0.141528
    29  H    0.153406
    30  H    0.146222
    31  H    0.166858
    32  H    0.152237
    33  H    0.153302
    34  H    0.152319
 Sum of Mulliken charges =  -0.00000

 Dipole moment (field-independent basis, Debye):
    X=              5.1660    Y=              1.8928    Z=              0.1155  Tot=              5.5030
 Quadrupole moment (field-independent basis, Debye-Ang):
   XX=            -72.2851   YY=            -94.9497   ZZ=            -95.1176
   XY=              0.6235   XZ=              0.9766   YZ=             -2.7802

 Normal termination of Gaussian 16 at Thu May  6 06:04:37 2021.
