 Gaussian 16, Revision A.03,
 Gaussian 16:  EM64L-G16RevA.03 25-Dec-2016

 -------------
 #p 6-31g* mp2
 -------------

 ------------------------------------------------------
 Input file generated by CHIRIPA (05-May-2021 14:51:14)
 ------------------------------------------------------
 Symbolic Z-matrix:
 Charge =  0 Multiplicity = 1

                         Standard orientation:
 ---------------------------------------------------------------------
 Center     Atomic      Atomic             Coordinates (Angstroms)
 Number     Number       Type             X           Y           Z
 ---------------------------------------------------------------------
      1          6           0       -3.276652    0.658633   -0.464204
      2          6           0       -3.046599    1.697187    0.634189
      3          6           0       -3.942436    2.926872    0.482052
      4          1           0       -3.099344    1.124351   -1.443292
      5          1           0       -4.330925    0.349208   -0.451585
      6          1           0       -1.992761    2.003539    0.620402
      7          1           0       -3.224289    1.228891    1.610785
      8          1           0       -4.998617    2.640847    0.517710
      9          1           0       -3.760092    3.419897   -0.478301
     10          1           0       -3.761454    3.656332    1.277662
     11          6           0       -2.388389   -0.576496   -0.325743
     12          6           0       -2.618441   -1.615050   -1.424136
     13          6           0       -1.722605   -2.844735   -1.271999
     14          1           0       -1.334116   -0.267070   -0.338362
     15          1           0       -2.565696   -1.042214    0.653345
     16          1           0       -2.440752   -1.146754   -2.400732
     17          1           0       -3.672279   -1.921402   -1.410349
     18          1           0       -1.904949   -3.337760   -0.311646
     19          1           0       -0.666424   -2.558710   -1.307657
     20          1           0       -1.903587   -3.574194   -2.067609
     21          6           0        3.499153    0.004104    0.024850
     22          6           0        3.736740    1.363983   -0.632620
     23          6           0        5.074518    1.438832   -1.369193
     24          1           0        4.318038   -0.204733    0.726818
     25          1           0        3.539515   -0.779386   -0.744508
     26          1           0        3.694568    2.144812    0.137538
     27          1           0        2.917095    1.569694   -1.332964
     28          1           0        5.123105    0.680828   -2.157654
     29          1           0        5.904994    1.259214   -0.678797
     30          1           0        5.223853    2.419476   -1.831683
     31          6           0        2.165887   -0.086242    0.765098
     32          6           0        1.928300   -1.446120    1.422567
     33          6           0        0.590522   -1.520969    2.159141
     34          1           0        2.125526    0.697248    1.534455
     35          1           0        1.347003    0.122596    0.063129
     36          1           0        2.747946   -1.651830    2.122911
     37          1           0        1.970473   -2.226949    0.652410
     38          1           0       -0.239954   -1.341350    1.468744
     39          1           0        0.541936   -0.762964    2.947601
     40          1           0        0.441188   -2.501614    2.621629
 ---------------------------------------------------------------------

 SCF Done:  E(RHF) =  -470.732429458     A.U. after   11 cycles
 E2 =    -0.1584312846D+01 EUMP2 =    -0.47231674230386D+03

 The electronic state is 1-A.
 Alpha  occ. eigenvalues --  -11.21668 -11.21615 -11.21609 -11.21530 -11.21458
 Alpha  occ. eigenvalues --  -11.21405 -11.21394 -11.21346 -11.21135 -11.21081
 Alpha  occ. eigenvalues --  -11.21078 -11.20828  -1.08502  -1.08402  -1.03585
 Alpha  occ. eigenvalues --   -1.03473  -0.96030  -0.95928  -0.87055  -0.86941
 Alpha  occ. eigenvalues --   -0.79686  -0.79530  -0.78416  -0.78131  -0.65185
 Alpha  occ. eigenvalues --   -0.64985  -0.61003  -0.60871  -0.59400  -0.59298
 Alpha  occ. eigenvalues --   -0.57699  -0.57492  -0.55321  -0.55226  -0.52724
 Alpha  occ. eigenvalues --   -0.52618  -0.52544  -0.52281  -0.49971  -0.49911
 Alpha  occ. eigenvalues --   -0.48088  -0.47784  -0.46730  -0.46665  -0.46103
 Alpha  occ. eigenvalues --   -0.45758  -0.45708  -0.45152  -0.43830  -0.43748
 Alpha virt. eigenvalues --    0.20280   0.23187   0.23648   0.24719   0.25414
 Alpha virt. eigenvalues --    0.26242   0.26726   0.28072   0.28419   0.29694
 Alpha virt. eigenvalues --    0.30791   0.31225   0.31512   0.31913   0.32171

 Mulliken charges:
               1
     1  C   -0.296756
     2  C   -0.300241
     3  C   -0.475721
     4  H    0.149485
     5  H    0.149700
     6  H    0.152558
     7  H    0.152429
     8  H    0.155162
     9  H    0.155123
    10  H    0.160445
    11  C   -0.308137
    12  C   -0.298896
    13  C   -0.477734
    14  H    0.155228
    15  H    0.152676
    16  H    0.151788
    17  H    0.152331
    18  H    0.156662
    19  H    0.155367
    20  H    0.160702
    21  C   -0.298065
    22  C   -0.299578
    23  C   -0.475692
    24  H    0.150031
    25  H    0.149344
    26  H    0.151996
    27  H    0.151334
    28  H    0.155191
    29  H    0.155316
    30  H    0.160217
    31  C   -0.302106
    32  C   -0.299519
    33  C   -0.485977
    34  H    0.149796
    35  H    0.151052
    36  H    0.151550
    37  H    0.151694
    38  H    0.169057
    39  H    0.153593
    40  H    0.158598
 Sum of Mulliken charges =  -0.00000

 Dipole moment (field-independent basis, Debye):
    X=             -0.0651    Y=              0.0042    Z=             -0.0203  Tot=              0.0684
 Quadrupole moment (field-independent basis, Debye-Ang):
   XX=            -85.1976   YY=            -85.4318   ZZ=            -84.1531
   XY=              0.9230   XZ=              0.4674   YZ=              0.2013

 Normal termination of Gaussian 16 at Wed May  5 21:39:01 2021.
