 Gaussian 16, Revision A.03,
 Gaussian 16:  EM64L-G16RevA.03 25-Dec-2016

 -------------
 #p 6-31g* mp2
 -------------

 ------------------------------------------------------
 Input file generated by CHIRIPA (05-May-2021 14:55:22)
 ------------------------------------------------------
 Symbolic Z-matrix:
 Charge =  0 Multiplicity = 1

                         Standard orientation:
 ---------------------------------------------------------------------
 Center     Atomic      Atomic             Coordinates (Angstroms)
 Number     Number       Type             X           Y           Z
 ---------------------------------------------------------------------
      1          6           0        0.852900   -1.386965    1.427642
      2          6           0        1.670266   -2.221622    0.658368
      3          6           0        2.750644   -1.695174   -0.055905
      4          6           0        2.985796   -0.323343    0.022027
      5          6           0        2.189573    0.534167    0.779652
      6          6           0        1.114700   -0.014155    1.485726
      7          1           0        0.015775   -1.804419    1.979321
      8          1           0        1.469324   -3.288140    0.611403
      9          1           0        3.399427   -2.318465   -0.659234
     10          1           0        2.414915    1.593363    0.806919
     11          1           0        0.481601    0.636447    2.082339
     12          7           0        4.126629    0.245563   -0.729802
     13          8           0        4.312663    1.457493   -0.644638
     14          8           0        4.813177   -0.531232   -1.390012
     15          6           0       -3.104292    1.071545   -0.445588
     16          6           0       -2.296753    1.749710    0.661642
     17          6           0       -1.347309    2.822929    0.128209
     18          1           0       -2.413305    0.623299   -1.172607
     19          1           0       -3.679365    1.833564   -0.989659
     20          1           0       -1.724441    0.986463    1.204347
     21          1           0       -2.989744    2.196229    1.386210
     22          1           0       -1.905721    3.605210   -0.396018
     23          1           0       -0.633228    2.388571   -0.578913
     24          1           0       -0.779998    3.294771    0.936530
     25          6           0       -4.058005   -0.003756    0.071988
     26          6           0       -4.865545   -0.681919   -1.035242
     27          6           0       -5.814989   -1.755140   -0.501809
     28          1           0       -3.482932   -0.765775    0.616059
     29          1           0       -4.748993    0.444490    0.799007
     30          1           0       -4.172553   -1.128439   -1.759810
     31          1           0       -5.437856    0.081327   -1.577947
     32          1           0       -6.529069   -1.320782    0.205314
     33          1           0       -5.256577   -2.537421    0.022418
     34          1           0       -6.382300   -2.226981   -1.310129
 ---------------------------------------------------------------------

 SCF Done:  E(RHF) =  -669.535297596     A.U. after   15 cycles
 E2 =    -0.2092286184D+01 EUMP2 =    -0.67162758378050D+03

 The electronic state is 1-A.
 Alpha  occ. eigenvalues --  -20.60786 -20.60781 -15.85840 -11.31223 -11.27792
 Alpha  occ. eigenvalues --  -11.27777 -11.27540 -11.26815 -11.26780 -11.22345
 Alpha  occ. eigenvalues --  -11.22106 -11.22009 -11.21941 -11.21717 -11.21552
 Alpha  occ. eigenvalues --   -1.59861  -1.39414  -1.19398  -1.09042  -1.08789
 Alpha  occ. eigenvalues --   -1.04805  -1.04130  -0.96569  -0.95621  -0.87580
 Alpha  occ. eigenvalues --   -0.86202  -0.82449  -0.80208  -0.78857  -0.77494
 Alpha  occ. eigenvalues --   -0.72057  -0.71185  -0.70502  -0.65726  -0.65047
 Alpha  occ. eigenvalues --   -0.64789  -0.62237  -0.61440  -0.59941  -0.58186
 Alpha  occ. eigenvalues --   -0.55855  -0.55289  -0.53274  -0.53119  -0.52983
 Alpha  occ. eigenvalues --   -0.52885  -0.50495  -0.48827  -0.48811  -0.48509
 Alpha  occ. eigenvalues --   -0.47226  -0.46392  -0.46307  -0.44815  -0.44388
 Alpha  occ. eigenvalues --   -0.37371  -0.36379
 Alpha virt. eigenvalues --    0.05019   0.11133   0.16460   0.19994   0.22638
 Alpha virt. eigenvalues --    0.23734   0.25529   0.26108   0.26526   0.28777
 Alpha virt. eigenvalues --    0.29034   0.30164   0.30917   0.31229   0.32116

 Mulliken charges:
               1
     1  C   -0.172574
     2  C   -0.218505
     3  C   -0.170993
     4  C    0.158231
     5  C   -0.172759
     6  C   -0.217105
     7  H    0.225753
     8  H    0.223542
     9  H    0.275743
    10  H    0.276562
    11  H    0.227281
    12  N    0.488058
    13  O   -0.460039
    14  O   -0.460395
    15  C   -0.298757
    16  C   -0.301415
    17  C   -0.478960
    18  H    0.152999
    19  H    0.152530
    20  H    0.142337
    21  H    0.153268
    22  H    0.160434
    23  H    0.160628
    24  H    0.155084
    25  C   -0.297237
    26  C   -0.300278
    27  C   -0.475689
    28  H    0.143465
    29  H    0.150537
    30  H    0.152968
    31  H    0.154084
    32  H    0.155920
    33  H    0.153072
    34  H    0.162208
 Sum of Mulliken charges =  -0.00000

 Dipole moment (field-independent basis, Debye):
    X=             -4.0940    Y=             -1.9688    Z=              2.5409  Tot=              5.2051
 Quadrupole moment (field-independent basis, Debye-Ang):
   XX=           -118.8483   YY=            -89.4131   ZZ=            -94.8370
   XY=             -7.1452   XZ=              7.7909   YZ=              1.0025

 Normal termination of Gaussian 16 at Thu May  6 07:50:07 2021.
