 Gaussian 16, Revision A.03,
 Gaussian 16:  EM64L-G16RevA.03 25-Dec-2016

 -------------
 #p 6-31g* mp2
 -------------

 ------------------------------------------------------
 Input file generated by CHIRIPA (05-May-2021 14:53:17)
 ------------------------------------------------------
 Symbolic Z-matrix:
 Charge =  0 Multiplicity = 1

                         Standard orientation:
 ---------------------------------------------------------------------
 Center     Atomic      Atomic             Coordinates (Angstroms)
 Number     Number       Type             X           Y           Z
 ---------------------------------------------------------------------
      1          6           0       -3.203550    0.731096   -0.522579
      2          6           0       -3.191789    1.968477    0.375605
      3          6           0       -2.487882    3.161775   -0.271194
      4          1           0       -2.169335    0.457293   -0.772333
      5          1           0       -3.698810    0.979979   -1.471351
      6          1           0       -2.697928    1.716950    1.322944
      7          1           0       -4.226145    2.239252    0.623406
      8          1           0       -2.983565    3.440734   -1.206651
      9          1           0       -1.446665    2.915464   -0.503139
     10          1           0       -2.491078    4.035400    0.388071
     11          6           0       -3.903758   -0.470170    0.110190
     12          6           0       -3.915519   -1.707551   -0.787994
     13          6           0       -4.619426   -2.900850   -0.141195
     14          1           0       -3.408498   -0.719054    1.058963
     15          1           0       -4.937973   -0.196367    0.359944
     16          1           0       -2.881163   -1.978327   -1.035795
     17          1           0       -4.409380   -1.456024   -1.735333
     18          1           0       -5.660643   -2.654539    0.090750
     19          1           0       -4.123743   -3.179809    0.794263
     20          1           0       -4.616230   -3.774474   -0.800459
     21          6           0        0.443010    0.405483    0.976108
     22          6           0        1.206878    1.409015    0.371173
     23          6           0        2.500870    1.139209   -0.084171
     24          6           0        3.001865   -0.150978    0.082296
     25          6           0        2.265511   -1.172086    0.680972
     26          6           0        0.973828   -0.879599    1.128808
     27          1           0       -0.561297    0.623884    1.326914
     28          1           0        0.797215    2.407936    0.251259
     29          1           0        3.114030    1.897350   -0.556054
     30          1           0        2.701046   -2.158280    0.786543
     31          1           0        0.382882   -1.660923    1.598235
     32          7           0        4.370534   -0.448616   -0.395782
     33          8           0        4.788979   -1.593358   -0.237334
     34          8           0        4.998936    0.468475   -0.919894
 ---------------------------------------------------------------------

 SCF Done:  E(RHF) =  -669.534737178     A.U. after   15 cycles
 E2 =    -0.2093363631D+01 EUMP2 =    -0.67162810080908D+03

 The electronic state is 1-A.
 Alpha  occ. eigenvalues --  -20.60775 -20.60770 -15.85829 -11.31207 -11.27781
 Alpha  occ. eigenvalues --  -11.27772 -11.27483 -11.26792 -11.26767 -11.22862
 Alpha  occ. eigenvalues --  -11.22406 -11.22369 -11.22320 -11.22290 -11.21746
 Alpha  occ. eigenvalues --   -1.59850  -1.39403  -1.19383  -1.09465  -1.08768
 Alpha  occ. eigenvalues --   -1.04789  -1.04527  -0.96961  -0.95607  -0.87983
 Alpha  occ. eigenvalues --   -0.86185  -0.82440  -0.80597  -0.79225  -0.77485
 Alpha  occ. eigenvalues --   -0.72047  -0.71173  -0.70576  -0.66132  -0.65032
 Alpha  occ. eigenvalues --   -0.64778  -0.62244  -0.61824  -0.60327  -0.58549
 Alpha  occ. eigenvalues --   -0.56294  -0.55257  -0.53646  -0.53386  -0.53116
 Alpha  occ. eigenvalues --   -0.52862  -0.50882  -0.48885  -0.48804  -0.48799
 Alpha  occ. eigenvalues --   -0.47649  -0.46755  -0.46697  -0.44806  -0.44763
 Alpha  occ. eigenvalues --   -0.37332  -0.36388
 Alpha virt. eigenvalues --    0.05020   0.11159   0.16407   0.18587   0.22554
 Alpha virt. eigenvalues --    0.23787   0.24652   0.25812   0.26742   0.28072
 Alpha virt. eigenvalues --    0.29500   0.30107   0.30733   0.31484   0.32066

 Mulliken charges:
               1
     1  C   -0.305895
     2  C   -0.304538
     3  C   -0.480751
     4  H    0.152929
     5  H    0.155360
     6  H    0.142759
     7  H    0.159605
     8  H    0.162724
     9  H    0.150239
    10  H    0.163450
    11  C   -0.297585
    12  C   -0.300834
    13  C   -0.475891
    14  H    0.141718
    15  H    0.153323
    16  H    0.152851
    17  H    0.155192
    18  H    0.156971
    19  H    0.153102
    20  H    0.163447
    21  C   -0.175403
    22  C   -0.225758
    23  C   -0.170681
    24  C    0.158567
    25  C   -0.170473
    26  C   -0.221916
    27  H    0.236462
    28  H    0.228267
    29  H    0.276015
    30  H    0.275688
    31  H    0.223736
    32  N    0.487936
    33  O   -0.460359
    34  O   -0.460255
 Sum of Mulliken charges =  -0.00000

 Dipole moment (field-independent basis, Debye):
    X=             -5.0195    Y=              1.0517    Z=              1.5631  Tot=              5.3614
 Quadrupole moment (field-independent basis, Debye-Ang):
   XX=           -122.8350   YY=            -91.1481   ZZ=            -94.6957
   XY=              3.5928   XZ=              5.4385   YZ=             -1.7621

 Normal termination of Gaussian 16 at Thu May  6 07:33:23 2021.
