 Gaussian 16, Revision A.03,
 Gaussian 16:  EM64L-G16RevA.03 25-Dec-2016

 -------------
 #p 6-31g* mp2
 -------------

 ------------------------------------------------------
 Input file generated by CHIRIPA (05-May-2021 14:53:14)
 ------------------------------------------------------
 Symbolic Z-matrix:
 Charge =  0 Multiplicity = 1

                         Standard orientation:
 ---------------------------------------------------------------------
 Center     Atomic      Atomic             Coordinates (Angstroms)
 Number     Number       Type             X           Y           Z
 ---------------------------------------------------------------------
      1          6           0       -4.093545    0.004712    0.373134
      2          6           0       -3.112557    1.073332   -0.110291
      3          6           0       -1.786944    1.046758    0.651180
      4          1           0       -4.282348    0.147754    1.445905
      5          1           0       -3.628370   -0.985095    0.266884
      6          1           0       -3.579967    2.060724   -0.004453
      7          1           0       -2.926216    0.927847   -1.182077
      8          1           0       -1.295859    0.075087    0.535890
      9          1           0       -1.953325    1.214400    1.720205
     10          1           0       -1.100642    1.818785    0.289485
     11          6           0       -5.423406    0.018644   -0.378533
     12          6           0       -6.404394   -1.049976    0.104891
     13          6           0       -7.730007   -1.023401   -0.656580
     14          1           0       -5.888581    1.008451   -0.272284
     15          1           0       -5.234603   -0.124397   -1.451304
     16          1           0       -6.590735   -0.904491    1.176678
     17          1           0       -5.936984   -2.037367   -0.000947
     18          1           0       -7.563627   -1.191043   -1.725605
     19          1           0       -8.221092   -0.051730   -0.541289
     20          1           0       -8.416309   -1.795429   -0.294885
     21          6           0        1.966272    1.786350    0.276320
     22          6           0        3.104639    2.031388   -0.498663
     23          6           0        4.081467    1.043909   -0.657524
     24          6           0        3.886867   -0.182704   -0.024401
     25          6           0        2.763552   -0.457167    0.754139
     26          6           0        1.799655    0.545042    0.899149
     27          1           0        1.212471    2.559169    0.394347
     28          1           0        3.236680    2.994467   -0.983523
     29          1           0        4.972342    1.206852   -1.251838
     30          1           0        2.659794   -1.427088    1.225208
     31          1           0        0.916589    0.351937    1.501602
     32          7           0        4.914146   -1.235901   -0.185248
     33          8           0        4.719176   -2.308209    0.382888
     34          8           0        5.894846   -0.969147   -0.876411
 ---------------------------------------------------------------------

 SCF Done:  E(RHF) =  -669.534349062     A.U. after   15 cycles
 E2 =    -0.2092041311D+01 EUMP2 =    -0.67162639037338D+03

 The electronic state is 1-A.
 Alpha  occ. eigenvalues --  -20.60704 -20.60699 -15.85755 -11.31102 -11.27666
 Alpha  occ. eigenvalues --  -11.27641 -11.27374 -11.26686 -11.26588 -11.22493
 Alpha  occ. eigenvalues --  -11.22334 -11.22075 -11.22028 -11.21900 -11.21418
 Alpha  occ. eigenvalues --   -1.59780  -1.39334  -1.19266  -1.09090  -1.08665
 Alpha  occ. eigenvalues --   -1.04670  -1.04237  -0.96737  -0.95504  -0.87790
 Alpha  occ. eigenvalues --   -0.86045  -0.82341  -0.80338  -0.78854  -0.77382
 Alpha  occ. eigenvalues --   -0.71974  -0.71102  -0.70405  -0.65715  -0.64918
 Alpha  occ. eigenvalues --   -0.64685  -0.62059  -0.61596  -0.60134  -0.58323
 Alpha  occ. eigenvalues --   -0.56012  -0.55202  -0.53530  -0.53199  -0.52942
 Alpha  occ. eigenvalues --   -0.52618  -0.50633  -0.48763  -0.48731  -0.48580
 Alpha  occ. eigenvalues --   -0.47313  -0.46405  -0.46295  -0.44744  -0.44481
 Alpha  occ. eigenvalues --   -0.37226  -0.36256
 Alpha virt. eigenvalues --    0.05121   0.11337   0.16550   0.20603   0.22341
 Alpha virt. eigenvalues --    0.23841   0.25878   0.26051   0.26248   0.27446
 Alpha virt. eigenvalues --    0.28695   0.29834   0.30651   0.31661   0.32214

 Mulliken charges:
               1
     1  C   -0.299718
     2  C   -0.299838
     3  C   -0.483323
     4  H    0.150199
     5  H    0.151079
     6  H    0.153630
     7  H    0.155664
     8  H    0.156865
     9  H    0.155931
    10  H    0.154837
    11  C   -0.298914
    12  C   -0.300201
    13  C   -0.476089
    14  H    0.150127
    15  H    0.151048
    16  H    0.152317
    17  H    0.153023
    18  H    0.155987
    19  H    0.155470
    20  H    0.161721
    21  C   -0.173757
    22  C   -0.218725
    23  C   -0.171388
    24  C    0.158743
    25  C   -0.172967
    26  C   -0.219358
    27  H    0.226159
    28  H    0.222933
    29  H    0.275144
    30  H    0.275067
    31  H    0.231717
    32  N    0.488043
    33  O   -0.460713
    34  O   -0.460712
 Sum of Mulliken charges =  -0.00000

 Dipole moment (field-independent basis, Debye):
    X=             -3.8686    Y=              3.6792    Z=              0.5389  Tot=              5.3659
 Quadrupole moment (field-independent basis, Debye-Ang):
   XX=           -122.2306   YY=            -94.3269   ZZ=            -93.4601
   XY=             16.8189   XZ=             -0.1189   YZ=             -1.8868

 Normal termination of Gaussian 16 at Thu May  6 17:05:13 2021.
