 Gaussian 16, Revision A.03,
 Gaussian 16:  EM64L-G16RevA.03 25-Dec-2016

 -------------
 #p 6-31g* mp2
 -------------

 ------------------------------------------------------
 Input file generated by CHIRIPA (05-May-2021 14:53:12)
 ------------------------------------------------------
 Symbolic Z-matrix:
 Charge =  0 Multiplicity = 1

                         Standard orientation:
 ---------------------------------------------------------------------
 Center     Atomic      Atomic             Coordinates (Angstroms)
 Number     Number       Type             X           Y           Z
 ---------------------------------------------------------------------
      1          6           0       -2.405889    0.881144    0.048786
      2          6           0       -2.569043    1.789378   -1.170425
      3          6           0       -2.347297    3.266004   -0.841489
      4          1           0       -3.113038    1.194700    0.828894
      5          1           0       -1.398828    1.017444    0.466694
      6          1           0       -3.575017    1.650384   -1.586734
      7          1           0       -1.861556    1.473503   -1.947793
      8          1           0       -1.338632    3.425513   -0.446834
      9          1           0       -3.061829    3.603400   -0.083723
     10          1           0       -2.468783    3.897266   -1.727270
     11          6           0       -2.624518   -0.598056   -0.264098
     12          6           0       -2.461363   -1.506289    0.955113
     13          6           0       -2.683109   -2.982915    0.626177
     14          1           0       -3.631578   -0.734355   -0.682006
     15          1           0       -1.917369   -0.911611   -1.044206
     16          1           0       -3.168850   -1.190414    1.732481
     17          1           0       -1.455389   -1.367295    1.371422
     18          1           0       -1.968578   -3.320311   -0.131589
     19          1           0       -3.691774   -3.142425    0.231522
     20          1           0       -2.561623   -3.614178    1.511958
     21          6           0        2.075751   -1.432974   -2.061806
     22          6           0        1.457002   -1.980645   -0.933211
     23          6           0        1.389810   -1.256990    0.261091
     24          6           0        1.954296    0.017262    0.291565
     25          6           0        2.577511    0.590244   -0.815948
     26          6           0        2.633049   -0.151537   -1.999682
     27          1           0        2.123420   -2.002167   -2.985463
     28          1           0        1.023343   -2.975597   -0.978550
     29          1           0        0.916743   -1.656869    1.149753
     30          1           0        3.000803    1.584473   -0.740129
     31          1           0        3.114201    0.276319   -2.874597
     32          7           0        1.889332    0.792959    1.550325
     33          8           0        2.394243    1.913539    1.551319
     34          8           0        1.334733    0.265680    2.512112
 ---------------------------------------------------------------------

 SCF Done:  E(RHF) =  -669.535547421     A.U. after   15 cycles
 E2 =    -0.2093987798D+01 EUMP2 =    -0.67162953521824D+03

 The electronic state is 1-A.
 Alpha  occ. eigenvalues --  -20.60916 -20.60902 -15.85953 -11.31315 -11.27884
 Alpha  occ. eigenvalues --  -11.27879 -11.27623 -11.26900 -11.26884 -11.21690
 Alpha  occ. eigenvalues --  -11.21499 -11.21437 -11.21404 -11.21223 -11.20863
 Alpha  occ. eigenvalues --   -1.59979  -1.39532  -1.19493  -1.08885  -1.08415
 Alpha  occ. eigenvalues --   -1.04894  -1.03559  -0.96010  -0.95719  -0.87025
 Alpha  occ. eigenvalues --   -0.86291  -0.82547  -0.79617  -0.78202  -0.77595
 Alpha  occ. eigenvalues --   -0.72168  -0.71305  -0.70604  -0.65158  -0.65106
 Alpha  occ. eigenvalues --   -0.64854  -0.62285  -0.60920  -0.59382  -0.57605
 Alpha  occ. eigenvalues --   -0.55413  -0.55291  -0.53201  -0.52999  -0.52712
 Alpha  occ. eigenvalues --   -0.52423  -0.49949  -0.48932  -0.48926  -0.47922
 Alpha  occ. eigenvalues --   -0.46646  -0.45755  -0.45686  -0.44876  -0.43786
 Alpha  occ. eigenvalues --   -0.37455  -0.36462
 Alpha virt. eigenvalues --    0.04894   0.11062   0.16342   0.20050   0.22959
 Alpha virt. eigenvalues --    0.23967   0.25974   0.26162   0.27373   0.28210
 Alpha virt. eigenvalues --    0.28956   0.29858   0.31360   0.31707   0.32546

 Mulliken charges:
               1
     1  C   -0.298270
     2  C   -0.299823
     3  C   -0.476382
     4  H    0.152458
     5  H    0.151492
     6  H    0.150519
     7  H    0.149050
     8  H    0.159236
     9  H    0.156867
    10  H    0.158124
    11  C   -0.299346
    12  C   -0.304723
    13  C   -0.476532
    14  H    0.148719
    15  H    0.146905
    16  H    0.157056
    17  H    0.154850
    18  H    0.144770
    19  H    0.157938
    20  H    0.161659
    21  C   -0.170924
    22  C   -0.220557
    23  C   -0.170951
    24  C    0.157590
    25  C   -0.171204
    26  C   -0.218403
    27  H    0.226446
    28  H    0.225649
    29  H    0.279082
    30  H    0.276103
    31  H    0.224103
    32  N    0.488678
    33  O   -0.459525
    34  O   -0.460654
 Sum of Mulliken charges =  -0.00000

 Dipole moment (field-independent basis, Debye):
    X=              0.2814    Y=             -2.6462    Z=             -4.3603  Tot=              5.1082
 Quadrupole moment (field-independent basis, Debye-Ang):
   XX=            -92.1147   YY=            -93.6622   ZZ=            -96.8306
   XY=             -3.6261   XZ=            -10.5227   YZ=             -2.7307

 Normal termination of Gaussian 16 at Thu May  6 17:01:09 2021.
