 Gaussian 16, Revision A.03,
 Gaussian 16:  EM64L-G16RevA.03 25-Dec-2016

 -------------
 #p 6-31g* mp2
 -------------

 ------------------------------------------------------
 Input file generated by CHIRIPA (05-May-2021 14:57:24)
 ------------------------------------------------------
 Symbolic Z-matrix:
 Charge =  0 Multiplicity = 1

                         Standard orientation:
 ---------------------------------------------------------------------
 Center     Atomic      Atomic             Coordinates (Angstroms)
 Number     Number       Type             X           Y           Z
 ---------------------------------------------------------------------
      1          6           0        3.364926    2.067434   -0.866734
      2          6           0        4.102762    1.336101    0.069895
      3          6           0        3.641420    0.098031    0.526945
      4          6           0        2.432717   -0.380828    0.023934
      5          6           0        1.674789    0.324184   -0.909764
      6          6           0        2.155427    1.560035   -1.352717
      7          1           0        3.730802    3.028334   -1.216306
      8          1           0        5.042412    1.727686    0.449056
      9          1           0        4.192506   -0.488993    1.251599
     10          1           0        0.741655   -0.092162   -1.269396
     11          1           0        1.580305    2.125812   -2.080163
     12          7           0        1.934101   -1.690343    0.500330
     13          8           0        0.866229   -2.090272    0.041698
     14          8           0        2.620599   -2.292016    1.323341
     15          6           0       -2.516748    2.284739    1.423029
     16          6           0       -2.399925    1.042937    2.056119
     17          6           0       -2.397746   -0.138053    1.307918
     18          6           0       -2.514715   -0.039924   -0.077715
     19          6           0       -2.632667    1.182311   -0.737653
     20          6           0       -2.632542    2.350346    0.030618
     21          1           0       -2.517544    3.197129    2.012044
     22          1           0       -2.309850    0.988954    3.137330
     23          1           0       -2.308681   -1.112653    1.772291
     24          1           0       -2.720899    1.204193   -1.817077
     25          1           0       -2.723412    3.313358   -0.463746
     26          7           0       -2.513629   -1.283328   -0.880426
     27          8           0       -2.617996   -1.169918   -2.099803
     28          8           0       -2.408430   -2.347774   -0.275013
 ---------------------------------------------------------------------

 SCF Done:  E(RHF) =  -868.336849524     A.U. after   16 cycles
 E2 =    -0.2602118772D+01 EUMP2 =    -0.87093896829635D+03

 The electronic state is 1-A.
 Alpha  occ. eigenvalues --  -20.60567 -20.60515 -20.60350 -20.60199 -15.85581
 Alpha  occ. eigenvalues --  -15.85319 -11.31089 -11.31000 -11.27695 -11.27680
 Alpha  occ. eigenvalues --  -11.27663 -11.27497 -11.27474 -11.27403 -11.26742
 Alpha  occ. eigenvalues --  -11.26742 -11.26729 -11.26620  -1.59619  -1.59324
 Alpha  occ. eigenvalues --   -1.39169  -1.38869  -1.19287  -1.19201  -1.08661
 Alpha  occ. eigenvalues --   -1.08537  -1.04708  -1.04642  -0.95467  -0.95316
 Alpha  occ. eigenvalues --   -0.86105  -0.86021  -0.82299  -0.82139  -0.77338
 Alpha  occ. eigenvalues --   -0.77129  -0.71859  -0.71529  -0.70972  -0.70552
 Alpha  occ. eigenvalues --   -0.70402  -0.70290  -0.64936  -0.64838  -0.64718
 Alpha  occ. eigenvalues --   -0.64642  -0.62058  -0.61970  -0.55224  -0.55131
 Alpha  occ. eigenvalues --   -0.53104  -0.52946  -0.52755  -0.52728  -0.48582
 Alpha  occ. eigenvalues --   -0.48552  -0.48336  -0.48270  -0.44610  -0.44103
 Alpha  occ. eigenvalues --   -0.37297  -0.37193  -0.36354  -0.36220
 Alpha virt. eigenvalues --    0.05200   0.05416   0.11300   0.11368   0.16638
 Alpha virt. eigenvalues --    0.16868   0.21282   0.21584   0.26980   0.27510
 Alpha virt. eigenvalues --    0.28074   0.28518   0.30568   0.31203   0.32232

 Mulliken charges:
               1
     1  C   -0.171582
     2  C   -0.219013
     3  C   -0.171392
     4  C    0.157684
     5  C   -0.169914
     6  C   -0.219109
     7  H    0.224040
     8  H    0.222460
     9  H    0.275203
    10  H    0.277516
    11  H    0.221507
    12  N    0.487644
    13  O   -0.454679
    14  O   -0.462596
    15  C   -0.171514
    16  C   -0.219490
    17  C   -0.167523
    18  C    0.157862
    19  C   -0.179766
    20  C   -0.218933
    21  H    0.223944
    22  H    0.224380
    23  H    0.283477
    24  H    0.272271
    25  H    0.219926
    26  N    0.490136
    27  O   -0.469633
    28  O   -0.442906
 Sum of Mulliken charges =  -0.00000

 Dipole moment (field-independent basis, Debye):
    X=              1.6907    Y=              8.6183    Z=              1.3082  Tot=              8.8795
 Quadrupole moment (field-independent basis, Debye-Ang):
   XX=            -94.4896   YY=           -108.1439   ZZ=           -101.0420
   XY=             -0.5691   XZ=             -8.5331   YZ=             -2.6395

 Normal termination of Gaussian 16 at Wed May  5 16:23:18 2021.
