 Gaussian 16, Revision A.03,
 Gaussian 16:  EM64L-G16RevA.03 25-Dec-2016

 -------------
 #p 6-31g* mp2
 -------------

 ------------------------------------------------------
 Input file generated by CHIRIPA (05-May-2021 14:55:25)
 ------------------------------------------------------
 Symbolic Z-matrix:
 Charge =  0 Multiplicity = 1

                         Standard orientation:
 ---------------------------------------------------------------------
 Center     Atomic      Atomic             Coordinates (Angstroms)
 Number     Number       Type             X           Y           Z
 ---------------------------------------------------------------------
      1          6           0       -3.481526    2.579670   -0.179513
      2          6           0       -2.934185    2.094582    1.012807
      3          6           0       -2.668214    0.730965    1.168874
      4          6           0       -2.963267   -0.123174    0.107422
      5          6           0       -3.508927    0.329664   -1.092780
      6          6           0       -3.766648    1.697218   -1.226655
      7          1           0       -3.684934    3.640490   -0.292130
      8          1           0       -2.711740    2.777587    1.827711
      9          1           0       -2.244772    0.328543    2.081108
     10          1           0       -3.719971   -0.375621   -1.887419
     11          1           0       -4.191751    2.071126   -2.153761
     12          7           0       -2.686062   -1.568858    0.260896
     13          8           0       -2.955037   -2.300729   -0.689186
     14          8           0       -2.205064   -1.942741    1.328365
     15          6           0        3.129761   -0.166081    0.144338
     16          6           0        2.254911   -1.171178   -0.605598
     17          6           0        0.813891   -1.197091   -0.095123
     18          1           0        3.122979   -0.411065    1.215264
     19          1           0        2.688321    0.835736    0.050068
     20          1           0        2.698616   -2.170583   -0.511102
     21          1           0        2.263931   -0.923888   -1.674888
     22          1           0        0.348644   -0.212124   -0.204601
     23          1           0        0.785799   -1.465903    0.965798
     24          1           0        0.206141   -1.922381   -0.645082
     25          6           0        4.573159   -0.128554   -0.354584
     26          6           0        5.448009    0.876541    0.395353
     27          6           0        6.889029    0.902456   -0.115122
     28          1           0        5.014598   -1.130372   -0.260314
     29          1           0        4.579942    0.116429   -1.425510
     30          1           0        5.438990    0.629251    1.464643
     31          1           0        5.004304    1.875948    0.300857
     32          1           0        6.917120    1.171268   -1.176043
     33          1           0        7.354276   -0.082512   -0.005644
     34          1           0        7.496778    1.627744    0.434837
 ---------------------------------------------------------------------

 SCF Done:  E(RHF) =  -669.535794143     A.U. after   15 cycles
 E2 =    -0.2092512507D+01 EUMP2 =    -0.67162830665047D+03

 The electronic state is 1-A.
 Alpha  occ. eigenvalues --  -20.60810 -20.60795 -15.85815 -11.31184 -11.27753
 Alpha  occ. eigenvalues --  -11.27749 -11.27503 -11.26777 -11.26767 -11.21456
 Alpha  occ. eigenvalues --  -11.21155 -11.21108 -11.21043 -11.20955 -11.20326
 Alpha  occ. eigenvalues --   -1.59855  -1.39412  -1.19361  -1.08757  -1.08132
 Alpha  occ. eigenvalues --   -1.04764  -1.03183  -0.95637  -0.95585  -0.86655
 Alpha  occ. eigenvalues --   -0.86161  -0.82432  -0.79278  -0.77952  -0.77475
 Alpha  occ. eigenvalues --   -0.72060  -0.71152  -0.70471  -0.65017  -0.64769
 Alpha  occ. eigenvalues --   -0.64767  -0.62111  -0.60583  -0.58998  -0.57233
 Alpha  occ. eigenvalues --   -0.55270  -0.54932  -0.53105  -0.52857  -0.52284
 Alpha  occ. eigenvalues --   -0.52045  -0.49572  -0.48820  -0.48816  -0.47585
 Alpha  occ. eigenvalues --   -0.46313  -0.45528  -0.45420  -0.44707  -0.43423
 Alpha  occ. eigenvalues --   -0.37320  -0.36364
 Alpha virt. eigenvalues --    0.05041   0.11266   0.16505   0.21396   0.23143
 Alpha virt. eigenvalues --    0.24665   0.26905   0.27262   0.27736   0.27960
 Alpha virt. eigenvalues --    0.28578   0.30927   0.31639   0.31979   0.32360

 Mulliken charges:
               1
     1  C   -0.170929
     2  C   -0.218962
     3  C   -0.170670
     4  C    0.160122
     5  C   -0.171450
     6  C   -0.218734
     7  H    0.225523
     8  H    0.223508
     9  H    0.275952
    10  H    0.275559
    11  H    0.223382
    12  N    0.490167
    13  O   -0.460765
    14  O   -0.457373
    15  C   -0.297697
    16  C   -0.300390
    17  C   -0.485135
    18  H    0.149580
    19  H    0.145801
    20  H    0.153733
    21  H    0.149028
    22  H    0.145479
    23  H    0.165412
    24  H    0.170978
    25  C   -0.297879
    26  C   -0.299198
    27  C   -0.475488
    28  H    0.150364
    29  H    0.148744
    30  H    0.151778
    31  H    0.149973
    32  H    0.154675
    33  H    0.155700
    34  H    0.159215
 Sum of Mulliken charges =  -0.00000

 Dipole moment (field-independent basis, Debye):
    X=             -1.1013    Y=              4.9794    Z=             -0.4870  Tot=              5.1229
 Quadrupole moment (field-independent basis, Debye-Ang):
   XX=            -90.6097   YY=            -95.8161   ZZ=            -90.3088
   XY=            -15.3379   XZ=              3.8719   YZ=              0.9610

 Normal termination of Gaussian 16 at Thu May  6 06:23:32 2021.
