 Gaussian 16, Revision A.03,
 Gaussian 16:  EM64L-G16RevA.03 25-Dec-2016

 -------------
 #p 6-31g* mp2
 -------------

 ------------------------------------------------------
 Input file generated by CHIRIPA (05-May-2021 14:53:13)
 ------------------------------------------------------
 Symbolic Z-matrix:
 Charge =  0 Multiplicity = 1

                         Standard orientation:
 ---------------------------------------------------------------------
 Center     Atomic      Atomic             Coordinates (Angstroms)
 Number     Number       Type             X           Y           Z
 ---------------------------------------------------------------------
      1          6           0       -3.452109   -0.470445    0.524083
      2          6           0       -4.143058   -1.802637    0.231100
      3          6           0       -3.528750   -2.969836    1.004446
      4          1           0       -2.385294   -0.555597    0.275889
      5          1           0       -3.506835   -0.266330    1.602386
      6          1           0       -4.088257   -2.003508   -0.846520
      7          1           0       -5.208390   -1.714244    0.479839
      8          1           0       -3.597019   -2.795694    2.083156
      9          1           0       -2.470522   -3.086601    0.749261
     10          1           0       -4.037843   -3.912351    0.780060
     11          6           0       -4.054989    0.705973   -0.241623
     12          6           0       -3.364039    2.038165    0.051361
     13          6           0       -3.978348    3.205364   -0.721986
     14          1           0       -4.000263    0.501857   -1.319925
     15          1           0       -5.121803    0.791125    0.006571
     16          1           0       -2.298707    1.949772   -0.197379
     17          1           0       -3.418841    2.239036    1.128980
     18          1           0       -5.036576    3.322129   -0.466801
     19          1           0       -3.910078    3.031222   -1.800696
     20          1           0       -3.469254    4.147879   -0.497600
     21          6           0        5.107351    0.833198    0.772713
     22          6           0        3.890096    1.337078    1.242733
     23          6           0        2.678939    0.831974    0.760533
     24          6           0        2.722200   -0.181448   -0.195705
     25          6           0        3.918814   -0.704232   -0.683661
     26          6           0        5.117807   -0.184054   -0.187291
     27          1           0        6.043482    1.231430    1.152801
     28          1           0        3.878938    2.127081    1.988263
     29          1           0        1.722317    1.203746    1.107057
     30          1           0        3.897930   -1.491836   -1.427072
     31          1           0        6.061647   -0.577293   -0.554133
     32          7           0        1.446441   -0.724157   -0.713690
     33          8           0        1.511577   -1.616908   -1.555943
     34          8           0        0.405523   -0.246507   -0.267623
 ---------------------------------------------------------------------

 SCF Done:  E(RHF) =  -669.536536222     A.U. after   15 cycles
 E2 =    -0.2091149110D+01 EUMP2 =    -0.67162768533138D+03

 The electronic state is 1-A.
 Alpha  occ. eigenvalues --  -20.61053 -20.61047 -15.86083 -11.31352 -11.27909
 Alpha  occ. eigenvalues --  -11.27904 -11.27639 -11.26906 -11.26896 -11.20608
 Alpha  occ. eigenvalues --  -11.20406 -11.20328 -11.20251 -11.19957 -11.19882
 Alpha  occ. eigenvalues --   -1.60110  -1.39668  -1.19515  -1.08930  -1.07242
 Alpha  occ. eigenvalues --   -1.04904  -1.02468  -0.95780  -0.94917  -0.86307
 Alpha  occ. eigenvalues --   -0.85942  -0.82616  -0.78538  -0.77678  -0.77022
 Alpha  occ. eigenvalues --   -0.72307  -0.71419  -0.70624  -0.65174  -0.64907
 Alpha  occ. eigenvalues --   -0.63847  -0.62251  -0.59860  -0.58307  -0.56534
 Alpha  occ. eigenvalues --   -0.55411  -0.54193  -0.53239  -0.52995  -0.51673
 Alpha  occ. eigenvalues --   -0.51355  -0.49121  -0.49057  -0.48807  -0.46866
 Alpha  occ. eigenvalues --   -0.45564  -0.45082  -0.44604  -0.44367  -0.42677
 Alpha  occ. eigenvalues --   -0.37492  -0.36503
 Alpha virt. eigenvalues --    0.04847   0.11153   0.16350   0.21250   0.24022
 Alpha virt. eigenvalues --    0.25329   0.27167   0.27523   0.28085   0.28843
 Alpha virt. eigenvalues --    0.29089   0.30923   0.32275   0.32485   0.32694

 Mulliken charges:
               1
     1  C   -0.312976
     2  C   -0.297652
     3  C   -0.476540
     4  H    0.182347
     5  H    0.141219
     6  H    0.152864
     7  H    0.145706
     8  H    0.150248
     9  H    0.162829
    10  H    0.155568
    11  C   -0.296018
    12  C   -0.301978
    13  C   -0.474869
    14  H    0.150219
    15  H    0.143787
    16  H    0.161215
    17  H    0.146507
    18  H    0.152612
    19  H    0.155156
    20  H    0.155283
    21  C   -0.170423
    22  C   -0.218567
    23  C   -0.170756
    24  C    0.157245
    25  C   -0.170307
    26  C   -0.218639
    27  H    0.226237
    28  H    0.224157
    29  H    0.276209
    30  H    0.275939
    31  H    0.224007
    32  N    0.493920
    33  O   -0.458581
    34  O   -0.465968
 Sum of Mulliken charges =  -0.00000

 Dipole moment (field-independent basis, Debye):
    X=              4.9172    Y=              1.8438    Z=              1.7321  Tot=              5.5298
 Quadrupole moment (field-independent basis, Debye-Ang):
   XX=            -70.5683   YY=            -95.4984   ZZ=            -94.0892
   XY=              3.0171   XZ=              2.1962   YZ=              2.3206

 Normal termination of Gaussian 16 at Thu May  6 18:40:50 2021.
