 Gaussian 16, Revision A.03,
 Gaussian 16:  EM64L-G16RevA.03 25-Dec-2016

 -------------
 #p 6-31g* mp2
 -------------

 ------------------------------------------------------
 Input file generated by CHIRIPA (05-May-2021 14:51:08)
 ------------------------------------------------------
 Symbolic Z-matrix:
 Charge =  0 Multiplicity = 1

                         Standard orientation:
 ---------------------------------------------------------------------
 Center     Atomic      Atomic             Coordinates (Angstroms)
 Number     Number       Type             X           Y           Z
 ---------------------------------------------------------------------
      1          6           0       -3.177205   -0.576623   -0.516653
      2          6           0       -2.118488   -1.414030   -1.234883
      3          6           0       -2.590964   -2.838006   -1.529594
      4          1           0       -3.454055   -1.074422    0.422759
      5          1           0       -4.086901   -0.542128   -1.132005
      6          1           0       -1.210583   -1.445786   -0.618996
      7          1           0       -1.843987   -0.914083   -2.172603
      8          1           0       -3.483369   -2.824324   -2.163649
      9          1           0       -2.846367   -3.359048   -0.601216
     10          1           0       -1.818683   -3.419003   -2.043291
     11          6           0       -2.719686    0.849385   -0.215149
     12          6           0       -3.778402    1.686792    0.503081
     13          6           0       -3.305927    3.110767    0.797792
     14          1           0       -1.809990    0.814890    0.400203
     15          1           0       -2.442836    1.347183   -1.154561
     16          1           0       -4.052904    1.186844    1.440800
     17          1           0       -4.686307    1.718547   -0.112806
     18          1           0       -3.050524    3.631809   -0.130586
     19          1           0       -2.413521    3.097085    1.431847
     20          1           0       -4.078208    3.691764    1.311489
     21          6           0        2.820571   -0.753675    0.797211
     22          6           0        1.426154   -0.777081    1.424139
     23          6           0        1.185403   -2.018160    2.284113
     24          1           0        2.956234   -1.656707    0.186413
     25          1           0        3.574566   -0.799872    1.595179
     26          1           0        0.675023   -0.729458    0.625295
     27          1           0        1.293725    0.126205    2.033361
     28          1           0        1.912674   -2.067843    3.100941
     29          1           0        1.290457   -2.928369    1.684875
     30          1           0        0.182576   -2.014453    2.722500
     31          6           0        3.076319    0.480914   -0.065408
     32          6           0        4.470736    0.504320   -0.692337
     33          6           0        4.711488    1.745399   -1.552311
     34          1           0        2.322325    0.527110   -0.863377
     35          1           0        2.940656    1.383946    0.545389
     36          1           0        4.603165   -0.398966   -1.301559
     37          1           0        5.221867    0.456697    0.106507
     38          1           0        4.606433    2.655607   -0.953074
     39          1           0        3.984216    1.795081   -2.369139
     40          1           0        5.714315    1.741692   -1.990698
 ---------------------------------------------------------------------

 SCF Done:  E(RHF) =  -470.733332084     A.U. after   11 cycles
 E2 =    -0.1583154032D+01 EUMP2 =    -0.47231648611604D+03

 The electronic state is 1-A.
 Alpha  occ. eigenvalues --  -11.21635 -11.21614 -11.21604 -11.21592 -11.21421
 Alpha  occ. eigenvalues --  -11.21400 -11.21357 -11.21336 -11.21127 -11.21088
 Alpha  occ. eigenvalues --  -11.21070 -11.21059  -1.08461  -1.08421  -1.03566
 Alpha  occ. eigenvalues --   -1.03524  -0.96002  -0.95978  -0.87018  -0.86995
 Alpha  occ. eigenvalues --   -0.79666  -0.79565  -0.78338  -0.78168  -0.65191
 Alpha  occ. eigenvalues --   -0.64969  -0.61082  -0.60815  -0.59391  -0.59327
 Alpha  occ. eigenvalues --   -0.57613  -0.57591  -0.55297  -0.55254  -0.52703
 Alpha  occ. eigenvalues --   -0.52674  -0.52426  -0.52404  -0.49977  -0.49896
 Alpha  occ. eigenvalues --   -0.48047  -0.47874  -0.46888  -0.46493  -0.46032
 Alpha  occ. eigenvalues --   -0.45770  -0.45750  -0.45271  -0.43806  -0.43781
 Alpha virt. eigenvalues --    0.20727   0.23193   0.23871   0.24588   0.25516
 Alpha virt. eigenvalues --    0.26761   0.27023   0.27918   0.28021   0.29286
 Alpha virt. eigenvalues --    0.30651   0.31553   0.31717   0.31855   0.32161

 Mulliken charges:
               1
     1  C   -0.297498
     2  C   -0.308590
     3  C   -0.475019
     4  H    0.149457
     5  H    0.149583
     6  H    0.160057
     7  H    0.151502
     8  H    0.155300
     9  H    0.155436
    10  H    0.159854
    11  C   -0.301464
    12  C   -0.299572
    13  C   -0.475690
    14  H    0.152907
    15  H    0.149340
    16  H    0.151850
    17  H    0.151896
    18  H    0.155185
    19  H    0.155316
    20  H    0.160147
    21  C   -0.297527
    22  C   -0.310707
    23  C   -0.475451
    24  H    0.149685
    25  H    0.149644
    26  H    0.161319
    27  H    0.151856
    28  H    0.155685
    29  H    0.155439
    30  H    0.159646
    31  C   -0.298610
    32  C   -0.299687
    33  C   -0.475725
    34  H    0.150192
    35  H    0.149652
    36  H    0.151956
    37  H    0.151890
    38  H    0.155226
    39  H    0.155284
    40  H    0.160236
 Sum of Mulliken charges =  -0.00000

 Dipole moment (field-independent basis, Debye):
    X=              0.0121    Y=             -0.0006    Z=              0.0005  Tot=              0.0121
 Quadrupole moment (field-independent basis, Debye-Ang):
   XX=            -84.6944   YY=            -86.2774   ZZ=            -83.8104
   XY=             -0.4155   XZ=              0.7775   YZ=              0.3702

 Normal termination of Gaussian 16 at Thu May  6 14:52:07 2021.
