 Gaussian 16, Revision A.03,
 Gaussian 16:  EM64L-G16RevA.03 25-Dec-2016

 -------------
 #p 6-31g* mp2
 -------------

 ------------------------------------------------------
 Input file generated by CHIRIPA (05-May-2021 14:53:13)
 ------------------------------------------------------
 Symbolic Z-matrix:
 Charge =  0 Multiplicity = 1

                         Standard orientation:
 ---------------------------------------------------------------------
 Center     Atomic      Atomic             Coordinates (Angstroms)
 Number     Number       Type             X           Y           Z
 ---------------------------------------------------------------------
      1          6           0        3.675084    0.881232    0.494453
      2          6           0        2.918604    1.896682   -0.362625
      3          6           0        2.673558    3.218721    0.365358
      4          1           0        3.107672    0.694100    1.416391
      5          1           0        4.636581    1.315310    0.801852
      6          1           0        1.959421    1.460295   -0.669465
      7          1           0        3.487788    2.081274   -1.282718
      8          1           0        3.622809    3.679292    0.657586
      9          1           0        2.085758    3.054785    1.274323
     10          1           0        2.131418    3.929966   -0.265574
     11          6           0        3.927642   -0.445478   -0.219540
     12          6           0        4.684122   -1.460929    0.637538
     13          6           0        4.929167   -2.782967   -0.090445
     14          1           0        2.966145   -0.879557   -0.526939
     15          1           0        4.495054   -0.258346   -1.141478
     16          1           0        4.114937   -1.645520    1.557631
     17          1           0        5.643304   -1.024541    0.944378
     18          1           0        5.516967   -2.619032   -0.999410
     19          1           0        3.979916   -3.243539   -0.382673
     20          1           0        5.471307   -3.494212    0.540487
     21          6           0       -5.403252   -0.442407    0.501066
     22          6           0       -4.865317    0.836267    0.321795
     23          6           0       -3.518345    0.999006   -0.015445
     24          6           0       -2.734559   -0.143902   -0.166211
     25          6           0       -3.241236   -1.431154    0.005689
     26          6           0       -4.590927   -1.570048    0.342721
     27          1           0       -6.450669   -0.559565    0.762962
     28          1           0       -5.493816    1.713804    0.444120
     29          1           0       -3.076057    1.977198   -0.160155
     30          1           0       -2.589814   -2.287009   -0.123072
     31          1           0       -5.005987   -2.564312    0.481325
     32          7           0       -1.307141    0.015761   -0.523122
     33          8           0       -0.637649   -1.007114   -0.650189
     34          8           0       -0.884850    1.160756   -0.669042
 ---------------------------------------------------------------------

 SCF Done:  E(RHF) =  -669.536989871     A.U. after   15 cycles
 E2 =    -0.2091517235D+01 EUMP2 =    -0.67162850710563D+03

 The electronic state is 1-A.
 Alpha  occ. eigenvalues --  -20.61166 -20.61147 -15.86153 -11.31410 -11.27959
 Alpha  occ. eigenvalues --  -11.27955 -11.27684 -11.26949 -11.26939 -11.20508
 Alpha  occ. eigenvalues --  -11.20134 -11.19968 -11.19909 -11.19744 -11.19656
 Alpha  occ. eigenvalues --   -1.60194  -1.39752  -1.19567  -1.08985  -1.07018
 Alpha  occ. eigenvalues --   -1.04951  -1.02176  -0.95837  -0.94678  -0.86355
 Alpha  occ. eigenvalues --   -0.85707  -0.82673  -0.78252  -0.77735  -0.76791
 Alpha  occ. eigenvalues --   -0.72367  -0.71497  -0.70674  -0.65222  -0.64954
 Alpha  occ. eigenvalues --   -0.63637  -0.62298  -0.59565  -0.58064  -0.56272
 Alpha  occ. eigenvalues --   -0.55458  -0.53973  -0.53287  -0.53041  -0.51414
 Alpha  occ. eigenvalues --   -0.51109  -0.49213  -0.49132  -0.48609  -0.46566
 Alpha  occ. eigenvalues --   -0.45264  -0.45138  -0.44388  -0.44108  -0.42425
 Alpha  occ. eigenvalues --   -0.37542  -0.36548
 Alpha virt. eigenvalues --    0.04790   0.11109   0.16303   0.21248   0.24245
 Alpha virt. eigenvalues --    0.25596   0.27177   0.27965   0.28198   0.28996
 Alpha virt. eigenvalues --    0.29268   0.30839   0.32343   0.32655   0.33110

 Mulliken charges:
               1
     1  C   -0.295591
     2  C   -0.312962
     3  C   -0.471953
     4  H    0.146813
     5  H    0.141967
     6  H    0.185152
     7  H    0.143996
     8  H    0.147114
     9  H    0.152096
    10  H    0.157842
    11  C   -0.302805
    12  C   -0.298066
    13  C   -0.475324
    14  H    0.165592
    15  H    0.145234
    16  H    0.149904
    17  H    0.147765
    18  H    0.153197
    19  H    0.157094
    20  H    0.155490
    21  C   -0.170316
    22  C   -0.218579
    23  C   -0.170608
    24  C    0.157887
    25  C   -0.170569
    26  C   -0.218614
    27  H    0.226441
    28  H    0.224298
    29  H    0.276271
    30  H    0.275974
    31  H    0.224226
    32  N    0.489150
    33  O   -0.459899
    34  O   -0.458217
 Sum of Mulliken charges =  -0.00000

 Dipole moment (field-independent basis, Debye):
    X=             -5.5566    Y=             -0.6554    Z=              1.1492  Tot=              5.7119
 Quadrupole moment (field-independent basis, Debye-Ang):
   XX=            -68.7367   YY=            -91.2745   ZZ=            -96.2753
   XY=              1.9461   XZ=             -3.2996   YZ=             -0.7625

 Normal termination of Gaussian 16 at Thu May  6 12:03:27 2021.
