 Gaussian 16, Revision A.03,
 Gaussian 16:  EM64L-G16RevA.03 25-Dec-2016

 -------------
 #p 6-31g* mp2
 -------------

 ------------------------------------------------------
 Input file generated by CHIRIPA (05-May-2021 14:51:12)
 ------------------------------------------------------
 Symbolic Z-matrix:
 Charge =  0 Multiplicity = 1

                         Standard orientation:
 ---------------------------------------------------------------------
 Center     Atomic      Atomic             Coordinates (Angstroms)
 Number     Number       Type             X           Y           Z
 ---------------------------------------------------------------------
      1          6           0       -4.098065    0.269386   -0.372449
      2          6           0       -4.361634   -1.197583   -0.031099
      3          6           0       -5.659363   -1.723484   -0.645202
      4          1           0       -4.943501    0.878043   -0.023566
      5          1           0       -4.060517    0.383432   -1.464684
      6          1           0       -4.397298   -1.309069    1.060191
      7          1           0       -3.515385   -1.802795   -0.380664
      8          1           0       -5.630147   -1.641246   -1.736524
      9          1           0       -6.517071   -1.144714   -0.287482
     10          1           0       -5.828123   -2.773962   -0.388537
     11          6           0       -2.804326    0.809577    0.234315
     12          6           0       -2.540757    2.276546   -0.107035
     13          6           0       -1.243028    2.802447    0.507068
     14          1           0       -2.841875    0.695531    1.326550
     15          1           0       -1.958891    0.200919   -0.114568
     16          1           0       -3.387006    2.881758    0.242530
     17          1           0       -2.505093    2.388032   -1.198325
     18          1           0       -0.385320    2.223677    0.149348
     19          1           0       -1.272244    2.720209    1.598390
     20          1           0       -1.074268    3.852925    0.250403
     21          6           0        3.946291   -0.195676   -0.400091
     22          6           0        5.386423   -0.222155    0.113043
     23          6           0        6.365106    0.469535   -0.836450
     24          1           0        3.906140   -0.678626   -1.386039
     25          1           0        3.637115    0.847973   -0.550430
     26          1           0        5.692322   -1.265394    0.263684
     27          1           0        5.423116    0.260744    1.097969
     28          1           0        6.087295    1.518909   -0.978702
     29          1           0        6.358030   -0.015901   -1.817726
     30          1           0        7.388688    0.438932   -0.450180
     31          6           0        2.956099   -0.883287    0.538225
     32          6           0        1.515969   -0.856808    0.025091
     33          6           0        0.537285   -1.548498    0.974584
     34          1           0        3.265276   -1.926935    0.688563
     35          1           0        2.996251   -0.400337    1.524173
     36          1           0        1.479275   -1.339707   -0.959835
     37          1           0        1.210069    0.186431   -0.125551
     38          1           0        0.544361   -1.063063    1.955861
     39          1           0        0.815096   -2.597873    1.116836
     40          1           0       -0.486296   -1.517895    0.588315
 ---------------------------------------------------------------------

 SCF Done:  E(RHF) =  -470.732971151     A.U. after   11 cycles
 E2 =    -0.1583559311D+01 EUMP2 =    -0.47231653046242D+03

 The electronic state is 1-A.
 Alpha  occ. eigenvalues --  -11.21616 -11.21616 -11.21607 -11.21598 -11.21405
 Alpha  occ. eigenvalues --  -11.21394 -11.21346 -11.21329 -11.21092 -11.21077
 Alpha  occ. eigenvalues --  -11.21067 -11.21011  -1.08453  -1.08414  -1.03556
 Alpha  occ. eigenvalues --   -1.03509  -0.96002  -0.95957  -0.87034  -0.86959
 Alpha  occ. eigenvalues --   -0.79616  -0.79580  -0.78272  -0.78229  -0.65130
 Alpha  occ. eigenvalues --   -0.65015  -0.61035  -0.60837  -0.59408  -0.59300
 Alpha  occ. eigenvalues --   -0.57677  -0.57520  -0.55294  -0.55245  -0.52765
 Alpha  occ. eigenvalues --   -0.52646  -0.52483  -0.52294  -0.49994  -0.49853
 Alpha  occ. eigenvalues --   -0.47956  -0.47873  -0.46749  -0.46517  -0.45816
 Alpha  occ. eigenvalues --   -0.45772  -0.45738  -0.45585  -0.43803  -0.43725
 Alpha virt. eigenvalues --    0.20577   0.22941   0.23609   0.24154   0.25894
 Alpha virt. eigenvalues --    0.26094   0.26805   0.27271   0.28335   0.29322
 Alpha virt. eigenvalues --    0.30117   0.31433   0.31707   0.31917   0.32463

 Mulliken charges:
               1
     1  C   -0.298022
     2  C   -0.300752
     3  C   -0.475678
     4  H    0.149699
     5  H    0.149333
     6  H    0.152345
     7  H    0.152080
     8  H    0.155183
     9  H    0.155329
    10  H    0.160389
    11  C   -0.304630
    12  C   -0.298975
    13  C   -0.480725
    14  H    0.149668
    15  H    0.157033
    16  H    0.151988
    17  H    0.151789
    18  H    0.159382
    19  H    0.155236
    20  H    0.160297
    21  C   -0.298371
    22  C   -0.299673
    23  C   -0.475732
    24  H    0.149507
    25  H    0.149515
    26  H    0.151916
    27  H    0.152082
    28  H    0.155268
    29  H    0.155109
    30  H    0.160264
    31  C   -0.297854
    32  C   -0.306070
    33  C   -0.479655
    34  H    0.149701
    35  H    0.150036
    36  H    0.151474
    37  H    0.156262
    38  H    0.155604
    39  H    0.154818
    40  H    0.164828
 Sum of Mulliken charges =  -0.00000

 Dipole moment (field-independent basis, Debye):
    X=             -0.0126    Y=              0.0006    Z=              0.0093  Tot=              0.0157
 Quadrupole moment (field-independent basis, Debye-Ang):
   XX=            -85.9912   YY=            -84.4485   ZZ=            -84.3131
   XY=             -1.1204   XZ=             -0.3730   YZ=              0.7613

 Normal termination of Gaussian 16 at Thu May  6 02:18:11 2021.
