 Gaussian 16, Revision A.03,
 Gaussian 16:  EM64L-G16RevA.03 25-Dec-2016

 -------------
 #p 6-31g* mp2
 -------------

 ------------------------------------------------------
 Input file generated by CHIRIPA (05-May-2021 14:57:26)
 ------------------------------------------------------
 Symbolic Z-matrix:
 Charge =  0 Multiplicity = 1

                         Standard orientation:
 ---------------------------------------------------------------------
 Center     Atomic      Atomic             Coordinates (Angstroms)
 Number     Number       Type             X           Y           Z
 ---------------------------------------------------------------------
      1          6           0       -1.221471    1.228841   -0.348439
      2          6           0       -1.387622   -0.018806   -0.958595
      3          6           0       -2.596428   -0.711289   -0.841107
      4          6           0       -3.622664   -0.124001   -0.102715
      5          6           0       -3.487788    1.117462    0.516857
      6          6           0       -2.270235    1.792000    0.386045
      7          1           0       -0.279044    1.759808   -0.444881
      8          1           0       -0.574865   -0.458586   -1.529616
      9          1           0       -2.752114   -1.678587   -1.303184
     10          1           0       -4.316184    1.530324    1.079638
     11          1           0       -2.144037    2.760792    0.860978
     12          7           0       -4.907003   -0.847603    0.028717
     13          8           0       -5.795752   -0.308646    0.684680
     14          8           0       -5.000598   -1.940017   -0.526718
     15          6           0        2.425230    2.320767   -0.049504
     16          6           0        2.155424    1.527435    1.070473
     17          6           0        2.696234    0.242666    1.177438
     18          6           0        3.506289   -0.219162    0.141187
     19          6           0        3.793591    0.547208   -0.987274
     20          6           0        3.242013    1.828989   -1.072999
     21          1           0        2.000934    3.317646   -0.124347
     22          1           0        1.521444    1.906754    1.866860
     23          1           0        2.503672   -0.392723    2.033369
     24          1           0        4.429204    0.141658   -1.765055
     25          1           0        3.453258    2.442877   -1.943954
     26          7           0        4.084520   -1.577707    0.243182
     27          8           0        4.795113   -1.961423   -0.683348
     28          8           0        3.816197   -2.233095    1.247725
 ---------------------------------------------------------------------

 SCF Done:  E(RHF) =  -868.336133591     A.U. after   16 cycles
 E2 =    -0.2601999958D+01 EUMP2 =    -0.87093813354904D+03

 The electronic state is 1-A.
 Alpha  occ. eigenvalues --  -20.61603 -20.61594 -20.60941 -20.60931 -15.86660
 Alpha  occ. eigenvalues --  -15.85997 -11.32282 -11.31424 -11.28825 -11.28811
 Alpha  occ. eigenvalues --  -11.28668 -11.28050 -11.27983 -11.27947 -11.27936
 Alpha  occ. eigenvalues --  -11.27685 -11.27100 -11.26980  -1.60673  -1.60014
 Alpha  occ. eigenvalues --   -1.40217  -1.39565  -1.20486  -1.19614  -1.09868
 Alpha  occ. eigenvalues --   -1.08995  -1.05887  -1.05031  -0.96642  -0.95817
 Alpha  occ. eigenvalues --   -0.87287  -0.86427  -0.83433  -0.82654  -0.78422
 Alpha  occ. eigenvalues --   -0.77687  -0.72870  -0.72212  -0.72005  -0.71632
 Alpha  occ. eigenvalues --   -0.71339  -0.70731  -0.66116  -0.65870  -0.65263
 Alpha  occ. eigenvalues --   -0.65049  -0.63191  -0.62377  -0.56440  -0.55805
 Alpha  occ. eigenvalues --   -0.54010  -0.53958  -0.53331  -0.53122  -0.49650
 Alpha  occ. eigenvalues --   -0.49610  -0.48978  -0.48963  -0.45564  -0.44957
 Alpha  occ. eigenvalues --   -0.38529  -0.37857  -0.37195  -0.36642
 Alpha virt. eigenvalues --    0.04006   0.04843   0.10104   0.10990   0.15274
 Alpha virt. eigenvalues --    0.16403   0.19807   0.21741   0.26012   0.26706
 Alpha virt. eigenvalues --    0.27166   0.29164   0.29809   0.31463   0.31755

 Mulliken charges:
               1
     1  C   -0.173046
     2  C   -0.223161
     3  C   -0.169839
     4  C    0.158075
     5  C   -0.169884
     6  C   -0.224187
     7  H    0.228870
     8  H    0.226152
     9  H    0.277740
    10  H    0.275659
    11  H    0.218113
    12  N    0.487988
    13  O   -0.460556
    14  O   -0.458787
    15  C   -0.187162
    16  C   -0.218343
    17  C   -0.169553
    18  C    0.158448
    19  C   -0.172354
    20  C   -0.218211
    21  H    0.226308
    22  H    0.226745
    23  H    0.280617
    24  H    0.279231
    25  H    0.227551
    26  N    0.487584
    27  O   -0.457647
    28  O   -0.456350
 Sum of Mulliken charges =  -0.00000

 Dipole moment (field-independent basis, Debye):
    X=              2.7673    Y=              7.1073    Z=             -0.8134  Tot=              7.6703
 Quadrupole moment (field-independent basis, Debye-Ang):
   XX=           -150.5185   YY=           -105.8157   ZZ=            -99.9007
   XY=              6.2793   XZ=             -3.6970   YZ=              2.2873

 Normal termination of Gaussian 16 at Fri May  7 09:43:01 2021.
