 Gaussian 16, Revision A.03,
 Gaussian 16:  EM64L-G16RevA.03 25-Dec-2016

 -------------
 #p 6-31g* mp2
 -------------

 ------------------------------------------------------
 Input file generated by CHIRIPA (05-May-2021 14:51:12)
 ------------------------------------------------------
 Symbolic Z-matrix:
 Charge =  0 Multiplicity = 1

                         Standard orientation:
 ---------------------------------------------------------------------
 Center     Atomic      Atomic             Coordinates (Angstroms)
 Number     Number       Type             X           Y           Z
 ---------------------------------------------------------------------
      1          6           0        3.665128   -0.259540    0.129048
      2          6           0        4.403017   -1.158248   -0.863841
      3          6           0        4.843873   -2.485277   -0.245428
      4          1           0        4.316554   -0.065066    0.992049
      5          1           0        2.786671   -0.795086    0.514922
      6          1           0        5.279048   -0.620647   -1.248769
      7          1           0        3.749829   -1.350449   -1.724667
      8          1           0        3.978083   -3.045309    0.122500
      9          1           0        5.515990   -2.311360    0.601102
     10          1           0        5.369338   -3.112146   -0.972603
     11          6           0        3.218044    1.070766   -0.474382
     12          6           0        2.480156    1.969475    0.518508
     13          6           0        2.039299    3.296503   -0.099905
     14          1           0        4.096502    1.606313   -0.860255
     15          1           0        2.566619    0.876292   -1.337382
     16          1           0        3.133344    2.161675    1.379334
     17          1           0        1.604125    1.431873    0.903436
     18          1           0        1.367182    3.122587   -0.946435
     19          1           0        2.905090    3.856535   -0.467833
     20          1           0        1.513835    3.923372    0.627269
     21          6           0       -2.918361   -0.425628    0.728784
     22          6           0       -1.528258   -0.832809    0.239088
     23          6           0       -0.492420   -0.868271    1.363176
     24          1           0       -2.857579    0.562715    1.204629
     25          1           0       -3.245328   -1.128081    1.507918
     26          1           0       -1.204592   -0.130609   -0.539869
     27          1           0       -1.592392   -1.820214   -0.235818
     28          1           0       -0.789036   -1.582638    2.137966
     29          1           0       -0.399033    0.116568    1.832188
     30          1           0        0.494091   -1.161683    0.990930
     31          6           0       -3.964812   -0.385598   -0.383451
     32          6           0       -5.354915    0.021583    0.106246
     33          6           0       -6.390753    0.057045   -1.017842
     34          1           0       -3.637844    0.316854   -1.162584
     35          1           0       -4.025594   -1.373941   -0.859295
     36          1           0       -5.290781    1.008987    0.581151
     37          1           0       -5.678580   -0.680618    0.885202
     38          1           0       -6.484140   -0.927794   -1.486855
     39          1           0       -6.094137    0.771411   -1.792634
     40          1           0       -7.377263    0.350456   -0.645597
 ---------------------------------------------------------------------

 SCF Done:  E(RHF) =  -470.732829853     A.U. after   11 cycles
 E2 =    -0.1583501444D+01 EUMP2 =    -0.47231633129733D+03

 The electronic state is 1-A.
 Alpha  occ. eigenvalues --  -11.21684 -11.21630 -11.21587 -11.21515 -11.21453
 Alpha  occ. eigenvalues --  -11.21392 -11.21373 -11.21314 -11.21149 -11.21093
 Alpha  occ. eigenvalues --  -11.21063 -11.21053  -1.08486  -1.08400  -1.03592
 Alpha  occ. eigenvalues --   -1.03499  -0.96044  -0.95957  -0.87062  -0.86974
 Alpha  occ. eigenvalues --   -0.79666  -0.79557  -0.78300  -0.78206  -0.65173
 Alpha  occ. eigenvalues --   -0.65009  -0.61091  -0.60804  -0.59423  -0.59324
 Alpha  occ. eigenvalues --   -0.57702  -0.57524  -0.55343  -0.55242  -0.52794
 Alpha  occ. eigenvalues --   -0.52623  -0.52489  -0.52347  -0.50054  -0.49852
 Alpha  occ. eigenvalues --   -0.48018  -0.47837  -0.46778  -0.46503  -0.45837
 Alpha  occ. eigenvalues --   -0.45782  -0.45739  -0.45616  -0.43795  -0.43728
 Alpha virt. eigenvalues --    0.20593   0.23069   0.23822   0.24584   0.26197
 Alpha virt. eigenvalues --    0.26634   0.26854   0.27505   0.27881   0.28743
 Alpha virt. eigenvalues --    0.30642   0.31422   0.31782   0.32058   0.32144

 Mulliken charges:
               1
     1  C   -0.306162
     2  C   -0.299224
     3  C   -0.475625
     4  H    0.149923
     5  H    0.156200
     6  H    0.151991
     7  H    0.151736
     8  H    0.154811
     9  H    0.155303
    10  H    0.160235
    11  C   -0.297427
    12  C   -0.307280
    13  C   -0.475366
    14  H    0.149422
    15  H    0.149038
    16  H    0.151529
    17  H    0.160843
    18  H    0.154433
    19  H    0.155123
    20  H    0.159668
    21  C   -0.298763
    22  C   -0.299776
    23  C   -0.484841
    24  H    0.150025
    25  H    0.149792
    26  H    0.151887
    27  H    0.152176
    28  H    0.156165
    29  H    0.157272
    30  H    0.166433
    31  C   -0.298295
    32  C   -0.299706
    33  C   -0.475743
    34  H    0.149593
    35  H    0.149701
    36  H    0.152081
    37  H    0.151996
    38  H    0.155201
    39  H    0.155254
    40  H    0.160379
 Sum of Mulliken charges =  -0.00000

 Dipole moment (field-independent basis, Debye):
    X=             -0.0350    Y=             -0.0203    Z=              0.0225  Tot=              0.0463
 Quadrupole moment (field-independent basis, Debye-Ang):
   XX=            -84.8528   YY=            -84.7142   ZZ=            -85.2633
   XY=              1.0189   XZ=             -0.4869   YZ=              0.2994

 Normal termination of Gaussian 16 at Thu May  6 00:44:23 2021.
