 Gaussian 16, Revision A.03,
 Gaussian 16:  EM64L-G16RevA.03 25-Dec-2016

 -------------
 #p 6-31g* mp2
 -------------

 ------------------------------------------------------
 Input file generated by CHIRIPA (05-May-2021 14:53:17)
 ------------------------------------------------------
 Symbolic Z-matrix:
 Charge =  0 Multiplicity = 1

                         Standard orientation:
 ---------------------------------------------------------------------
 Center     Atomic      Atomic             Coordinates (Angstroms)
 Number     Number       Type             X           Y           Z
 ---------------------------------------------------------------------
      1          6           0        2.322188    1.416309   -0.420941
      2          6           0        0.979515    1.699021    0.253809
      3          6           0        0.155871    2.752824   -0.487071
      4          1           0        2.895472    2.351053   -0.488358
      5          1           0        2.143278    1.084237   -1.452984
      6          1           0        1.160847    2.029135    1.284711
      7          1           0        0.409440    0.763459    0.319800
      8          1           0       -0.054205    2.427607   -1.511133
      9          1           0        0.701471    3.700475   -0.540740
     10          1           0       -0.799917    2.939456    0.012426
     11          6           0        3.157046    0.364942    0.308010
     12          6           0        4.499720    0.082231   -0.366739
     13          6           0        5.323363   -0.971573    0.374141
     14          1           0        3.335956    0.697015    1.340054
     15          1           0        2.583762   -0.569801    0.375428
     16          1           0        5.069794    1.017792   -0.432731
     17          1           0        4.318388   -0.247884   -1.397641
     18          1           0        4.777763   -1.919223    0.427810
     19          1           0        5.533439   -0.646356    1.398203
     20          1           0        6.279151   -1.158204   -0.125357
     21          6           0       -0.449510   -2.550592   -0.214377
     22          6           0       -1.162243   -2.092968   -1.327533
     23          6           0       -2.101513   -1.065821   -1.196047
     24          6           0       -2.303787   -0.516487    0.069103
     25          6           0       -1.609415   -0.950757    1.197176
     26          6           0       -0.674973   -1.979033    1.042208
     27          1           0        0.278262   -3.348943   -0.325639
     28          1           0       -0.989213   -2.534986   -2.304634
     29          1           0       -2.667175   -0.692421   -2.041043
     30          1           0       -1.803691   -0.490519    2.158349
     31          1           0       -0.122912   -2.332426    1.908457
     32          7           0       -3.295595    0.571505    0.220731
     33          8           0       -3.455402    1.038911    1.346177
     34          8           0       -3.894387    0.936267   -0.788742
 ---------------------------------------------------------------------

 SCF Done:  E(RHF) =  -669.534904139     A.U. after   15 cycles
 E2 =    -0.2094602584D+01 EUMP2 =    -0.67162950672294D+03

 The electronic state is 1-A.
 Alpha  occ. eigenvalues --  -20.60857 -20.60851 -15.85909 -11.31292 -11.27891
 Alpha  occ. eigenvalues --  -11.27850 -11.27655 -11.26915 -11.26893 -11.21915
 Alpha  occ. eigenvalues --  -11.21641 -11.21479 -11.21447 -11.21365 -11.20797
 Alpha  occ. eigenvalues --   -1.59930  -1.39482  -1.19507  -1.08882  -1.08565
 Alpha  occ. eigenvalues --   -1.04906  -1.03622  -0.96081  -0.95709  -0.87090
 Alpha  occ. eigenvalues --   -0.86290  -0.82535  -0.79708  -0.78381  -0.77575
 Alpha  occ. eigenvalues --   -0.72126  -0.71262  -0.70595  -0.65224  -0.65142
 Alpha  occ. eigenvalues --   -0.64888  -0.62237  -0.61063  -0.59466  -0.57691
 Alpha  occ. eigenvalues --   -0.55414  -0.55385  -0.53313  -0.52980  -0.52723
 Alpha  occ. eigenvalues --   -0.52495  -0.50028  -0.48888  -0.48879  -0.48001
 Alpha  occ. eigenvalues --   -0.46746  -0.45892  -0.45786  -0.44872  -0.43868
 Alpha  occ. eigenvalues --   -0.37467  -0.36428
 Alpha virt. eigenvalues --    0.04939   0.11058   0.16414   0.21135   0.22737
 Alpha virt. eigenvalues --    0.24075   0.26338   0.26868   0.27565   0.27725
 Alpha virt. eigenvalues --    0.28421   0.30898   0.31309   0.31643   0.31893

 Mulliken charges:
               1
     1  C   -0.296003
     2  C   -0.309628
     3  C   -0.480084
     4  H    0.150085
     5  H    0.147466
     6  H    0.149930
     7  H    0.161636
     8  H    0.153621
     9  H    0.155392
    10  H    0.168735
    11  C   -0.298361
    12  C   -0.299498
    13  C   -0.474851
    14  H    0.149223
    15  H    0.143740
    16  H    0.154060
    17  H    0.150555
    18  H    0.150005
    19  H    0.156045
    20  H    0.161278
    21  C   -0.171434
    22  C   -0.218034
    23  C   -0.171796
    24  C    0.164041
    25  C   -0.177481
    26  C   -0.215443
    27  H    0.226492
    28  H    0.224178
    29  H    0.276344
    30  H    0.276538
    31  H    0.225126
    32  N    0.488560
    33  O   -0.460730
    34  O   -0.459707
 Sum of Mulliken charges =  -0.00000

 Dipole moment (field-independent basis, Debye):
    X=              3.3498    Y=             -3.8330    Z=             -0.5279  Tot=              5.1178
 Quadrupole moment (field-independent basis, Debye-Ang):
   XX=           -111.9125   YY=            -91.3664   ZZ=            -89.9104
   XY=              8.0082   XZ=              2.5623   YZ=              1.0454

 Normal termination of Gaussian 16 at Wed May  5 23:38:05 2021.
