 Gaussian 16, Revision A.03,
 Gaussian 16:  EM64L-G16RevA.03 25-Dec-2016

 -------------
 #p 6-31g* mp2
 -------------

 ------------------------------------------------------
 Input file generated by CHIRIPA (05-May-2021 14:51:12)
 ------------------------------------------------------
 Symbolic Z-matrix:
 Charge =  0 Multiplicity = 1

                         Standard orientation:
 ---------------------------------------------------------------------
 Center     Atomic      Atomic             Coordinates (Angstroms)
 Number     Number       Type             X           Y           Z
 ---------------------------------------------------------------------
      1          6           0       -2.185570    0.091866   -0.099660
      2          6           0       -3.467225   -0.676788   -0.422953
      3          6           0       -3.243682   -2.186502   -0.515612
      4          1           0       -1.432841   -0.122141   -0.870727
      5          1           0       -1.774227   -0.277785    0.849840
      6          1           0       -3.876775   -0.304842   -1.370867
      7          1           0       -4.217054   -0.460776    0.348870
      8          1           0       -2.857184   -2.577533    0.431127
      9          1           0       -2.514971   -2.420713   -1.298381
     10          1           0       -4.172799   -2.716433   -0.747505
     11          6           0       -2.392906    1.602341   -0.003724
     12          6           0       -1.111251    2.370995    0.319569
     13          6           0       -1.334794    3.880709    0.412229
     14          1           0       -2.804249    1.971992   -0.953224
     15          1           0       -3.145635    1.816348    0.767343
     16          1           0       -0.361422    2.154983   -0.452254
     17          1           0       -0.701701    1.999049    1.267483
     18          1           0       -2.063505    4.114920    1.194998
     19          1           0       -1.721293    4.271740   -0.534510
     20          1           0       -0.405677    4.410641    0.644121
     21          6           0        2.803371   -0.469398   -0.368353
     22          6           0        3.143830    0.913172    0.188936
     23          6           0        4.173727    1.656464   -0.662313
     24          1           0        3.723048   -1.066295   -0.438014
     25          1           0        2.423099   -0.360377   -1.393489
     26          1           0        3.522045    0.801693    1.213212
     27          1           0        2.223206    1.506781    0.257458
     28          1           0        3.801265    1.797002   -1.682176
     29          1           0        5.107484    1.087908   -0.720991
     30          1           0        4.402451    2.642393   -0.245793
     31          6           0        1.775105   -1.224808    0.471737
     32          6           0        1.434646   -2.607379   -0.085552
     33          6           0        0.404749   -3.350671    0.765696
     34          1           0        2.155376   -1.333831    1.496873
     35          1           0        0.855428   -0.627912    0.541398
     36          1           0        2.355270   -3.200988   -0.154073
     37          1           0        1.056431   -2.495901   -1.109829
     38          1           0       -0.529008   -2.782114    0.824374
     39          1           0        0.777211   -3.491208    1.785560
     40          1           0        0.176025   -4.336600    0.349176
 ---------------------------------------------------------------------

 SCF Done:  E(RHF) =  -470.732299272     A.U. after   11 cycles
 E2 =    -0.1585457354D+01 EUMP2 =    -0.47231775662592D+03

 The electronic state is 1-A.
 Alpha  occ. eigenvalues --  -11.21712 -11.21687 -11.21525 -11.21509 -11.21497
 Alpha  occ. eigenvalues --  -11.21463 -11.21303 -11.21201 -11.21149 -11.21110
 Alpha  occ. eigenvalues --  -11.21024 -11.20899  -1.08561  -1.08316  -1.03641
 Alpha  occ. eigenvalues --   -1.03422  -0.96090  -0.95868  -0.87116  -0.86877
 Alpha  occ. eigenvalues --   -0.79759  -0.79445  -0.78521  -0.78012  -0.65181
 Alpha  occ. eigenvalues --   -0.64960  -0.61027  -0.60880  -0.59445  -0.59231
 Alpha  occ. eigenvalues --   -0.57777  -0.57456  -0.55380  -0.55149  -0.52763
 Alpha  occ. eigenvalues --   -0.52638  -0.52523  -0.52232  -0.50038  -0.49787
 Alpha  occ. eigenvalues --   -0.48218  -0.47669  -0.46783  -0.46566  -0.46349
 Alpha  occ. eigenvalues --   -0.45781  -0.45655  -0.44960  -0.43874  -0.43680
 Alpha virt. eigenvalues --    0.20444   0.21947   0.23527   0.24527   0.25379
 Alpha virt. eigenvalues --    0.26022   0.26478   0.27622   0.29093   0.29992
 Alpha virt. eigenvalues --    0.30218   0.31007   0.31914   0.31980   0.32182

 Mulliken charges:
               1
     1  C   -0.303417
     2  C   -0.299621
     3  C   -0.479081
     4  H    0.150927
     5  H    0.152423
     6  H    0.152140
     7  H    0.152246
     8  H    0.158715
     9  H    0.156088
    10  H    0.160900
    11  C   -0.297977
    12  C   -0.303966
    13  C   -0.475936
    14  H    0.149893
    15  H    0.150187
    16  H    0.153978
    17  H    0.153793
    18  H    0.155607
    19  H    0.155429
    20  H    0.160877
    21  C   -0.297348
    22  C   -0.304922
    23  C   -0.475376
    24  H    0.149301
    25  H    0.148045
    26  H    0.151472
    27  H    0.157488
    28  H    0.154560
    29  H    0.155062
    30  H    0.159855
    31  C   -0.306921
    32  C   -0.298546
    33  C   -0.483021
    34  H    0.148339
    35  H    0.159687
    36  H    0.151389
    37  H    0.150454
    38  H    0.164087
    39  H    0.153646
    40  H    0.159542
 Sum of Mulliken charges =  -0.00000

 Dipole moment (field-independent basis, Debye):
    X=             -0.1160    Y=              0.0461    Z=              0.0123  Tot=              0.1254
 Quadrupole moment (field-independent basis, Debye-Ang):
   XX=            -84.7868   YY=            -86.3252   ZZ=            -83.7555
   XY=             -0.6965   XZ=              0.5844   YZ=             -0.0450

 Normal termination of Gaussian 16 at Wed May  5 16:46:53 2021.
