 Gaussian 16, Revision A.03,
 Gaussian 16:  EM64L-G16RevA.03 25-Dec-2016

 -------------
 #p 6-31g* mp2
 -------------

 ------------------------------------------------------
 Input file generated by CHIRIPA (05-May-2021 14:51:08)
 ------------------------------------------------------
 Symbolic Z-matrix:
 Charge =  0 Multiplicity = 1

                         Standard orientation:
 ---------------------------------------------------------------------
 Center     Atomic      Atomic             Coordinates (Angstroms)
 Number     Number       Type             X           Y           Z
 ---------------------------------------------------------------------
      1          6           0       -2.251734    0.392551   -0.713042
      2          6           0       -3.389993   -0.538028   -0.293071
      3          6           0       -3.660346   -1.640804   -1.317077
      4          1           0       -2.495235    0.844013   -1.684553
      5          1           0       -1.339209   -0.200673   -0.863970
      6          1           0       -4.299756    0.056963   -0.141638
      7          1           0       -3.143840   -0.987180    0.677644
      8          1           0       -2.768452   -2.258950   -1.462066
      9          1           0       -3.930936   -1.208874   -2.286004
     10          1           0       -4.477726   -2.294408   -0.996838
     11          6           0       -1.969542    1.500200    0.300472
     12          6           0       -0.831283    2.430778   -0.119499
     13          6           0       -0.560929    3.533554    0.904507
     14          1           0       -2.882066    2.093424    0.451399
     15          1           0       -1.726041    1.048737    1.271983
     16          1           0       -1.077435    2.879930   -1.090214
     17          1           0        0.078481    1.835787   -0.270932
     18          1           0       -0.290340    3.101624    1.873433
     19          1           0       -1.452823    4.151700    1.049496
     20          1           0        0.256450    4.187158    0.584268
     21          6           0        1.592658   -1.507208    0.181905
     22          6           0        0.590828   -1.457938    1.335982
     23          6           0       -0.439027   -2.586331    1.273384
     24          1           0        1.047787   -1.455839   -0.770682
     25          1           0        2.108861   -2.477138    0.194819
     26          1           0        0.077655   -0.487852    1.321728
     27          1           0        1.138161   -1.509238    2.285936
     28          1           0        0.055940   -3.562146    1.310721
     29          1           0       -1.010591   -2.534957    0.341034
     30          1           0       -1.145288   -2.532020    2.107714
     31          6           0        2.628618   -0.385542    0.230665
     32          6           0        3.630447   -0.434813   -0.923413
     33          6           0        4.660303    0.693581   -0.860814
     34          1           0        2.112415    0.584388    0.217751
     35          1           0        3.173488   -0.436911    1.183252
     36          1           0        3.083115   -0.383512   -1.873366
     37          1           0        4.143621   -1.404898   -0.909158
     38          1           0        5.231866    0.642206    0.071536
     39          1           0        4.165335    1.669395   -0.898151
     40          1           0        5.366563    0.639269   -1.695144
 ---------------------------------------------------------------------

 SCF Done:  E(RHF) =  -470.731365226     A.U. after   11 cycles
 E2 =    -0.1587267010D+01 EUMP2 =    -0.47231863223664D+03

 The electronic state is 1-A.
 Alpha  occ. eigenvalues --  -11.21657 -11.21633 -11.21631 -11.21575 -11.21465
 Alpha  occ. eigenvalues --  -11.21436 -11.21401 -11.21374 -11.21117 -11.21114
 Alpha  occ. eigenvalues --  -11.21092 -11.21091  -1.08601  -1.08379  -1.03630
 Alpha  occ. eigenvalues --   -1.03525  -0.96036  -0.96022  -0.87060  -0.87028
 Alpha  occ. eigenvalues --   -0.79710  -0.79577  -0.78328  -0.78284  -0.65910
 Alpha  occ. eigenvalues --   -0.64504  -0.61263  -0.60661  -0.59445  -0.59344
 Alpha  occ. eigenvalues --   -0.57687  -0.57604  -0.55347  -0.55283  -0.52727
 Alpha  occ. eigenvalues --   -0.52706  -0.52471  -0.52434  -0.50001  -0.49951
 Alpha  occ. eigenvalues --   -0.48043  -0.47934  -0.46873  -0.46506  -0.46149
 Alpha  occ. eigenvalues --   -0.45806  -0.45581  -0.45401  -0.43830  -0.43813
 Alpha virt. eigenvalues --    0.19079   0.21835   0.23282   0.25039   0.25215
 Alpha virt. eigenvalues --    0.26098   0.27433   0.27753   0.28814   0.29592
 Alpha virt. eigenvalues --    0.31187   0.31566   0.31718   0.31970   0.32424

 Mulliken charges:
               1
     1  C   -0.304082
     2  C   -0.303337
     3  C   -0.477942
     4  H    0.150128
     5  H    0.154249
     6  H    0.152456
     7  H    0.156747
     8  H    0.155852
     9  H    0.155332
    10  H    0.160888
    11  C   -0.301969
    12  C   -0.308041
    13  C   -0.475479
    14  H    0.151236
    15  H    0.151430
    16  H    0.152636
    17  H    0.157729
    18  H    0.155509
    19  H    0.155659
    20  H    0.160220
    21  C   -0.300407
    22  C   -0.308979
    23  C   -0.481554
    24  H    0.150512
    25  H    0.150375
    26  H    0.160420
    27  H    0.152860
    28  H    0.155739
    29  H    0.161536
    30  H    0.159845
    31  C   -0.305331
    32  C   -0.299443
    33  C   -0.475793
    34  H    0.155519
    35  H    0.150215
    36  H    0.152175
    37  H    0.152110
    38  H    0.155252
    39  H    0.155296
    40  H    0.160432
 Sum of Mulliken charges =  -0.00000

 Dipole moment (field-independent basis, Debye):
    X=             -0.0049    Y=              0.0010    Z=              0.0103  Tot=              0.0114
 Quadrupole moment (field-independent basis, Debye-Ang):
   XX=            -84.6413   YY=            -85.3469   ZZ=            -84.6764
   XY=             -1.6287   XZ=              0.4978   YZ=             -1.0871

 Normal termination of Gaussian 16 at Wed May  5 18:07:12 2021.
