 Gaussian 16, Revision A.03,
 Gaussian 16:  EM64L-G16RevA.03 25-Dec-2016

 -------------
 #p 6-31g* mp2
 -------------

 ------------------------------------------------------
 Input file generated by CHIRIPA (05-May-2021 14:57:24)
 ------------------------------------------------------
 Symbolic Z-matrix:
 Charge =  0 Multiplicity = 1

                         Standard orientation:
 ---------------------------------------------------------------------
 Center     Atomic      Atomic             Coordinates (Angstroms)
 Number     Number       Type             X           Y           Z
 ---------------------------------------------------------------------
      1          6           0       -5.021779   -2.107267   -0.641998
      2          6           0       -3.765894   -2.086146   -0.026510
      3          6           0       -3.178034   -0.873607    0.345939
      4          6           0       -3.877207    0.304210    0.086717
      5          6           0       -5.129846    0.315941   -0.524879
      6          6           0       -5.698554   -0.908270   -0.888783
      7          1           0       -5.471004   -3.053730   -0.928007
      8          1           0       -3.238000   -3.015751    0.166381
      9          1           0       -2.206977   -0.828336    0.823868
     10          1           0       -5.631823    1.258966   -0.704158
     11          1           0       -6.674018   -0.921641   -1.366629
     12          7           0       -3.265004    1.594049    0.476490
     13          8           0       -3.901453    2.617904    0.237136
     14          8           0       -2.160303    1.556746    1.013966
     15          6           0        1.500832   -0.186339    0.446634
     16          6           0        2.016185    0.803204   -0.397010
     17          6           0        3.387102    0.865228   -0.664008
     18          6           0        4.217600   -0.082472   -0.067830
     19          6           0        3.734388   -1.080397    0.777120
     20          6           0        2.360063   -1.123330    1.029978
     21          1           0        0.434547   -0.227106    0.648552
     22          1           0        1.351260    1.532192   -0.851429
     23          1           0        3.812760    1.620694   -1.313241
     24          1           0        4.422143   -1.793296    1.215510
     25          1           0        1.962631   -1.892934    1.685571
     26          7           0        5.670732   -0.026916   -0.343005
     27          8           0        6.381358   -0.873485    0.194553
     28          8           0        6.071555    0.862146   -1.091033
 ---------------------------------------------------------------------

 SCF Done:  E(RHF) =  -868.338644992     A.U. after   16 cycles
 E2 =    -0.2599237017D+01 EUMP2 =    -0.87093788200827D+03

 The electronic state is 1-A.
 Alpha  occ. eigenvalues --  -20.61883 -20.61820 -20.60467 -20.60458 -15.86888
 Alpha  occ. eigenvalues --  -15.85516 -11.32132 -11.30809 -11.28774 -11.28614
 Alpha  occ. eigenvalues --  -11.28332 -11.27672 -11.27595 -11.27408 -11.27332
 Alpha  occ. eigenvalues --  -11.27054 -11.26423 -11.26262  -1.60913  -1.59543
 Alpha  occ. eigenvalues --   -1.40477  -1.39098  -1.20274  -1.18969  -1.09678
 Alpha  occ. eigenvalues --   -1.08367  -1.05664  -1.04363  -0.96545  -0.95217
 Alpha  occ. eigenvalues --   -0.87066  -0.85755  -0.83386  -0.82056  -0.78471
 Alpha  occ. eigenvalues --   -0.77120  -0.73114  -0.72226  -0.71736  -0.71382
 Alpha  occ. eigenvalues --   -0.70865  -0.70052  -0.65927  -0.65657  -0.64616
 Alpha  occ. eigenvalues --   -0.64354  -0.63033  -0.61711  -0.56139  -0.54845
 Alpha  occ. eigenvalues --   -0.53983  -0.53736  -0.52695  -0.52446  -0.49879
 Alpha  occ. eigenvalues --   -0.49836  -0.48495  -0.48487  -0.45905  -0.44520
 Alpha  occ. eigenvalues --   -0.38217  -0.37255  -0.36929  -0.35970
 Alpha virt. eigenvalues --    0.04051   0.05412   0.10380   0.11689   0.15598
 Alpha virt. eigenvalues --    0.16925   0.19073   0.21880   0.25022   0.26947
 Alpha virt. eigenvalues --    0.27744   0.28910   0.30522   0.30904   0.32897

 Mulliken charges:
               1
     1  C   -0.169735
     2  C   -0.219033
     3  C   -0.172901
     4  C    0.157688
     5  C   -0.169666
     6  C   -0.217984
     7  H    0.229009
     8  H    0.224851
     9  H    0.271196
    10  H    0.277913
    11  H    0.226894
    12  N    0.489415
    13  O   -0.453884
    14  O   -0.471493
    15  C   -0.175841
    16  C   -0.220491
    17  C   -0.171413
    18  C    0.157953
    19  C   -0.171204
    20  C   -0.220745
    21  H    0.235741
    22  H    0.231020
    23  H    0.275287
    24  H    0.273662
    25  H    0.218451
    26  N    0.488084
    27  O   -0.462078
    28  O   -0.460695
 Sum of Mulliken charges =  -0.00000

 Dipole moment (field-independent basis, Debye):
    X=             -7.7382    Y=             -4.6486    Z=             -0.5238  Tot=              9.0423
 Quadrupole moment (field-independent basis, Debye-Ang):
   XX=           -127.7299   YY=           -103.6461   ZZ=           -104.1903
   XY=             14.2506   XZ=             12.0938   YZ=             -4.5232

 Normal termination of Gaussian 16 at Thu May  6 01:51:45 2021.
