 Gaussian 16, Revision A.03,
 Gaussian 16:  EM64L-G16RevA.03 25-Dec-2016

 -------------
 #p 6-31g* mp2
 -------------

 ------------------------------------------------------
 Input file generated by CHIRIPA (05-May-2021 14:55:24)
 ------------------------------------------------------
 Symbolic Z-matrix:
 Charge =  0 Multiplicity = 1

                         Standard orientation:
 ---------------------------------------------------------------------
 Center     Atomic      Atomic             Coordinates (Angstroms)
 Number     Number       Type             X           Y           Z
 ---------------------------------------------------------------------
      1          6           0       -3.735248    2.388811   -0.333515
      2          6           0       -3.078378    2.119525    0.871693
      3          6           0       -2.681268    0.816973    1.188255
      4          6           0       -2.958293   -0.196819    0.272409
      5          6           0       -3.611019    0.039686   -0.936435
      6          6           0       -3.999006    1.349865   -1.232149
      7          1           0       -4.040189    3.403627   -0.571330
      8          1           0       -2.872223    2.924411    1.571481
      9          1           0       -2.171216    0.580448    2.114171
     10          1           0       -3.802651   -0.783458   -1.614025
     11          1           0       -4.508980    1.556056   -2.168876
     12          7           0       -2.542719   -1.579809    0.596503
     13          8           0       -2.798491   -2.455406   -0.227237
     14          8           0       -1.969089   -1.762013    1.668132
     15          6           0        4.354149    0.329992    0.184871
     16          6           0        5.823481    0.167027   -0.205634
     17          6           0        6.771192    0.912633    0.734424
     18          1           0        4.099714    1.398706    0.192419
     19          1           0        4.212768   -0.032239    1.212585
     20          1           0        5.961776    0.528178   -1.232796
     21          1           0        6.074397   -0.901434   -0.212440
     22          1           0        6.662489    0.546968    1.760618
     23          1           0        6.549228    1.984702    0.734465
     24          1           0        7.816373    0.782587    0.436856
     25          6           0        3.394419   -0.409645   -0.745496
     26          6           0        1.925088   -0.246680   -0.354993
     27          6           0        0.977376   -0.992286   -1.295050
     28          1           0        3.535801   -0.047414   -1.773211
     29          1           0        3.648854   -1.478359   -0.753045
     30          1           0        1.674171    0.821781   -0.348187
     31          1           0        1.786793   -0.607830    0.672169
     32          1           0        1.199340   -2.064355   -1.295091
     33          1           0        1.086079   -0.626620   -2.321245
     34          1           0       -0.067804   -0.862239   -0.997482
 ---------------------------------------------------------------------

 SCF Done:  E(RHF) =  -669.535587967     A.U. after   15 cycles
 E2 =    -0.2091599321D+01 EUMP2 =    -0.67162718728785D+03

 The electronic state is 1-A.
 Alpha  occ. eigenvalues --  -20.60800 -20.60794 -15.85846 -11.31220 -11.27788
 Alpha  occ. eigenvalues --  -11.27785 -11.27531 -11.26800 -11.26791 -11.21423
 Alpha  occ. eigenvalues --  -11.21237 -11.21173 -11.21074 -11.20937 -11.20643
 Alpha  occ. eigenvalues --   -1.59876  -1.39427  -1.19394  -1.08792  -1.08169
 Alpha  occ. eigenvalues --   -1.04792  -1.03254  -0.95705  -0.95623  -0.86721
 Alpha  occ. eigenvalues --   -0.86191  -0.82450  -0.79321  -0.77982  -0.77497
 Alpha  occ. eigenvalues --   -0.72067  -0.71226  -0.70496  -0.65044  -0.64795
 Alpha  occ. eigenvalues --   -0.64794  -0.62137  -0.60640  -0.59086  -0.57324
 Alpha  occ. eigenvalues --   -0.55294  -0.54981  -0.53143  -0.52883  -0.52386
 Alpha  occ. eigenvalues --   -0.52126  -0.49635  -0.48828  -0.48821  -0.47643
 Alpha  occ. eigenvalues --   -0.46349  -0.45526  -0.45443  -0.44826  -0.43518
 Alpha  occ. eigenvalues --   -0.37366  -0.36391
 Alpha virt. eigenvalues --    0.05030   0.11252   0.16506   0.21397   0.23095
 Alpha virt. eigenvalues --    0.24412   0.26911   0.27301   0.27675   0.27995
 Alpha virt. eigenvalues --    0.28349   0.30646   0.31683   0.31706   0.32083

 Mulliken charges:
               1
     1  C   -0.170655
     2  C   -0.218496
     3  C   -0.171134
     4  C    0.154961
     5  C   -0.171553
     6  C   -0.218319
     7  H    0.225713
     8  H    0.223622
     9  H    0.275984
    10  H    0.276226
    11  H    0.223642
    12  N    0.491231
    13  O   -0.459371
    14  O   -0.459993
    15  C   -0.298079
    16  C   -0.299495
    17  C   -0.475555
    18  H    0.147195
    19  H    0.150630
    20  H    0.151076
    21  H    0.152886
    22  H    0.155511
    23  H    0.153883
    24  H    0.159839
    25  C   -0.298386
    26  C   -0.301150
    27  C   -0.472303
    28  H    0.147682
    29  H    0.151743
    30  H    0.146622
    31  H    0.157919
    32  H    0.162471
    33  H    0.151059
    34  H    0.154592
 Sum of Mulliken charges =  -0.00000

 Dipole moment (field-independent basis, Debye):
    X=             -1.5224    Y=              4.7993    Z=             -1.1139  Tot=              5.1567
 Quadrupole moment (field-independent basis, Debye-Ang):
   XX=            -86.8964   YY=            -96.1479   ZZ=            -91.8499
   XY=            -14.3705   XZ=              4.6267   YZ=              2.4015

 Normal termination of Gaussian 16 at Wed May  5 16:04:47 2021.
