 Gaussian 16, Revision A.03,
 Gaussian 16:  EM64L-G16RevA.03 25-Dec-2016

 -------------
 #p 6-31g* mp2
 -------------

 ------------------------------------------------------
 Input file generated by CHIRIPA (05-May-2021 14:57:25)
 ------------------------------------------------------
 Symbolic Z-matrix:
 Charge =  0 Multiplicity = 1

                         Standard orientation:
 ---------------------------------------------------------------------
 Center     Atomic      Atomic             Coordinates (Angstroms)
 Number     Number       Type             X           Y           Z
 ---------------------------------------------------------------------
      1          6           0       -5.448124    1.764878   -0.237438
      2          6           0       -5.638362    0.512560   -0.830758
      3          6           0       -4.659078   -0.479546   -0.724570
      4          6           0       -3.496455   -0.183861   -0.014523
      5          6           0       -3.277573    1.054149    0.587733
      6          6           0       -4.270413    2.031206    0.468669
      7          1           0       -6.214120    2.529725   -0.324928
      8          1           0       -6.551993    0.302920   -1.379734
      9          1           0       -4.780463   -1.457613   -1.174090
     10          1           0       -2.356335    1.233564    1.128610
     11          1           0       -4.119957    3.002876    0.930477
     12          7           0       -2.452555   -1.226194    0.104709
     13          8           0       -1.437135   -0.940735    0.735639
     14          8           0       -2.669532   -2.308896   -0.435025
     15          6           0        2.348232   -2.059295    0.610584
     16          6           0        3.289618   -2.094400   -0.423380
     17          6           0        4.026859   -0.952730   -0.751421
     18          6           0        3.796140    0.212325   -0.021551
     19          6           0        2.865277    0.278922    1.013991
     20          6           0        2.139434   -0.874834    1.324710
     21          1           0        1.779952   -2.950867    0.858686
     22          1           0        3.453872   -3.012876   -0.979679
     23          1           0        4.761881   -0.952005   -1.547135
     24          1           0        2.723651    1.209175    1.550636
     25          1           0        1.408994   -0.844646    2.128197
     26          7           0        4.570592    1.427357   -0.359665
     27          8           0        4.348661    2.441385    0.298463
     28          8           0        5.384872    1.342667   -1.276405
 ---------------------------------------------------------------------

 SCF Done:  E(RHF) =  -868.339880468     A.U. after   16 cycles
 E2 =    -0.2598604241D+01 EUMP2 =    -0.87093848470905D+03

 The electronic state is 1-A.
 Alpha  occ. eigenvalues --  -20.61542 -20.61522 -20.60067 -20.60060 -15.86569
 Alpha  occ. eigenvalues --  -15.85109 -11.31691 -11.30202 -11.28238 -11.28223
 Alpha  occ. eigenvalues --  -11.27918 -11.27187 -11.27177 -11.26753 -11.26703
 Alpha  occ. eigenvalues --  -11.26279 -11.25688 -11.25542  -1.60599  -1.59148
 Alpha  occ. eigenvalues --   -1.40161  -1.38710  -1.19838  -1.18320  -1.09277
 Alpha  occ. eigenvalues --   -1.07732  -1.05205  -1.03686  -0.96156  -0.94627
 Alpha  occ. eigenvalues --   -0.86615  -0.85074  -0.83000  -0.81482  -0.78075
 Alpha  occ. eigenvalues --   -0.76591  -0.72817  -0.71897  -0.71334  -0.70944
 Alpha  occ. eigenvalues --   -0.70468  -0.69372  -0.65498  -0.65205  -0.63957
 Alpha  occ. eigenvalues --   -0.63651  -0.62559  -0.61050  -0.55711  -0.54101
 Alpha  occ. eigenvalues --   -0.53545  -0.53295  -0.52018  -0.51761  -0.49573
 Alpha  occ. eigenvalues --   -0.49534  -0.48106  -0.48061  -0.45616  -0.44178
 Alpha  occ. eigenvalues --   -0.37799  -0.36796  -0.36207  -0.35277
 Alpha virt. eigenvalues --    0.04448   0.05934   0.10862   0.12388   0.15999
 Alpha virt. eigenvalues --    0.17536   0.21005   0.22575   0.26934   0.27721
 Alpha virt. eigenvalues --    0.28511   0.29466   0.30619   0.31907   0.32392

 Mulliken charges:
               1
     1  C   -0.169882
     2  C   -0.218439
     3  C   -0.170504
     4  C    0.158104
     5  C   -0.169764
     6  C   -0.218237
     7  H    0.227752
     8  H    0.225031
     9  H    0.275822
    10  H    0.273529
    11  H    0.225697
    12  N    0.491690
    13  O   -0.470052
    14  O   -0.459774
    15  C   -0.165505
    16  C   -0.219928
    17  C   -0.173195
    18  C    0.157349
    19  C   -0.175692
    20  C   -0.207977
    21  H    0.231938
    22  H    0.220827
    23  H    0.271598
    24  H    0.269643
    25  H    0.229577
    26  N    0.488272
    27  O   -0.464582
    28  O   -0.463299
 Sum of Mulliken charges =  -0.00000

 Dipole moment (field-independent basis, Debye):
    X=             -6.9022    Y=             -0.7387    Z=              0.8258  Tot=              6.9905
 Quadrupole moment (field-independent basis, Debye-Ang):
   XX=            -98.7899   YY=           -105.4204   ZZ=           -101.8463
   XY=            -29.3401   XZ=              6.3122   YZ=              4.2977

 Normal termination of Gaussian 16 at Thu May  6 06:44:05 2021.
