 Gaussian 16, Revision A.03,
 Gaussian 16:  EM64L-G16RevA.03 25-Dec-2016

 -------------
 #p 6-31g* mp2
 -------------

 ------------------------------------------------------
 Input file generated by CHIRIPA (05-May-2021 14:55:20)
 ------------------------------------------------------
 Symbolic Z-matrix:
 Charge =  0 Multiplicity = 1

                         Standard orientation:
 ---------------------------------------------------------------------
 Center     Atomic      Atomic             Coordinates (Angstroms)
 Number     Number       Type             X           Y           Z
 ---------------------------------------------------------------------
      1          6           0        1.984566   -2.032356    1.502556
      2          6           0        2.699978   -0.879945    1.844106
      3          6           0        2.739895    0.214581    0.975216
      4          6           0        2.049866    0.122078   -0.232506
      5          6           0        1.328261   -1.012215   -0.601228
      6          6           0        1.302194   -2.094703    0.283130
      7          1           0        1.958937   -2.877934    2.183539
      8          1           0        3.230857   -0.828715    2.790461
      9          1           0        3.285958    1.118989    1.214549
     10          1           0        0.808960   -1.033671   -1.551641
     11          1           0        0.745780   -2.988397    0.015249
     12          7           0        2.084793    1.274431   -1.160548
     13          8           0        1.468513    1.167935   -2.218609
     14          8           0        2.727788    2.262321   -0.812313
     15          6           0       -2.232759   -0.551205   -0.068766
     16          6           0       -3.129439   -1.680178   -0.578049
     17          6           0       -2.347286   -2.949985   -0.915119
     18          1           0       -1.472375   -0.324367   -0.828573
     19          1           0       -1.690747   -0.896551    0.822500
     20          1           0       -3.670640   -1.332343   -1.467278
     21          1           0       -3.887896   -1.904225    0.182979
     22          1           0       -1.820101   -3.323714   -0.031375
     23          1           0       -1.601610   -2.748583   -1.691009
     24          1           0       -3.007713   -3.744065   -1.277244
     25          6           0       -3.000162    0.724886    0.272422
     26          6           0       -2.103481    1.853859    0.781705
     27          6           0       -2.885634    3.123666    1.118775
     28          1           0       -3.542174    1.070232   -0.618844
     29          1           0       -3.760546    0.498047    1.032229
     30          1           0       -1.345025    2.077906    0.020677
     31          1           0       -1.562280    1.506024    1.670935
     32          1           0       -3.631310    2.922264    1.894666
     33          1           0       -3.412820    3.497395    0.235031
     34          1           0       -2.225207    3.917746    1.480901
 ---------------------------------------------------------------------

 SCF Done:  E(RHF) =  -669.534367249     A.U. after   15 cycles
 E2 =    -0.2094591246D+01 EUMP2 =    -0.67162895849473D+03

 The electronic state is 1-A.
 Alpha  occ. eigenvalues --  -20.60802 -20.60796 -15.85846 -11.31140 -11.27718
 Alpha  occ. eigenvalues --  -11.27703 -11.27455 -11.26717 -11.26649 -11.21995
 Alpha  occ. eigenvalues --  -11.21869 -11.21524 -11.21456 -11.21358 -11.20870
 Alpha  occ. eigenvalues --   -1.59871  -1.39428  -1.19321  -1.08728  -1.08574
 Alpha  occ. eigenvalues --   -1.04720  -1.03713  -0.96193  -0.95574  -0.87226
 Alpha  occ. eigenvalues --   -0.86118  -0.82415  -0.79811  -0.78389  -0.77421
 Alpha  occ. eigenvalues --   -0.72065  -0.71188  -0.70453  -0.65255  -0.64974
 Alpha  occ. eigenvalues --   -0.64683  -0.62101  -0.61105  -0.59569  -0.57794
 Alpha  occ. eigenvalues --   -0.55512  -0.55218  -0.53184  -0.52954  -0.52840
 Alpha  occ. eigenvalues --   -0.52433  -0.50156  -0.48826  -0.48818  -0.48098
 Alpha  occ. eigenvalues --   -0.46805  -0.45900  -0.45774  -0.44811  -0.43928
 Alpha  occ. eigenvalues --   -0.37296  -0.36204
 Alpha virt. eigenvalues --    0.05061   0.11209   0.16502   0.20021   0.22956
 Alpha virt. eigenvalues --    0.23974   0.25330   0.26095   0.27319   0.28183
 Alpha virt. eigenvalues --    0.29646   0.30336   0.31356   0.31579   0.32518

 Mulliken charges:
               1
     1  C   -0.172504
     2  C   -0.218771
     3  C   -0.171048
     4  C    0.158930
     5  C   -0.168811
     6  C   -0.219211
     7  H    0.225235
     8  H    0.223008
     9  H    0.275273
    10  H    0.275004
    11  H    0.228491
    12  N    0.488666
    13  O   -0.462521
    14  O   -0.459957
    15  C   -0.303511
    16  C   -0.298943
    17  C   -0.479156
    18  H    0.152741
    19  H    0.149575
    20  H    0.156068
    21  H    0.153055
    22  H    0.149006
    23  H    0.149963
    24  H    0.164812
    25  C   -0.297670
    26  C   -0.302253
    27  C   -0.475752
    28  H    0.152111
    29  H    0.147927
    30  H    0.158752
    31  H    0.149223
    32  H    0.152775
    33  H    0.157170
    34  H    0.162324
 Sum of Mulliken charges =  -0.00000

 Dipole moment (field-independent basis, Debye):
    X=             -0.1879    Y=             -3.9732    Z=              3.2383  Tot=              5.1292
 Quadrupole moment (field-independent basis, Debye-Ang):
   XX=            -94.1709   YY=            -95.8734   ZZ=            -93.9116
   XY=             -6.3155   XZ=              9.1670   YZ=              2.5068

 Normal termination of Gaussian 16 at Thu May  6 19:08:42 2021.
