 Gaussian 16, Revision A.03,
 Gaussian 16:  EM64L-G16RevA.03 25-Dec-2016

 -------------
 #p 6-31g* mp2
 -------------

 ------------------------------------------------------
 Input file generated by CHIRIPA (05-May-2021 14:51:12)
 ------------------------------------------------------
 Symbolic Z-matrix:
 Charge =  0 Multiplicity = 1

                         Standard orientation:
 ---------------------------------------------------------------------
 Center     Atomic      Atomic             Coordinates (Angstroms)
 Number     Number       Type             X           Y           Z
 ---------------------------------------------------------------------
      1          6           0       -2.602281    0.410493   -0.132118
      2          6           0       -3.723997    0.516103   -1.165841
      3          6           0       -3.740303    1.865462   -1.884701
      4          1           0       -2.713417    1.218402    0.604005
      5          1           0       -1.636837    0.572875   -0.631063
      6          1           0       -4.686937    0.352199   -0.665343
      7          1           0       -3.610288   -0.292266   -1.899480
      8          1           0       -2.794330    2.033846   -2.409470
      9          1           0       -3.877096    2.681973   -1.168321
     10          1           0       -4.549956    1.919312   -2.619154
     11          6           0       -2.572945   -0.932747    0.594913
     12          6           0       -1.451229   -1.038357    1.628637
     13          6           0       -1.434923   -2.387716    2.347496
     14          1           0       -3.538388   -1.095128    1.093858
     15          1           0       -2.461808   -1.740656   -0.141209
     16          1           0       -1.564937   -0.229987    2.362275
     17          1           0       -0.488289   -0.874452    1.128139
     18          1           0       -1.298130   -3.204226    1.631117
     19          1           0       -2.380896   -2.556099    2.872266
     20          1           0       -0.625269   -2.441565    3.081950
     21          6           0        2.360655    0.646827    0.387599
     22          6           0        2.770047    2.119920    0.368051
     23          6           0        2.308829    2.878226    1.613059
     24          1           0        1.267866    0.577697    0.476925
     25          1           0        2.778431    0.169240    1.284688
     26          1           0        2.352778    2.594256   -0.529450
     27          1           0        3.861972    2.185553    0.278569
     28          1           0        2.736161    2.431446    2.516594
     29          1           0        1.218391    2.842471    1.703985
     30          1           0        2.612085    3.929267    1.578273
     31          6           0        2.814571   -0.124574   -0.850395
     32          6           0        2.405178   -1.597667   -0.830846
     33          6           0        2.866396   -2.355972   -2.075854
     34          1           0        2.396796    0.353013   -1.747484
     35          1           0        3.907359   -0.055444   -0.939720
     36          1           0        1.313253   -1.663299   -0.741364
     37          1           0        2.822448   -2.072002    0.066654
     38          1           0        3.956834   -2.320218   -2.166781
     39          1           0        2.439065   -1.909193   -2.979390
     40          1           0        2.563141   -3.407013   -2.041067
 ---------------------------------------------------------------------

 SCF Done:  E(RHF) =  -470.733124736     A.U. after   11 cycles
 E2 =    -0.1583729588D+01 EUMP2 =    -0.47231685432378D+03

 The electronic state is 1-A.
 Alpha  occ. eigenvalues --  -11.21659 -11.21647 -11.21598 -11.21563 -11.21456
 Alpha  occ. eigenvalues --  -11.21424 -11.21383 -11.21348 -11.21118 -11.21112
 Alpha  occ. eigenvalues --  -11.21053 -11.21053  -1.08489  -1.08432  -1.03552
 Alpha  occ. eigenvalues --   -1.03545  -0.96001  -0.95995  -0.87021  -0.87008
 Alpha  occ. eigenvalues --   -0.79630  -0.79612  -0.78423  -0.78131  -0.65265
 Alpha  occ. eigenvalues --   -0.64935  -0.60985  -0.60912  -0.59370  -0.59363
 Alpha  occ. eigenvalues --   -0.57636  -0.57583  -0.55288  -0.55288  -0.52707
 Alpha  occ. eigenvalues --   -0.52679  -0.52444  -0.52403  -0.49960  -0.49933
 Alpha  occ. eigenvalues --   -0.47987  -0.47926  -0.46819  -0.46654  -0.46222
 Alpha  occ. eigenvalues --   -0.45783  -0.45762  -0.45062  -0.43812  -0.43793
 Alpha virt. eigenvalues --    0.20111   0.23330   0.23816   0.24269   0.25092
 Alpha virt. eigenvalues --    0.26747   0.27003   0.27907   0.28011   0.30109
 Alpha virt. eigenvalues --    0.30992   0.31611   0.31698   0.31804   0.32082

 Mulliken charges:
               1
     1  C   -0.299784
     2  C   -0.299638
     3  C   -0.475722
     4  H    0.149734
     5  H    0.149145
     6  H    0.152379
     7  H    0.152049
     8  H    0.154909
     9  H    0.155314
    10  H    0.160494
    11  C   -0.297844
    12  C   -0.310650
    13  C   -0.474869
    14  H    0.149800
    15  H    0.149257
    16  H    0.151543
    17  H    0.163230
    18  H    0.155009
    19  H    0.154934
    20  H    0.160485
    21  C   -0.306535
    22  C   -0.298899
    23  C   -0.475863
    24  H    0.157966
    25  H    0.149291
    26  H    0.151713
    27  H    0.151842
    28  H    0.155065
    29  H    0.155849
    30  H    0.160134
    31  C   -0.297967
    32  C   -0.302811
    33  C   -0.475640
    34  H    0.148907
    35  H    0.149941
    36  H    0.153805
    37  H    0.152404
    38  H    0.155593
    39  H    0.155075
    40  H    0.160355
 Sum of Mulliken charges =  -0.00000

 Dipole moment (field-independent basis, Debye):
    X=              0.0050    Y=             -0.0024    Z=              0.0078  Tot=              0.0095
 Quadrupole moment (field-independent basis, Debye-Ang):
   XX=            -83.6730   YY=            -85.9239   ZZ=            -85.1237
   XY=             -0.1918   XZ=              0.1225   YZ=              0.1574

 Normal termination of Gaussian 16 at Wed May  5 18:18:20 2021.
