 Gaussian 16, Revision A.03,
 Gaussian 16:  EM64L-G16RevA.03 25-Dec-2016

 -------------
 #p 6-31g* mp2
 -------------

 ------------------------------------------------------
 Input file generated by CHIRIPA (05-May-2021 14:55:19)
 ------------------------------------------------------
 Symbolic Z-matrix:
 Charge =  0 Multiplicity = 1

                         Standard orientation:
 ---------------------------------------------------------------------
 Center     Atomic      Atomic             Coordinates (Angstroms)
 Number     Number       Type             X           Y           Z
 ---------------------------------------------------------------------
      1          6           0       -1.697986    1.646869    1.695802
      2          6           0       -1.767217    1.888486    0.319812
      3          6           0       -2.325199    0.938375   -0.540707
      4          6           0       -2.806519   -0.247783    0.011244
      5          6           0       -2.751800   -0.517771    1.377773
      6          6           0       -2.189631    0.446628    2.219468
      7          1           0       -1.262906    2.390488    2.356962
      8          1           0       -1.386186    2.819715   -0.089668
      9          1           0       -2.391377    1.099610   -1.609838
     10          1           0       -3.139933   -1.455492    1.756522
     11          1           0       -2.137184    0.256279    3.287673
     12          7           0       -3.399445   -1.261186   -0.889785
     13          8           0       -3.816478   -2.298235   -0.378659
     14          8           0       -3.435921   -0.999253   -2.090075
     15          6           0        3.938829   -0.471865   -0.378121
     16          6           0        4.036706   -1.528969    0.722303
     17          6           0        4.983860   -2.673324    0.360164
     18          1           0        3.600343   -0.949662   -1.307681
     19          1           0        4.941067   -0.069430   -0.580511
     20          1           0        3.034378   -1.928301    0.923525
     21          1           0        4.374814   -1.048566    1.649402
     22          1           0        5.994848   -2.294071    0.179409
     23          1           0        4.646796   -3.178805   -0.550593
     24          1           0        5.038805   -3.417594    1.160728
     25          6           0        2.995692    0.678617   -0.030824
     26          6           0        2.897814    1.735720   -1.131249
     27          6           0        1.950661    2.880076   -0.769109
     28          1           0        1.993454    0.276182    0.171566
     29          1           0        3.334177    1.156413    0.898737
     30          1           0        2.559706    1.255316   -2.058347
     31          1           0        3.900142    2.135052   -1.332469
     32          1           0        2.287725    3.385557    0.141648
     33          1           0        0.939673    2.500822   -0.588354
     34          1           0        1.895715    3.624345   -1.569672
 ---------------------------------------------------------------------

 SCF Done:  E(RHF) =  -669.535385252     A.U. after   15 cycles
 E2 =    -0.2091785673D+01 EUMP2 =    -0.67162717092491D+03

 The electronic state is 1-A.
 Alpha  occ. eigenvalues --  -20.60812 -20.60807 -15.85866 -11.31245 -11.27822
 Alpha  occ. eigenvalues --  -11.27818 -11.27558 -11.26825 -11.26805 -11.22031
 Alpha  occ. eigenvalues --  -11.21791 -11.21717 -11.21710 -11.21590 -11.21189
 Alpha  occ. eigenvalues --   -1.59888  -1.39440  -1.19425  -1.08815  -1.08730
 Alpha  occ. eigenvalues --   -1.04833  -1.03864  -0.96332  -0.95642  -0.87363
 Alpha  occ. eigenvalues --   -0.86220  -0.82476  -0.79940  -0.78531  -0.77522
 Alpha  occ. eigenvalues --   -0.72083  -0.71212  -0.70516  -0.65378  -0.65072
 Alpha  occ. eigenvalues --   -0.64836  -0.62210  -0.61240  -0.59700  -0.57931
 Alpha  occ. eigenvalues --   -0.55662  -0.55296  -0.53207  -0.53066  -0.52961
 Alpha  occ. eigenvalues --   -0.52633  -0.50254  -0.48844  -0.48838  -0.48244
 Alpha  occ. eigenvalues --   -0.46950  -0.46080  -0.45980  -0.44843  -0.44107
 Alpha  occ. eigenvalues --   -0.37384  -0.36405
 Alpha virt. eigenvalues --    0.05011   0.11111   0.16433   0.21022   0.22657
 Alpha virt. eigenvalues --    0.24096   0.26076   0.26533   0.27320   0.28168
 Alpha virt. eigenvalues --    0.28605   0.30424   0.31281   0.31608   0.31926

 Mulliken charges:
               1
     1  C   -0.171245
     2  C   -0.218186
     3  C   -0.172860
     4  C    0.158330
     5  C   -0.170619
     6  C   -0.218714
     7  H    0.226849
     8  H    0.226952
     9  H    0.276132
    10  H    0.275863
    11  H    0.223853
    12  N    0.488089
    13  O   -0.460299
    14  O   -0.460281
    15  C   -0.298792
    16  C   -0.299937
    17  C   -0.475973
    18  H    0.152145
    19  H    0.149695
    20  H    0.152779
    21  H    0.150436
    22  H    0.155108
    23  H    0.157066
    24  H    0.160632
    25  C   -0.299725
    26  C   -0.298620
    27  C   -0.483316
    28  H    0.151993
    29  H    0.147295
    30  H    0.154714
    31  H    0.153500
    32  H    0.153415
    33  H    0.153026
    34  H    0.160695
 Sum of Mulliken charges =  -0.00000

 Dipole moment (field-independent basis, Debye):
    X=              2.0995    Y=              3.5030    Z=              3.1816  Tot=              5.1770
 Quadrupole moment (field-independent basis, Debye-Ang):
   XX=           -106.8372   YY=            -95.8954   ZZ=            -91.6011
   XY=             -9.2268   XZ=             -9.5022   YZ=             -3.2328

 Normal termination of Gaussian 16 at Wed May  5 20:31:09 2021.
