 Gaussian 16, Revision A.03,
 Gaussian 16:  EM64L-G16RevA.03 25-Dec-2016

 -------------
 #p 6-31g* mp2
 -------------

 ------------------------------------------------------
 Input file generated by CHIRIPA (05-May-2021 14:55:25)
 ------------------------------------------------------
 Symbolic Z-matrix:
 Charge =  0 Multiplicity = 1

                         Standard orientation:
 ---------------------------------------------------------------------
 Center     Atomic      Atomic             Coordinates (Angstroms)
 Number     Number       Type             X           Y           Z
 ---------------------------------------------------------------------
      1          6           0        1.471527    1.373999    0.127495
      2          6           0        2.049701    0.878597    1.300872
      3          6           0        3.206087    0.094782    1.246529
      4          6           0        3.760328   -0.175343   -0.003727
      5          6           0        3.207805    0.303726   -1.190529
      6          6           0        2.051402    1.085491   -1.112275
      7          1           0        0.573212    1.982089    0.178998
      8          1           0        1.601537    1.101054    2.265085
      9          1           0        3.674449   -0.301547    2.139266
     10          1           0        3.677463    0.065087   -2.137045
     11          1           0        1.604560    1.468885   -2.025175
     12          7           0        4.984551   -1.004048   -0.073914
     13          8           0        5.453499   -1.227776   -1.187768
     14          8           0        5.451967   -1.414168    0.986256
     15          6           0       -4.082188    0.528602    0.351200
     16          6           0       -3.646319    1.714662   -0.509767
     17          6           0       -2.700722    2.663936    0.226791
     18          1           0       -4.571835    0.903891    1.260239
     19          1           0       -3.191045   -0.023077    0.681212
     20          1           0       -4.538095    2.263139   -0.839199
     21          1           0       -3.157824    1.336503   -1.416953
     22          1           0       -1.794160    2.137061    0.541670
     23          1           0       -3.182273    3.068961    1.122706
     24          1           0       -2.401708    3.504556   -0.407093
     25          6           0       -5.027729   -0.429370   -0.371274
     26          6           0       -5.463598   -1.615429    0.489695
     27          6           0       -6.409195   -2.564703   -0.246865
     28          1           0       -5.918872    0.122310   -0.701286
     29          1           0       -4.538082   -0.804658   -1.280311
     30          1           0       -5.952093   -1.237270    1.396879
     31          1           0       -4.571822   -2.163905    0.819125
     32          1           0       -5.927644   -2.969728   -1.142779
     33          1           0       -7.315757   -2.037829   -0.561743
     34          1           0       -6.708209   -3.405323    0.387019
 ---------------------------------------------------------------------

 SCF Done:  E(RHF) =  -669.535577469     A.U. after   15 cycles
 E2 =    -0.2090750628D+01 EUMP2 =    -0.67162632809684D+03

 The electronic state is 1-A.
 Alpha  occ. eigenvalues --  -20.60748 -20.60743 -15.85802 -11.31165 -11.27734
 Alpha  occ. eigenvalues --  -11.27731 -11.27438 -11.26746 -11.26735 -11.22507
 Alpha  occ. eigenvalues --  -11.22282 -11.22111 -11.22057 -11.21931 -11.21435
 Alpha  occ. eigenvalues --   -1.59824  -1.39377  -1.19336  -1.09112  -1.08728
 Alpha  occ. eigenvalues --   -1.04740  -1.04245  -0.96713  -0.95564  -0.87734
 Alpha  occ. eigenvalues --   -0.86135  -0.82400  -0.80318  -0.78883  -0.77448
 Alpha  occ. eigenvalues --   -0.72019  -0.71147  -0.70458  -0.65741  -0.64986
 Alpha  occ. eigenvalues --   -0.64744  -0.62088  -0.61652  -0.60097  -0.58301
 Alpha  occ. eigenvalues --   -0.56129  -0.55151  -0.53406  -0.53127  -0.53060
 Alpha  occ. eigenvalues --   -0.52829  -0.50644  -0.48780  -0.48775  -0.48622
 Alpha  occ. eigenvalues --   -0.47337  -0.46435  -0.46331  -0.44783  -0.44478
 Alpha  occ. eigenvalues --   -0.37311  -0.36347
 Alpha virt. eigenvalues --    0.05075   0.11306   0.16516   0.20024   0.22495
 Alpha virt. eigenvalues --    0.23777   0.25614   0.26325   0.26997   0.27355
 Alpha virt. eigenvalues --    0.28924   0.30491   0.30901   0.31381   0.32260

 Mulliken charges:
               1
     1  C   -0.177596
     2  C   -0.220698
     3  C   -0.170889
     4  C    0.158390
     5  C   -0.170853
     6  C   -0.220410
     7  H    0.236011
     8  H    0.223482
     9  H    0.275522
    10  H    0.275433
    11  H    0.223673
    12  N    0.488029
    13  O   -0.460515
    14  O   -0.460492
    15  C   -0.299084
    16  C   -0.299243
    17  C   -0.481445
    18  H    0.150970
    19  H    0.149207
    20  H    0.155915
    21  H    0.151572
    22  H    0.146900
    23  H    0.160687
    24  H    0.160849
    25  C   -0.298815
    26  C   -0.300239
    27  C   -0.476102
    28  H    0.150702
    29  H    0.150442
    30  H    0.152423
    31  H    0.152685
    32  H    0.155973
    33  H    0.155683
    34  H    0.161833
 Sum of Mulliken charges =  -0.00000

 Dipole moment (field-independent basis, Debye):
    X=             -4.5327    Y=              2.9012    Z=              0.2406  Tot=              5.3871
 Quadrupole moment (field-independent basis, Debye-Ang):
   XX=           -126.9869   YY=            -96.7706   ZZ=            -89.8046
   XY=             10.7838   XZ=              0.4088   YZ=             -0.6760

 Normal termination of Gaussian 16 at Thu May  6 12:45:08 2021.
