 Gaussian 16, Revision A.03,
 Gaussian 16:  EM64L-G16RevA.03 25-Dec-2016

 -------------
 #p 6-31g* mp2
 -------------

 ------------------------------------------------------
 Input file generated by CHIRIPA (05-May-2021 14:51:12)
 ------------------------------------------------------
 Symbolic Z-matrix:
 Charge =  0 Multiplicity = 1

                         Standard orientation:
 ---------------------------------------------------------------------
 Center     Atomic      Atomic             Coordinates (Angstroms)
 Number     Number       Type             X           Y           Z
 ---------------------------------------------------------------------
      1          6           0        3.692355   -0.136410   -0.611095
      2          6           0        3.870771   -1.415033    0.208219
      3          6           0        5.124953   -2.197390   -0.182604
      4          1           0        3.647177   -0.395334   -1.677801
      5          1           0        4.578265    0.500548   -0.481309
      6          1           0        2.984182   -2.048771    0.078022
      7          1           0        3.915338   -1.153053    1.273111
      8          1           0        6.021482   -1.586441   -0.035708
      9          1           0        5.085035   -2.487248   -1.237587
     10          1           0        5.232951   -3.107616    0.415462
     11          6           0        2.442923    0.656636   -0.231984
     12          6           0        2.264507    1.935260   -1.051298
     13          6           0        1.010326    2.717616   -0.660475
     14          1           0        1.557013    0.019679   -0.361770
     15          1           0        2.488101    0.915561    0.834722
     16          1           0        2.219941    1.673280   -2.116190
     17          1           0        3.151097    2.568997   -0.921101
     18          1           0        1.050243    3.007475    0.394508
     19          1           0        0.113797    2.106668   -0.807371
     20          1           0        0.902327    3.627843   -1.258541
     21          6           0       -3.801136   -0.202628    0.216333
     22          6           0       -4.136665   -0.977465   -1.058435
     23          6           0       -5.607753   -0.852753   -1.456105
     24          1           0       -4.436094   -0.565425    1.036182
     25          1           0       -4.053954    0.856711    0.070460
     26          1           0       -3.882000   -2.034788   -0.910683
     27          1           0       -3.500700   -0.612913   -1.875298
     28          1           0       -5.872137    0.195223   -1.630599
     29          1           0       -6.255603   -1.234731   -0.660503
     30          1           0       -5.825591   -1.414287   -2.369936
     31          6           0       -2.334142   -0.317599    0.626746
     32          6           0       -1.998613    0.457239    1.901514
     33          6           0       -0.527525    0.332526    2.299185
     34          1           0       -2.081324   -1.376938    0.772620
     35          1           0       -1.699184    0.045199   -0.193102
     36          1           0       -2.634578    0.092686    2.718378
     37          1           0       -2.253278    1.514562    1.753763
     38          1           0        0.120326    0.714504    1.503583
     39          1           0       -0.263141   -0.715450    2.473679
     40          1           0       -0.309686    0.894061    3.213014
 ---------------------------------------------------------------------

 SCF Done:  E(RHF) =  -470.732077088     A.U. after   11 cycles
 E2 =    -0.1584454802D+01 EUMP2 =    -0.47231653189024D+03

 The electronic state is 1-A.
 Alpha  occ. eigenvalues --  -11.21656 -11.21599 -11.21588 -11.21505 -11.21408
 Alpha  occ. eigenvalues --  -11.21389 -11.21348 -11.21330 -11.21160 -11.21067
 Alpha  occ. eigenvalues --  -11.21063 -11.20811  -1.08475  -1.08382  -1.03589
 Alpha  occ. eigenvalues --   -1.03448  -0.96017  -0.95918  -0.87045  -0.86932
 Alpha  occ. eigenvalues --   -0.79715  -0.79488  -0.78376  -0.78104  -0.65114
 Alpha  occ. eigenvalues --   -0.65006  -0.60981  -0.60886  -0.59421  -0.59261
 Alpha  occ. eigenvalues --   -0.57652  -0.57510  -0.55320  -0.55197  -0.52728
 Alpha  occ. eigenvalues --   -0.52609  -0.52528  -0.52268  -0.49997  -0.49873
 Alpha  occ. eigenvalues --   -0.48162  -0.47718  -0.46694  -0.46630  -0.46014
 Alpha  occ. eigenvalues --   -0.45722  -0.45690  -0.45169  -0.43810  -0.43733
 Alpha virt. eigenvalues --    0.20488   0.23074   0.23635   0.25025   0.25526
 Alpha virt. eigenvalues --    0.26591   0.26773   0.27677   0.28121   0.29732
 Alpha virt. eigenvalues --    0.30678   0.31245   0.31509   0.31773   0.32021

 Mulliken charges:
               1
     1  C   -0.297174
     2  C   -0.299719
     3  C   -0.475759
     4  H    0.149469
     5  H    0.149426
     6  H    0.152172
     7  H    0.152399
     8  H    0.155127
     9  H    0.155099
    10  H    0.160285
    11  C   -0.304785
    12  C   -0.298447
    13  C   -0.481969
    14  H    0.152309
    15  H    0.152729
    16  H    0.151924
    17  H    0.152221
    18  H    0.157132
    19  H    0.157369
    20  H    0.161136
    21  C   -0.298119
    22  C   -0.299601
    23  C   -0.475689
    24  H    0.149907
    25  H    0.149720
    26  H    0.151814
    27  H    0.151490
    28  H    0.155268
    29  H    0.155240
    30  H    0.160155
    31  C   -0.301780
    32  C   -0.298861
    33  C   -0.486905
    34  H    0.149405
    35  H    0.150734
    36  H    0.151254
    37  H    0.151828
    38  H    0.171799
    39  H    0.153479
    40  H    0.157920
 Sum of Mulliken charges =  -0.00000

 Dipole moment (field-independent basis, Debye):
    X=              0.0559    Y=              0.0221    Z=             -0.0224  Tot=              0.0642
 Quadrupole moment (field-independent basis, Debye-Ang):
   XX=            -86.2764   YY=            -84.2499   ZZ=            -84.3437
   XY=              1.0874   XZ=              0.0485   YZ=             -0.2150

 Normal termination of Gaussian 16 at Wed May  5 16:48:03 2021.
