 Gaussian 16, Revision A.03,
 Gaussian 16:  EM64L-G16RevA.03 25-Dec-2016

 -------------
 #p 6-31g* mp2
 -------------

 ------------------------------------------------------
 Input file generated by CHIRIPA (05-May-2021 14:51:13)
 ------------------------------------------------------
 Symbolic Z-matrix:
 Charge =  0 Multiplicity = 1

                         Standard orientation:
 ---------------------------------------------------------------------
 Center     Atomic      Atomic             Coordinates (Angstroms)
 Number     Number       Type             X           Y           Z
 ---------------------------------------------------------------------
      1          6           0       -3.825086   -0.164946   -0.124277
      2          6           0       -3.545321   -1.419670    0.703602
      3          6           0       -4.367148   -2.625133    0.246161
      4          1           0       -4.895463    0.075122   -0.064229
      5          1           0       -3.610931   -0.376145   -1.181125
      6          1           0       -3.758620   -1.205749    1.758760
      7          1           0       -2.475452   -1.656668    0.641732
      8          1           0       -4.147920   -2.866632   -0.798932
      9          1           0       -5.438379   -2.413151    0.324443
     10          1           0       -4.151500   -3.511078    0.851518
     11          6           0       -3.011010    1.048622    0.320989
     12          6           0       -3.290776    2.303346   -0.506891
     13          6           0       -2.468949    3.508809   -0.049449
     14          1           0       -3.225166    1.259821    1.377837
     15          1           0       -1.940634    0.808554    0.260940
     16          1           0       -4.360645    2.540344   -0.445020
     17          1           0       -3.077477    2.089425   -1.562048
     18          1           0       -1.397718    3.296827   -0.127732
     19          1           0       -2.688176    3.750308    0.995643
     20          1           0       -2.684596    4.394754   -0.654807
     21          6           0        3.852362    0.133104    0.155111
     22          6           0        5.351087   -0.120092   -0.011326
     23          6           0        6.206852    1.039068    0.500344
     24          1           0        3.581134    1.054371   -0.378411
     25          1           0        3.633335    0.310896    1.217096
     26          1           0        5.567011   -0.298725   -1.072497
     27          1           0        5.618743   -1.040968    0.522495
     28          1           0        6.020568    1.214889    1.564763
     29          1           0        5.968541    1.961350   -0.039292
     30          1           0        7.274782    0.837004    0.371673
     31          6           0        2.983734   -1.016779   -0.351823
     32          6           0        1.485010   -0.763583   -0.185386
     33          6           0        0.629245   -1.922744   -0.697055
     34          1           0        3.202762   -1.194572   -1.413807
     35          1           0        3.254963   -1.938047    0.181699
     36          1           0        1.217352    0.157292   -0.719206
     37          1           0        1.269086   -0.584951    0.875786
     38          1           0        0.867555   -2.845025   -0.157419
     39          1           0        0.815529   -2.098565   -1.761473
     40          1           0       -0.438685   -1.720680   -0.568385
 ---------------------------------------------------------------------

 SCF Done:  E(RHF) =  -470.733342293     A.U. after   11 cycles
 E2 =    -0.1582911739D+01 EUMP2 =    -0.47231625403149D+03

 The electronic state is 1-A.
 Alpha  occ. eigenvalues --  -11.21670 -11.21623 -11.21595 -11.21581 -11.21444
 Alpha  occ. eigenvalues --  -11.21397 -11.21382 -11.21338 -11.21131 -11.21085
 Alpha  occ. eigenvalues --  -11.21062 -11.21054  -1.08474  -1.08422  -1.03577
 Alpha  occ. eigenvalues --   -1.03517  -0.96024  -0.95967  -0.87049  -0.86977
 Alpha  occ. eigenvalues --   -0.79659  -0.79562  -0.78287  -0.78233  -0.65099
 Alpha  occ. eigenvalues --   -0.65082  -0.60990  -0.60932  -0.59425  -0.59292
 Alpha  occ. eigenvalues --   -0.57633  -0.57578  -0.55310  -0.55249  -0.52768
 Alpha  occ. eigenvalues --   -0.52644  -0.52454  -0.52382  -0.49962  -0.49906
 Alpha  occ. eigenvalues --   -0.48029  -0.47835  -0.46669  -0.46609  -0.45836
 Alpha  occ. eigenvalues --   -0.45759  -0.45748  -0.45678  -0.43803  -0.43762
 Alpha virt. eigenvalues --    0.20199   0.23057   0.23903   0.24416   0.26141
 Alpha virt. eigenvalues --    0.26613   0.27146   0.27532   0.27973   0.29328
 Alpha virt. eigenvalues --    0.30230   0.31391   0.31720   0.31813   0.32115

 Mulliken charges:
               1
     1  C   -0.298113
     2  C   -0.306941
     3  C   -0.475340
     4  H    0.149839
     5  H    0.149450
     6  H    0.152134
     7  H    0.158033
     8  H    0.155334
     9  H    0.155149
    10  H    0.160320
    11  C   -0.301149
    12  C   -0.299533
    13  C   -0.475739
    14  H    0.149570
    15  H    0.152188
    16  H    0.151956
    17  H    0.151839
    18  H    0.155304
    19  H    0.155205
    20  H    0.160137
    21  C   -0.298352
    22  C   -0.299694
    23  C   -0.475741
    24  H    0.149639
    25  H    0.149752
    26  H    0.151954
    27  H    0.152012
    28  H    0.155277
    29  H    0.155240
    30  H    0.160331
    31  C   -0.298535
    32  C   -0.299754
    33  C   -0.483945
    34  H    0.149686
    35  H    0.149935
    36  H    0.151462
    37  H    0.152690
    38  H    0.155726
    39  H    0.155502
    40  H    0.167172
 Sum of Mulliken charges =  -0.00000

 Dipole moment (field-independent basis, Debye):
    X=              0.0191    Y=             -0.0068    Z=              0.0060  Tot=              0.0212
 Quadrupole moment (field-independent basis, Debye-Ang):
   XX=            -85.0534   YY=            -86.0191   ZZ=            -83.6375
   XY=             -1.2857   XZ=             -0.8142   YZ=             -0.6864

 Normal termination of Gaussian 16 at Wed May  5 20:00:19 2021.
