 Gaussian 16, Revision A.03,
 Gaussian 16:  EM64L-G16RevA.03 25-Dec-2016

 -------------
 #p 6-31g* mp2
 -------------

 ------------------------------------------------------
 Input file generated by CHIRIPA (05-May-2021 14:51:09)
 ------------------------------------------------------
 Symbolic Z-matrix:
 Charge =  0 Multiplicity = 1

                         Standard orientation:
 ---------------------------------------------------------------------
 Center     Atomic      Atomic             Coordinates (Angstroms)
 Number     Number       Type             X           Y           Z
 ---------------------------------------------------------------------
      1          6           0       -2.044810    0.912361    0.259182
      2          6           0       -1.752398    2.401974    0.442304
      3          6           0       -0.352905    2.665643    0.998803
      4          1           0       -1.930406    0.401313    1.224939
      5          1           0       -1.293384    0.478489   -0.414991
      6          1           0       -2.504968    2.833202    1.114835
      7          1           0       -1.867698    2.909568   -0.523963
      8          1           0        0.411276    2.262019    0.326704
      9          1           0       -0.229614    2.185220    1.974812
     10          1           0       -0.165009    3.736825    1.121784
     11          6           0       -3.440095    0.632709   -0.296426
     12          6           0       -3.732507   -0.856904   -0.479548
     13          6           0       -5.132000   -1.120573   -1.036047
     14          1           0       -4.191521    1.066582    0.377747
     15          1           0       -3.554499    1.143757   -1.262183
     16          1           0       -3.617207   -1.364498    0.486718
     17          1           0       -2.979938   -1.288132   -1.152079
     18          1           0       -5.255291   -0.640150   -2.012056
     19          1           0       -5.896181   -0.716949   -0.363948
     20          1           0       -5.319896   -2.191755   -1.159028
     21          6           0        1.994435   -0.926873    0.009636
     22          6           0        1.597472   -2.059074    0.957542
     23          6           0        0.097905   -2.356126    0.928323
     24          1           0        1.434331   -0.020281    0.276694
     25          1           0        1.691933   -1.191262   -1.013099
     26          1           0        1.901873   -1.793236    1.977976
     27          1           0        2.158727   -2.963025    0.688317
     28          1           0       -0.217756   -2.646421   -0.078994
     29          1           0       -0.476070   -1.469986    1.217993
     30          1           0       -0.163819   -3.168688    1.613234
     31          6           0        3.490471   -0.618198    0.027609
     32          6           0        3.887433    0.514004   -0.920297
     33          6           0        5.387000    0.811056   -0.891079
     34          1           0        3.792971   -0.353808    1.050343
     35          1           0        4.050573   -1.524791   -0.239449
     36          1           0        3.326178    1.417955   -0.651073
     37          1           0        3.583033    0.248166   -1.940732
     38          1           0        5.960975   -0.075085   -1.180749
     39          1           0        5.702661    1.101351    0.116238
     40          1           0        5.648723    1.623618   -1.575990
 ---------------------------------------------------------------------

 SCF Done:  E(RHF) =  -470.732260589     A.U. after   11 cycles
 E2 =    -0.1584889117D+01 EUMP2 =    -0.47231714970547D+03

 The electronic state is 1-A.
 Alpha  occ. eigenvalues --  -11.21642 -11.21592 -11.21565 -11.21515 -11.21406
 Alpha  occ. eigenvalues --  -11.21351 -11.21347 -11.21279 -11.21152 -11.21056
 Alpha  occ. eigenvalues --  -11.21049 -11.20881  -1.08469  -1.08361  -1.03552
 Alpha  occ. eigenvalues --   -1.03467  -0.96030  -0.95894  -0.87038  -0.86922
 Alpha  occ. eigenvalues --   -0.79651  -0.79544  -0.78431  -0.78016  -0.65091
 Alpha  occ. eigenvalues --   -0.65009  -0.60948  -0.60879  -0.59393  -0.59267
 Alpha  occ. eigenvalues --   -0.57768  -0.57416  -0.55299  -0.55208  -0.52720
 Alpha  occ. eigenvalues --   -0.52608  -0.52531  -0.52235  -0.49961  -0.49856
 Alpha  occ. eigenvalues --   -0.48092  -0.47860  -0.46715  -0.46642  -0.46144
 Alpha  occ. eigenvalues --   -0.45707  -0.45624  -0.44997  -0.43796  -0.43723
 Alpha virt. eigenvalues --    0.20999   0.22691   0.23866   0.23941   0.25194
 Alpha virt. eigenvalues --    0.25746   0.26477   0.27476   0.28996   0.30161
 Alpha virt. eigenvalues --    0.30509   0.31144   0.31432   0.31958   0.32186

 Mulliken charges:
               1
     1  C   -0.304550
     2  C   -0.298778
     3  C   -0.481173
     4  H    0.151180
     5  H    0.155110
     6  H    0.151969
     7  H    0.152165
     8  H    0.159542
     9  H    0.154526
    10  H    0.160988
    11  C   -0.297978
    12  C   -0.300417
    13  C   -0.475809
    14  H    0.149239
    15  H    0.149505
    16  H    0.153174
    17  H    0.152885
    18  H    0.154949
    19  H    0.155008
    20  H    0.160362
    21  C   -0.307138
    22  C   -0.298880
    23  C   -0.482402
    24  H    0.159137
    25  H    0.148028
    26  H    0.151160
    27  H    0.151235
    28  H    0.154230
    29  H    0.164486
    30  H    0.158576
    31  C   -0.297641
    32  C   -0.301060
    33  C   -0.475622
    34  H    0.149594
    35  H    0.149564
    36  H    0.152550
    37  H    0.151545
    38  H    0.155231
    39  H    0.155375
    40  H    0.160133
 Sum of Mulliken charges =  -0.00000

 Dipole moment (field-independent basis, Debye):
    X=             -0.0441    Y=              0.0393    Z=              0.0004  Tot=              0.0590
 Quadrupole moment (field-independent basis, Debye-Ang):
   XX=            -86.7766   YY=            -84.6973   ZZ=            -83.4857
   XY=             -0.7165   XZ=             -0.7579   YZ=              0.3835

 Normal termination of Gaussian 16 at Wed May  5 15:07:04 2021.
