 Gaussian 16, Revision A.03,
 Gaussian 16:  EM64L-G16RevA.03 25-Dec-2016

 -------------
 #p 6-31g* mp2
 -------------

 ------------------------------------------------------
 Input file generated by CHIRIPA (05-May-2021 14:55:20)
 ------------------------------------------------------
 Symbolic Z-matrix:
 Charge =  0 Multiplicity = 1

                         Standard orientation:
 ---------------------------------------------------------------------
 Center     Atomic      Atomic             Coordinates (Angstroms)
 Number     Number       Type             X           Y           Z
 ---------------------------------------------------------------------
      1          6           0        3.557277    1.917677   -0.975773
      2          6           0        2.202798    1.669058   -0.730625
      3          6           0        1.787870    0.433374   -0.225187
      4          6           0        2.758631   -0.535355    0.024773
      5          6           0        4.115581   -0.317904   -0.209087
      6          6           0        4.507670    0.925152   -0.714682
      7          1           0        3.870731    2.880449   -1.368470
      8          1           0        1.462504    2.438002   -0.932451
      9          1           0        0.745852    0.214206   -0.026236
     10          1           0        4.830290   -1.104062    0.002016
     11          1           0        5.560265    1.115434   -0.904107
     12          7           0        2.331455   -1.847420    0.559940
     13          8           0        3.206328   -2.684292    0.771787
     14          8           0        1.129850   -2.014101    0.757424
     15          6           0       -3.501362    1.161949    0.117727
     16          6           0       -2.312050    1.544795    0.999175
     17          6           0       -2.085118    3.055527    1.062285
     18          1           0       -3.338853    1.552432   -0.896206
     19          1           0       -4.406138    1.653885    0.500838
     20          1           0       -1.410038    1.051179    0.615333
     21          1           0       -2.477320    1.153191    2.011078
     22          1           0       -2.968241    3.561210    1.465992
     23          1           0       -1.894896    3.458618    0.062317
     24          1           0       -1.230156    3.306873    1.697677
     25          6           0       -3.740966   -0.345027    0.044651
     26          6           0       -4.930279   -0.727873   -0.836796
     27          6           0       -5.157210   -2.238606   -0.899907
     28          1           0       -2.836190   -0.836963   -0.338460
     29          1           0       -3.903475   -0.735509    1.058585
     30          1           0       -4.765009   -0.336269   -1.848699
     31          1           0       -5.832290   -0.234257   -0.452954
     32          1           0       -5.347432   -2.641696    0.100061
     33          1           0       -4.274087   -2.744288   -1.303614
     34          1           0       -6.012173   -2.489951   -1.535300
 ---------------------------------------------------------------------

 SCF Done:  E(RHF) =  -669.535513296     A.U. after   15 cycles
 E2 =    -0.2091411369D+01 EUMP2 =    -0.67162692466436D+03

 The electronic state is 1-A.
 Alpha  occ. eigenvalues --  -20.60766 -20.60760 -15.85817 -11.31178 -11.27750
 Alpha  occ. eigenvalues --  -11.27737 -11.27494 -11.26769 -11.26753 -11.22011
 Alpha  occ. eigenvalues --  -11.21580 -11.21567 -11.21497 -11.21276 -11.20840
 Alpha  occ. eigenvalues --   -1.59840  -1.39394  -1.19353  -1.08749  -1.08536
 Alpha  occ. eigenvalues --   -1.04758  -1.03661  -0.96095  -0.95585  -0.87112
 Alpha  occ. eigenvalues --   -0.86156  -0.82417  -0.79747  -0.78293  -0.77461
 Alpha  occ. eigenvalues --   -0.72036  -0.71163  -0.70474  -0.65204  -0.65003
 Alpha  occ. eigenvalues --   -0.64752  -0.62147  -0.61037  -0.59486  -0.57689
 Alpha  occ. eigenvalues --   -0.55395  -0.55251  -0.53086  -0.52877  -0.52808
 Alpha  occ. eigenvalues --   -0.52498  -0.50037  -0.48795  -0.48792  -0.48037
 Alpha  occ. eigenvalues --   -0.46791  -0.45833  -0.45740  -0.44800  -0.43891
 Alpha  occ. eigenvalues --   -0.37336  -0.36359
 Alpha virt. eigenvalues --    0.05065   0.11289   0.16556   0.19441   0.23032
 Alpha virt. eigenvalues --    0.24004   0.24959   0.26730   0.27354   0.28313
 Alpha virt. eigenvalues --    0.29404   0.30932   0.31468   0.31684   0.31922

 Mulliken charges:
               1
     1  C   -0.170728
     2  C   -0.222629
     3  C   -0.181782
     4  C    0.159700
     5  C   -0.170115
     6  C   -0.218958
     7  H    0.225667
     8  H    0.224383
     9  H    0.288771
    10  H    0.275606
    11  H    0.223460
    12  N    0.486786
    13  O   -0.460361
    14  O   -0.460345
    15  C   -0.298030
    16  C   -0.304155
    17  C   -0.477151
    18  H    0.146717
    19  H    0.150745
    20  H    0.146732
    21  H    0.159212
    22  H    0.159370
    23  H    0.149685
    24  H    0.159946
    25  C   -0.299794
    26  C   -0.299870
    27  C   -0.476073
    28  H    0.154474
    29  H    0.153133
    30  H    0.150172
    31  H    0.150936
    32  H    0.156743
    33  H    0.158538
    34  H    0.159214
 Sum of Mulliken charges =  -0.00000

 Dipole moment (field-independent basis, Debye):
    X=              1.4120    Y=              4.5490    Z=             -1.8158  Tot=              5.0974
 Quadrupole moment (field-independent basis, Debye-Ang):
   XX=            -81.2710   YY=           -101.0306   ZZ=            -94.9936
   XY=             10.2541   XZ=             -6.0772   YZ=              1.0292

 Normal termination of Gaussian 16 at Wed May  5 20:34:18 2021.
