 Gaussian 16, Revision A.03,
 Gaussian 16:  EM64L-G16RevA.03 25-Dec-2016

 -------------
 #p 6-31g* mp2
 -------------

 ------------------------------------------------------
 Input file generated by CHIRIPA (05-May-2021 14:55:24)
 ------------------------------------------------------
 Symbolic Z-matrix:
 Charge =  0 Multiplicity = 1

                         Standard orientation:
 ---------------------------------------------------------------------
 Center     Atomic      Atomic             Coordinates (Angstroms)
 Number     Number       Type             X           Y           Z
 ---------------------------------------------------------------------
      1          6           0       -4.218222   -1.873763    0.163406
      2          6           0       -3.490733   -1.462694    1.285147
      3          6           0       -2.778389   -0.259859    1.267729
      4          6           0       -2.815620    0.510723    0.106649
      5          6           0       -3.531087    0.128273   -1.026986
      6          6           0       -4.236045   -1.078370   -0.987052
      7          1           0       -4.768719   -2.809633    0.185682
      8          1           0       -3.475090   -2.078382    2.179981
      9          1           0       -2.206944    0.082296    2.122011
     10          1           0       -3.527704    0.763352   -1.904529
     11          1           0       -4.800158   -1.395105   -1.859693
     12          7           0       -2.065403    1.786126    0.076291
     13          8           0       -2.114225    2.447002   -0.958840
     14          8           0       -1.442766    2.100762    1.088203
     15          6           0        4.492056   -0.574301   -0.264846
     16          6           0        5.485641    0.388825    0.385661
     17          6           0        6.941551   -0.003846    0.132813
     18          1           0        4.671237   -1.588854    0.116627
     19          1           0        4.680755   -0.609313   -1.346771
     20          1           0        5.294226    0.423064    1.465848
     21          1           0        5.303949    1.401235    0.002739
     22          1           0        7.155464   -0.019446   -0.940779
     23          1           0        7.145687   -1.003175    0.530643
     24          1           0        7.634785    0.698090    0.606703
     25          6           0        3.032461   -0.195034   -0.020984
     26          6           0        2.038876   -1.158161   -0.671491
     27          6           0        0.582967   -0.765490   -0.418643
     28          1           0        2.843763   -0.160021    1.060942
     29          1           0        2.853280    0.819519   -0.402457
     30          1           0        2.220569   -2.170571   -0.288569
     31          1           0        2.230291   -1.192400   -1.751678
     32          1           0        0.378831    0.233841   -0.816473
     33          1           0        0.369054   -0.749888    0.654949
     34          1           0       -0.110268   -1.467426   -0.892533
 ---------------------------------------------------------------------

 SCF Done:  E(RHF) =  -669.535344575     A.U. after   15 cycles
 E2 =    -0.2092722163D+01 EUMP2 =    -0.67162806673822D+03

 The electronic state is 1-A.
 Alpha  occ. eigenvalues --  -20.60756 -20.60750 -15.85790 -11.31127 -11.27714
 Alpha  occ. eigenvalues --  -11.27709 -11.27468 -11.26739 -11.26727 -11.21321
 Alpha  occ. eigenvalues --  -11.21260 -11.21055 -11.20942 -11.20799 -11.20797
 Alpha  occ. eigenvalues --   -1.59826  -1.39380  -1.19319  -1.08721  -1.08088
 Alpha  occ. eigenvalues --   -1.04726  -1.03228  -0.95686  -0.95558  -0.86716
 Alpha  occ. eigenvalues --   -0.86122  -0.82395  -0.79309  -0.77889  -0.77441
 Alpha  occ. eigenvalues --   -0.72023  -0.71144  -0.70440  -0.64979  -0.64747
 Alpha  occ. eigenvalues --   -0.64709  -0.62081  -0.60627  -0.59051  -0.57282
 Alpha  occ. eigenvalues --   -0.55237  -0.54970  -0.53208  -0.52825  -0.52246
 Alpha  occ. eigenvalues --   -0.52088  -0.49627  -0.48784  -0.48774  -0.47615
 Alpha  occ. eigenvalues --   -0.46325  -0.45445  -0.45353  -0.44759  -0.43472
 Alpha  occ. eigenvalues --   -0.37266  -0.36309
 Alpha virt. eigenvalues --    0.05077   0.11292   0.16587   0.21366   0.23201
 Alpha virt. eigenvalues --    0.24530   0.26837   0.27213   0.27666   0.28027
 Alpha virt. eigenvalues --    0.28605   0.30864   0.31325   0.32042   0.32084

 Mulliken charges:
               1
     1  C   -0.170959
     2  C   -0.218818
     3  C   -0.169531
     4  C    0.162963
     5  C   -0.171811
     6  C   -0.218940
     7  H    0.225330
     8  H    0.223067
     9  H    0.274865
    10  H    0.275380
    11  H    0.223172
    12  N    0.489334
    13  O   -0.461359
    14  O   -0.459792
    15  C   -0.298246
    16  C   -0.299650
    17  C   -0.475551
    18  H    0.147268
    19  H    0.148842
    20  H    0.151971
    21  H    0.154195
    22  H    0.154749
    23  H    0.153806
    24  H    0.160034
    25  C   -0.298773
    26  C   -0.300196
    27  C   -0.480872
    28  H    0.150030
    29  H    0.156189
    30  H    0.148548
    31  H    0.151387
    32  H    0.162112
    33  H    0.154185
    34  H    0.157073
 Sum of Mulliken charges =  -0.00000

 Dipole moment (field-independent basis, Debye):
    X=             -2.6808    Y=             -4.4041    Z=              0.1199  Tot=              5.1572
 Quadrupole moment (field-independent basis, Debye-Ang):
   XX=            -81.6037   YY=            -99.7901   ZZ=            -89.7388
   XY=             11.6855   XZ=              1.2015   YZ=             -1.8600

 Normal termination of Gaussian 16 at Thu May  6 04:44:08 2021.
