 Gaussian 16, Revision A.03,
 Gaussian 16:  EM64L-G16RevA.03 25-Dec-2016

 -------------
 #p 6-31g* mp2
 -------------

 ------------------------------------------------------
 Input file generated by CHIRIPA (05-May-2021 14:53:11)
 ------------------------------------------------------
 Symbolic Z-matrix:
 Charge =  0 Multiplicity = 1

                         Standard orientation:
 ---------------------------------------------------------------------
 Center     Atomic      Atomic             Coordinates (Angstroms)
 Number     Number       Type             X           Y           Z
 ---------------------------------------------------------------------
      1          6           0        3.883040   -0.607228   -0.402143
      2          6           0        2.832819   -1.682152   -0.120082
      3          6           0        3.076388   -2.968333   -0.910149
      4          1           0        3.889302   -0.382990   -1.477607
      5          1           0        4.878465   -1.004515   -0.159887
      6          1           0        1.839540   -1.282482   -0.361489
      7          1           0        2.828924   -1.903719    0.954864
      8          1           0        4.054579   -3.393128   -0.662574
      9          1           0        3.059573   -2.768362   -1.986406
     10          1           0        2.314042   -3.723115   -0.693371
     11          6           0        3.653081    0.684516    0.380319
     12          6           0        4.703303    1.759439    0.098258
     13          6           0        4.459733    3.045621    0.888325
     14          1           0        2.657656    1.081802    0.138063
     15          1           0        3.646820    0.460278    1.455783
     16          1           0        4.707198    1.981006   -0.976688
     17          1           0        5.696582    1.359770    0.339665
     18          1           0        4.476548    2.845650    1.964582
     19          1           0        3.481543    3.470416    0.640750
     20          1           0        5.222080    3.800403    0.671547
     21          6           0       -1.790630   -2.148031    0.750739
     22          6           0       -2.910440   -1.680114    1.446154
     23          6           0       -3.557318   -0.507835    1.043836
     24          6           0       -3.055282    0.174554   -0.063230
     25          6           0       -1.941715   -0.266157   -0.776695
     26          6           0       -1.310689   -1.440806   -0.356515
     27          1           0       -1.294277   -3.059606    1.070207
     28          1           0       -3.285376   -2.227297    2.306420
     29          1           0       -4.426113   -0.123099    1.564020
     30          1           0       -1.591212    0.300973   -1.630469
     31          1           0       -0.441227   -1.801840   -0.898489
     32          7           0       -3.731712    1.416848   -0.498601
     33          8           0       -3.269786    1.999739   -1.477120
     34          8           0       -4.711015    1.784145    0.146918
 ---------------------------------------------------------------------

 SCF Done:  E(RHF) =  -669.535431764     A.U. after   15 cycles
 E2 =    -0.2091317804D+01 EUMP2 =    -0.67162674956843D+03

 The electronic state is 1-A.
 Alpha  occ. eigenvalues --  -20.60768 -20.60763 -15.85822 -11.31188 -11.27761
 Alpha  occ. eigenvalues --  -11.27758 -11.27496 -11.26770 -11.26742 -11.22455
 Alpha  occ. eigenvalues --  -11.21981 -11.21976 -11.21895 -11.21785 -11.21246
 Alpha  occ. eigenvalues --   -1.59843  -1.39397  -1.19361  -1.08980  -1.08752
 Alpha  occ. eigenvalues --   -1.04768  -1.04088  -0.96520  -0.95589  -0.87533
 Alpha  occ. eigenvalues --   -0.86164  -0.82425  -0.80178  -0.78751  -0.77469
 Alpha  occ. eigenvalues --   -0.72040  -0.71167  -0.70466  -0.65653  -0.65013
 Alpha  occ. eigenvalues --   -0.64763  -0.62166  -0.61440  -0.59925  -0.58124
 Alpha  occ. eigenvalues --   -0.55796  -0.55258  -0.53239  -0.53095  -0.52939
 Alpha  occ. eigenvalues --   -0.52860  -0.50450  -0.48807  -0.48795  -0.48462
 Alpha  occ. eigenvalues --   -0.47199  -0.46288  -0.46190  -0.44803  -0.44326
 Alpha  occ. eigenvalues --   -0.37331  -0.36357
 Alpha virt. eigenvalues --    0.05062   0.11203   0.16493   0.19904   0.22694
 Alpha virt. eigenvalues --    0.23797   0.25800   0.26549   0.27055   0.28139
 Alpha virt. eigenvalues --    0.28873   0.30303   0.31091   0.31280   0.31897

 Mulliken charges:
               1
     1  C   -0.298180
     2  C   -0.304717
     3  C   -0.476804
     4  H    0.150649
     5  H    0.151636
     6  H    0.146697
     7  H    0.153466
     8  H    0.160345
     9  H    0.156879
    10  H    0.153971
    11  C   -0.298884
    12  C   -0.300194
    13  C   -0.476323
    14  H    0.150645
    15  H    0.150166
    16  H    0.152882
    17  H    0.152104
    18  H    0.155223
    19  H    0.157546
    20  H    0.161607
    21  C   -0.171443
    22  C   -0.218620
    23  C   -0.170750
    24  C    0.158671
    25  C   -0.172503
    26  C   -0.219708
    27  H    0.225853
    28  H    0.223434
    29  H    0.275644
    30  H    0.275226
    31  H    0.228365
    32  N    0.488113
    33  O   -0.460610
    34  O   -0.460390
 Sum of Mulliken charges =  -0.00000

 Dipole moment (field-independent basis, Debye):
    X=              2.5102    Y=             -4.3249    Z=              1.5701  Tot=              5.2413
 Quadrupole moment (field-independent basis, Debye-Ang):
   XX=           -106.6831   YY=            -97.7458   ZZ=            -92.1960
   XY=             14.1869   XZ=             -7.3072   YZ=             -0.7485

 Normal termination of Gaussian 16 at Thu May  6 05:39:38 2021.
