 Gaussian 16, Revision A.03,
 Gaussian 16:  EM64L-G16RevA.03 25-Dec-2016

 -------------
 #p 6-31g* mp2
 -------------

 ------------------------------------------------------
 Input file generated by CHIRIPA (05-May-2021 14:57:20)
 ------------------------------------------------------
 Symbolic Z-matrix:
 Charge =  0 Multiplicity = 1

                         Standard orientation:
 ---------------------------------------------------------------------
 Center     Atomic      Atomic             Coordinates (Angstroms)
 Number     Number       Type             X           Y           Z
 ---------------------------------------------------------------------
      1          6           0        2.829522   -2.388205    0.452922
      2          6           0        2.184449   -1.656465   -0.549554
      3          6           0        2.566492   -0.340196   -0.825283
      4          6           0        3.602169    0.215596   -0.075778
      5          6           0        4.264228   -0.487695    0.929383
      6          6           0        3.865527   -1.802517    1.187895
      7          1           0        2.526271   -3.410152    0.660429
      8          1           0        1.379552   -2.108752   -1.121937
      9          1           0        2.084177    0.249021   -1.595746
     10          1           0        5.063197   -0.009796    1.483168
     11          1           0        4.368289   -2.368413    1.967021
     12          7           0        4.015439    1.608305   -0.358568
     13          8           0        4.930736    2.075133    0.315926
     14          8           0        3.416239    2.206712   -1.249356
     15          6           0       -4.474690    2.296402    0.550225
     16          6           0       -5.337129    1.217015    0.331951
     17          6           0       -4.827071   -0.052085    0.042512
     18          6           0       -3.443121   -0.206721   -0.021202
     19          6           0       -2.557993    0.849043    0.191400
     20          6           0       -3.090315    2.109300    0.479378
     21          1           0       -4.879564    3.278834    0.774500
     22          1           0       -6.412685    1.359381    0.386336
     23          1           0       -5.471925   -0.905053   -0.130765
     24          1           0       -1.490369    0.676157    0.130490
     25          1           0       -2.418142    2.945749    0.648442
     26          7           0       -2.891359   -1.545579   -0.326844
     27          8           0       -1.668261   -1.655669   -0.377322
     28          8           0       -3.692435   -2.459537   -0.510141
 ---------------------------------------------------------------------

 SCF Done:  E(RHF) =  -868.340257021     A.U. after   16 cycles
 E2 =    -0.2598366956D+01 EUMP2 =    -0.87093862397663D+03

 The electronic state is 1-A.
 Alpha  occ. eigenvalues --  -20.61412 -20.61363 -20.60529 -20.60518 -15.86432
 Alpha  occ. eigenvalues --  -15.85567 -11.31526 -11.30714 -11.28063 -11.28050
 Alpha  occ. eigenvalues --  -11.27741 -11.27248 -11.27172 -11.27022 -11.26980
 Alpha  occ. eigenvalues --  -11.26826 -11.26234 -11.25997  -1.60458  -1.59608
 Alpha  occ. eigenvalues --   -1.40021  -1.39167  -1.19670  -1.18828  -1.09113
 Alpha  occ. eigenvalues --   -1.08249  -1.05028  -1.04174  -0.95996  -0.95134
 Alpha  occ. eigenvalues --   -0.86440  -0.85571  -0.82840  -0.81961  -0.77916
 Alpha  occ. eigenvalues --   -0.77051  -0.72674  -0.71789  -0.71762  -0.70932
 Alpha  occ. eigenvalues --   -0.70773  -0.69910  -0.65327  -0.65022  -0.64459
 Alpha  occ. eigenvalues --   -0.64117  -0.62378  -0.61509  -0.55535  -0.54645
 Alpha  occ. eigenvalues --   -0.53376  -0.53113  -0.52539  -0.52221  -0.49428
 Alpha  occ. eigenvalues --   -0.49385  -0.48560  -0.48520  -0.45486  -0.44622
 Alpha  occ. eigenvalues --   -0.37634  -0.36779  -0.36621  -0.35773
 Alpha virt. eigenvalues --    0.04596   0.05425   0.11036   0.11876   0.16148
 Alpha virt. eigenvalues --    0.16994   0.21136   0.22167   0.26985   0.27582
 Alpha virt. eigenvalues --    0.28539   0.28959   0.30864   0.31733   0.32274

 Mulliken charges:
               1
     1  C   -0.171953
     2  C   -0.216096
     3  C   -0.178080
     4  C    0.157718
     5  C   -0.173506
     6  C   -0.218707
     7  H    0.228729
     8  H    0.242558
     9  H    0.272466
    10  H    0.272814
    11  H    0.221562
    12  N    0.487881
    13  O   -0.461986
    14  O   -0.464005
    15  C   -0.170057
    16  C   -0.218569
    17  C   -0.170883
    18  C    0.157673
    19  C   -0.170957
    20  C   -0.218590
    21  H    0.227793
    22  H    0.224531
    23  H    0.275474
    24  H    0.274609
    25  H    0.228198
    26  N    0.491441
    27  O   -0.471939
    28  O   -0.458120
 Sum of Mulliken charges =  -0.00000

 Dipole moment (field-independent basis, Debye):
    X=             -3.7300    Y=             -0.2869    Z=              2.0711  Tot=              4.2761
 Quadrupole moment (field-independent basis, Debye-Ang):
   XX=            -96.0017   YY=           -108.8710   ZZ=           -103.7648
   XY=            -33.1719   XZ=              3.0497   YZ=              0.3642

 Normal termination of Gaussian 16 at Wed May  5 19:15:01 2021.
