 Gaussian 16, Revision A.03,
 Gaussian 16:  EM64L-G16RevA.03 25-Dec-2016

 -------------
 #p 6-31g* mp2
 -------------

 ------------------------------------------------------
 Input file generated by CHIRIPA (05-May-2021 14:51:10)
 ------------------------------------------------------
 Symbolic Z-matrix:
 Charge =  0 Multiplicity = 1

                         Standard orientation:
 ---------------------------------------------------------------------
 Center     Atomic      Atomic             Coordinates (Angstroms)
 Number     Number       Type             X           Y           Z
 ---------------------------------------------------------------------
      1          6           0       -3.199140    0.697251   -0.476394
      2          6           0       -1.706427    0.911318   -0.729310
      3          6           0       -1.380811    2.337378   -1.174420
      4          1           0       -3.757352    0.933366   -1.392688
      5          1           0       -3.539859    1.408103    0.289110
      6          1           0       -1.368324    0.199343   -1.493111
      7          1           0       -1.151688    0.674483    0.187636
      8          1           0       -1.690653    3.059196   -0.411808
      9          1           0       -1.908520    2.581357   -2.102105
     10          1           0       -0.308419    2.468264   -1.349645
     11          6           0       -3.540439   -0.723540   -0.030752
     12          6           0       -5.033153   -0.937607    0.222164
     13          6           0       -5.358768   -2.363666    0.667274
     14          1           0       -3.199721   -1.434391   -0.796255
     15          1           0       -2.982228   -0.959654    0.885542
     16          1           0       -5.587892   -0.700771   -0.694782
     17          1           0       -5.371256   -0.225631    0.985966
     18          1           0       -4.831059   -2.607645    1.594959
     19          1           0       -5.048926   -3.085485   -0.095338
     20          1           0       -6.431160   -2.494553    0.842499
     21          6           0        3.089611    0.490723    0.779738
     22          6           0        2.002848    1.419899    0.237923
     23          6           0        1.452199    2.369364    1.302392
     24          1           0        2.681143   -0.091871    1.616806
     25          1           0        3.908794    1.096692    1.190999
     26          1           0        1.186584    0.812357   -0.173444
     27          1           0        2.413895    2.000210   -0.598076
     28          1           0        2.250793    2.999941    1.706401
     29          1           0        1.016508    1.805338    2.133446
     30          1           0        0.676656    3.024501    0.893506
     31          6           0        3.649969   -0.464434   -0.272592
     32          6           0        4.736731   -1.393610    0.269223
     33          6           0        5.287381   -2.343075   -0.795246
     34          1           0        2.830786   -1.070404   -0.683853
     35          1           0        4.058436    0.118159   -1.109661
     36          1           0        4.325685   -1.973922    1.105222
     37          1           0        5.552996   -0.786068    0.680590
     38          1           0        5.723071   -1.779050   -1.626300
     39          1           0        4.488786   -2.973652   -1.199255
     40          1           0        6.062924   -2.998213   -0.386360
 ---------------------------------------------------------------------

 SCF Done:  E(RHF) =  -470.731624738     A.U. after   11 cycles
 E2 =    -0.1584544474D+01 EUMP2 =    -0.47231616921199D+03

 The electronic state is 1-A.
 Alpha  occ. eigenvalues --  -11.21618 -11.21612 -11.21585 -11.21510 -11.21423
 Alpha  occ. eigenvalues --  -11.21376 -11.21363 -11.21316 -11.21087 -11.21060
 Alpha  occ. eigenvalues --  -11.21025 -11.20986  -1.08481  -1.08376  -1.03657
 Alpha  occ. eigenvalues --   -1.03405  -0.96105  -0.95847  -0.87056  -0.86925
 Alpha  occ. eigenvalues --   -0.79693  -0.79520  -0.78337  -0.78158  -0.65179
 Alpha  occ. eigenvalues --   -0.64967  -0.61213  -0.60761  -0.59791  -0.59013
 Alpha  occ. eigenvalues --   -0.57895  -0.57150  -0.55350  -0.55132  -0.52823
 Alpha  occ. eigenvalues --   -0.52543  -0.52449  -0.52230  -0.49936  -0.49883
 Alpha  occ. eigenvalues --   -0.47984  -0.47860  -0.46759  -0.46510  -0.45911
 Alpha  occ. eigenvalues --   -0.45753  -0.45735  -0.45472  -0.43803  -0.43727
 Alpha virt. eigenvalues --    0.21423   0.23127   0.23447   0.25354   0.26220
 Alpha virt. eigenvalues --    0.26483   0.26829   0.27388   0.27881   0.29282
 Alpha virt. eigenvalues --    0.30369   0.30662   0.31289   0.31894   0.32595

 Mulliken charges:
               1
     1  C   -0.297763
     2  C   -0.303718
     3  C   -0.481349
     4  H    0.149743
     5  H    0.149801
     6  H    0.151425
     7  H    0.155372
     8  H    0.154607
     9  H    0.155407
    10  H    0.167558
    11  C   -0.298362
    12  C   -0.299660
    13  C   -0.475712
    14  H    0.149371
    15  H    0.149337
    16  H    0.152050
    17  H    0.152038
    18  H    0.155114
    19  H    0.155152
    20  H    0.160351
    21  C   -0.297229
    22  C   -0.308717
    23  C   -0.480323
    24  H    0.149142
    25  H    0.149273
    26  H    0.161810
    27  H    0.150528
    28  H    0.155061
    29  H    0.153561
    30  H    0.166493
    31  C   -0.298369
    32  C   -0.299603
    33  C   -0.475688
    34  H    0.149567
    35  H    0.149476
    36  H    0.151883
    37  H    0.151914
    38  H    0.155123
    39  H    0.155138
    40  H    0.160199
 Sum of Mulliken charges =  -0.00000

 Dipole moment (field-independent basis, Debye):
    X=             -0.0261    Y=              0.0073    Z=             -0.0165  Tot=              0.0317
 Quadrupole moment (field-independent basis, Debye-Ang):
   XX=            -84.8414   YY=            -85.7749   ZZ=            -84.3601
   XY=              0.5069   XZ=              0.3381   YZ=             -0.0928

 Normal termination of Gaussian 16 at Wed May  5 21:24:33 2021.
