 Gaussian 16, Revision A.03,
 Gaussian 16:  EM64L-G16RevA.03 25-Dec-2016

 -------------
 #p 6-31g* mp2
 -------------

 ------------------------------------------------------
 Input file generated by CHIRIPA (05-May-2021 14:57:23)
 ------------------------------------------------------
 Symbolic Z-matrix:
 Charge =  0 Multiplicity = 1

                         Standard orientation:
 ---------------------------------------------------------------------
 Center     Atomic      Atomic             Coordinates (Angstroms)
 Number     Number       Type             X           Y           Z
 ---------------------------------------------------------------------
      1          6           0       -3.863678   -2.430080    0.278035
      2          6           0       -4.818707   -1.583775    0.850929
      3          6           0       -4.694496   -0.195609    0.740865
      4          6           0       -3.597782    0.314476    0.047812
      5          6           0       -2.629644   -0.502587   -0.533915
      6          6           0       -2.774115   -1.887741   -0.411343
      7          1           0       -3.968038   -3.507271    0.368393
      8          1           0       -5.665908   -2.002164    1.386883
      9          1           0       -5.419184    0.482631    1.174728
     10          1           0       -1.795984   -0.056025   -1.062131
     11          1           0       -2.030890   -2.542576   -0.857272
     12          7           0       -3.455561    1.782471   -0.075329
     13          8           0       -2.480177    2.206957   -0.691018
     14          8           0       -4.322167    2.480803    0.446174
     15          6           0        5.953175    0.380885    0.781794
     16          6           0        5.079841    1.444669    0.532449
     17          6           0        3.785497    1.205225    0.061397
     18          6           0        3.395778   -0.116367   -0.150272
     19          6           0        4.242703   -1.197510    0.088764
     20          6           0        5.532560   -0.934490    0.559549
     21          1           0        6.956910    0.576047    1.147615
     22          1           0        5.403782    2.467228    0.704146
     23          1           0        3.088921    2.010004   -0.139925
     24          1           0        3.891181   -2.206077   -0.091902
     25          1           0        6.208657   -1.762605    0.752325
     26          7           0        2.027889   -0.382335   -0.648811
     27          8           0        1.708693   -1.555752   -0.827263
     28          8           0        1.300834    0.587652   -0.851676
 ---------------------------------------------------------------------

 SCF Done:  E(RHF) =  -868.340124066     A.U. after   16 cycles
 E2 =    -0.2598872209D+01 EUMP2 =    -0.87093899627491D+03

 The electronic state is 1-A.
 Alpha  occ. eigenvalues --  -20.61284 -20.61192 -20.59672 -20.59624 -15.86231
 Alpha  occ. eigenvalues --  -15.84696 -11.31395 -11.29949 -11.27970 -11.27895
 Alpha  occ. eigenvalues --  -11.27659 -11.26933 -11.26884 -11.26634 -11.26340
 Alpha  occ. eigenvalues --  -11.26303 -11.25655 -11.25404  -1.60293  -1.58735
 Alpha  occ. eigenvalues --   -1.39845  -1.38283  -1.19551  -1.18140  -1.08991
 Alpha  occ. eigenvalues --   -1.07581  -1.04920  -1.03499  -0.95857  -0.94415
 Alpha  occ. eigenvalues --   -0.86328  -0.84917  -0.82688  -0.81228  -0.77758
 Alpha  occ. eigenvalues --   -0.76263  -0.72456  -0.71584  -0.70919  -0.70658
 Alpha  occ. eigenvalues --   -0.70061  -0.69260  -0.65205  -0.64924  -0.63788
 Alpha  occ. eigenvalues --   -0.63498  -0.62263  -0.60806  -0.55440  -0.54077
 Alpha  occ. eigenvalues --   -0.53264  -0.53008  -0.51889  -0.51575  -0.49250
 Alpha  occ. eigenvalues --   -0.49207  -0.47694  -0.47655  -0.45286  -0.43713
 Alpha  occ. eigenvalues --   -0.37526  -0.36513  -0.36183  -0.35107
 Alpha virt. eigenvalues --    0.04758   0.06222   0.11144   0.12529   0.16290
 Alpha virt. eigenvalues --    0.17707   0.21296   0.22688   0.27231   0.28158
 Alpha virt. eigenvalues --    0.28696   0.29618   0.30890   0.32114   0.32458

 Mulliken charges:
               1
     1  C   -0.171929
     2  C   -0.219999
     3  C   -0.172703
     4  C    0.155006
     5  C   -0.175327
     6  C   -0.222259
     7  H    0.221193
     8  H    0.218168
     9  H    0.271177
    10  H    0.296442
    11  H    0.231872
    12  N    0.487036
    13  O   -0.455043
    14  O   -0.467592
    15  C   -0.170066
    16  C   -0.218819
    17  C   -0.170349
    18  C    0.157562
    19  C   -0.170809
    20  C   -0.218772
    21  H    0.226562
    22  H    0.225655
    23  H    0.280643
    24  H    0.273894
    25  H    0.223506
    26  N    0.489229
    27  O   -0.469052
    28  O   -0.455228
 Sum of Mulliken charges =  -0.00000

 Dipole moment (field-independent basis, Debye):
    X=              4.8531    Y=             -4.1071    Z=              2.0591  Tot=              6.6829
 Quadrupole moment (field-independent basis, Debye-Ang):
   XX=            -67.0317   YY=           -104.2939   ZZ=           -105.4944
   XY=             19.9387   XZ=              1.8649   YZ=             -0.1323

 Normal termination of Gaussian 16 at Wed May  5 16:19:59 2021.
