 Gaussian 16, Revision A.03,
 Gaussian 16:  EM64L-G16RevA.03 25-Dec-2016

 -------------
 #p 6-31g* mp2
 -------------

 ------------------------------------------------------
 Input file generated by CHIRIPA (05-May-2021 14:55:18)
 ------------------------------------------------------
 Symbolic Z-matrix:
 Charge =  0 Multiplicity = 1

                         Standard orientation:
 ---------------------------------------------------------------------
 Center     Atomic      Atomic             Coordinates (Angstroms)
 Number     Number       Type             X           Y           Z
 ---------------------------------------------------------------------
      1          6           0        1.349223    1.618360   -1.035372
      2          6           0        2.611099    2.075560   -0.641474
      3          6           0        3.595988    1.173456   -0.228255
      4          6           0        3.283418   -0.185050   -0.221191
      5          6           0        2.035555   -0.671507   -0.607829
      6          6           0        1.065977    0.248700   -1.017324
      7          1           0        0.590084    2.326167   -1.354924
      8          1           0        2.833880    3.138690   -0.654481
      9          1           0        4.581165    1.500108    0.081815
     10          1           0        1.843070   -1.737251   -0.584224
     11          1           0        0.086854   -0.109229   -1.322693
     12          7           0        4.317971   -1.149650    0.214295
     13          8           0        4.017611   -2.341461    0.211535
     14          8           0        5.409624   -0.695627    0.550141
     15          6           0       -4.456167   -0.544192    0.209449
     16          6           0       -5.755494   -0.093520   -0.458855
     17          6           0       -6.688665   -1.260280   -0.783902
     18          1           0       -3.940033   -1.255788   -0.449476
     19          1           0       -4.696820   -1.090440    1.131997
     20          1           0       -5.512414    0.452912   -1.379149
     21          1           0       -6.268499    0.617233    0.201654
     22          1           0       -6.960090   -1.802052    0.127917
     23          1           0       -6.199710   -1.967306   -1.461867
     24          1           0       -7.611337   -0.915503   -1.261046
     25          6           0       -3.512884    0.610938    0.540540
     26          6           0       -2.213558    0.160266    1.208843
     27          6           0       -1.280386    1.327027    1.533890
     28          1           0       -3.272232    1.157186   -0.382008
     29          1           0       -4.029018    1.322535    1.199464
     30          1           0       -1.700552   -0.550486    0.548334
     31          1           0       -2.456637   -0.386166    2.129137
     32          1           0       -1.769342    2.034052    2.211855
     33          1           0       -1.008962    1.868798    0.622071
     34          1           0       -0.357714    0.982250    2.011034
 ---------------------------------------------------------------------

 SCF Done:  E(RHF) =  -669.534097493     A.U. after   15 cycles
 E2 =    -0.2093117754D+01 EUMP2 =    -0.67162721524720D+03

 The electronic state is 1-A.
 Alpha  occ. eigenvalues --  -20.60763 -20.60757 -15.85817 -11.31184 -11.27762
 Alpha  occ. eigenvalues --  -11.27756 -11.27502 -11.26769 -11.26757 -11.22330
 Alpha  occ. eigenvalues --  -11.22125 -11.22104 -11.21972 -11.21683 -11.21497
 Alpha  occ. eigenvalues --   -1.59839  -1.39392  -1.19368  -1.09084  -1.08761
 Alpha  occ. eigenvalues --   -1.04778  -1.04126  -0.96574  -0.95595  -0.87586
 Alpha  occ. eigenvalues --   -0.86170  -0.82434  -0.80199  -0.78886  -0.77472
 Alpha  occ. eigenvalues --   -0.72037  -0.71163  -0.70506  -0.65784  -0.65022
 Alpha  occ. eigenvalues --   -0.64760  -0.62182  -0.61473  -0.59929  -0.58177
 Alpha  occ. eigenvalues --   -0.55950  -0.55281  -0.53373  -0.52978  -0.52925
 Alpha  occ. eigenvalues --   -0.52859  -0.50498  -0.48797  -0.48790  -0.48504
 Alpha  occ. eigenvalues --   -0.47255  -0.46419  -0.46362  -0.44798  -0.44381
 Alpha  occ. eigenvalues --   -0.37270  -0.36354
 Alpha virt. eigenvalues --    0.05036   0.11213   0.16420   0.19495   0.22712
 Alpha virt. eigenvalues --    0.24081   0.25404   0.25830   0.27270   0.28210
 Alpha virt. eigenvalues --    0.28514   0.30247   0.31171   0.31734   0.31941

 Mulliken charges:
               1
     1  C   -0.168622
     2  C   -0.219771
     3  C   -0.170873
     4  C    0.158179
     5  C   -0.172940
     6  C   -0.213991
     7  H    0.224959
     8  H    0.223579
     9  H    0.275665
    10  H    0.275501
    11  H    0.224661
    12  N    0.488111
    13  O   -0.460474
    14  O   -0.460486
    15  C   -0.298080
    16  C   -0.299860
    17  C   -0.476021
    18  H    0.147380
    19  H    0.152443
    20  H    0.150653
    21  H    0.153228
    22  H    0.156657
    23  H    0.155310
    24  H    0.161599
    25  C   -0.298014
    26  C   -0.302198
    27  C   -0.472571
    28  H    0.143146
    29  H    0.152718
    30  H    0.144788
    31  H    0.157291
    32  H    0.156101
    33  H    0.144935
    34  H    0.166997
 Sum of Mulliken charges =  -0.00000

 Dipole moment (field-independent basis, Debye):
    X=             -3.7160    Y=              3.3978    Z=             -1.4470  Tot=              5.2390
 Quadrupole moment (field-independent basis, Debye-Ang):
   XX=           -117.0663   YY=            -94.0395   ZZ=            -93.8683
   XY=             14.2664   XZ=             -4.5105   YZ=              0.0645

 Normal termination of Gaussian 16 at Wed May  5 15:48:23 2021.
