 Gaussian 16, Revision A.03,
 Gaussian 16:  EM64L-G16RevA.03 25-Dec-2016

 -------------
 #p 6-31g* mp2
 -------------

 ------------------------------------------------------
 Input file generated by CHIRIPA (05-May-2021 14:55:18)
 ------------------------------------------------------
 Symbolic Z-matrix:
 Charge =  0 Multiplicity = 1

                         Standard orientation:
 ---------------------------------------------------------------------
 Center     Atomic      Atomic             Coordinates (Angstroms)
 Number     Number       Type             X           Y           Z
 ---------------------------------------------------------------------
      1          6           0        2.975491    2.235911   -0.661887
      2          6           0        4.198384    1.583652   -0.850601
      3          6           0        4.345388    0.236839   -0.505590
      4          6           0        3.243796   -0.430213    0.028102
      5          6           0        2.012464    0.191956    0.228146
      6          6           0        1.888351    1.539209   -0.124064
      7          1           0        2.870186    3.282319   -0.932696
      8          1           0        5.044377    2.122215   -1.268082
      9          1           0        5.280698   -0.292553   -0.641077
     10          1           0        1.187113   -0.371310    0.646411
     11          1           0        0.937440    2.043200    0.023606
     12          7           0        3.387306   -1.856257    0.397160
     13          8           0        2.401625   -2.421642    0.865572
     14          8           0        4.482753   -2.381603    0.211028
     15          6           0       -3.659814    0.827325   -0.149218
     16          6           0       -3.265769    1.706931    1.037798
     17          6           0       -2.341398    2.857897    0.639538
     18          1           0       -2.750846    0.424549   -0.616651
     19          1           0       -4.153112    1.448800   -0.909363
     20          1           0       -2.774597    1.083729    1.796076
     21          1           0       -4.175790    2.107506    1.502576
     22          1           0       -2.826500    3.503447   -0.099747
     23          1           0       -1.417346    2.473852    0.195420
     24          1           0       -2.072229    3.473897    1.503224
     25          6           0       -4.583755   -0.327655    0.232989
     26          6           0       -4.977800   -1.207261   -0.954027
     27          6           0       -5.902171   -2.358226   -0.555767
     28          1           0       -4.090456   -0.949129    0.993135
     29          1           0       -5.492724    0.075121    0.700422
     30          1           0       -4.067779   -1.607835   -1.418804
     31          1           0       -5.468971   -0.584058   -1.712304
     32          1           0       -6.826223   -1.974183   -0.111649
     33          1           0       -5.417070   -3.003776    0.183518
     34          1           0       -6.171339   -2.974226   -1.419452
 ---------------------------------------------------------------------

 SCF Done:  E(RHF) =  -669.535541329     A.U. after   15 cycles
 E2 =    -0.2090854475D+01 EUMP2 =    -0.67162639580422D+03

 The electronic state is 1-A.
 Alpha  occ. eigenvalues --  -20.60762 -20.60756 -15.85815 -11.31173 -11.27741
 Alpha  occ. eigenvalues --  -11.27738 -11.27476 -11.26755 -11.26726 -11.22241
 Alpha  occ. eigenvalues --  -11.22029 -11.21870 -11.21780 -11.21656 -11.21153
 Alpha  occ. eigenvalues --   -1.59837  -1.39391  -1.19343  -1.08850  -1.08739
 Alpha  occ. eigenvalues --   -1.04747  -1.03975  -0.96444  -0.95575  -0.87466
 Alpha  occ. eigenvalues --   -0.86144  -0.82410  -0.80050  -0.78618  -0.77460
 Alpha  occ. eigenvalues --   -0.72033  -0.71160  -0.70451  -0.65498  -0.64995
 Alpha  occ. eigenvalues --   -0.64762  -0.62141  -0.61344  -0.59826  -0.58026
 Alpha  occ. eigenvalues --   -0.55772  -0.55233  -0.53156  -0.53076  -0.52985
 Alpha  occ. eigenvalues --   -0.52709  -0.50378  -0.48792  -0.48789  -0.48353
 Alpha  occ. eigenvalues --   -0.47073  -0.46171  -0.46064  -0.44798  -0.44209
 Alpha  occ. eigenvalues --   -0.37323  -0.36350
 Alpha virt. eigenvalues --    0.05076   0.11300   0.16565   0.19572   0.22752
 Alpha virt. eigenvalues --    0.23799   0.25407   0.26516   0.27295   0.28408
 Alpha virt. eigenvalues --    0.28677   0.30068   0.31173   0.31669   0.32299

 Mulliken charges:
               1
     1  C   -0.172807
     2  C   -0.218453
     3  C   -0.171163
     4  C    0.158751
     5  C   -0.173921
     6  C   -0.226650
     7  H    0.226528
     8  H    0.223353
     9  H    0.275525
    10  H    0.274944
    11  H    0.235988
    12  N    0.488162
    13  O   -0.460732
    14  O   -0.460488
    15  C   -0.298435
    16  C   -0.300141
    17  C   -0.481135
    18  H    0.147576
    19  H    0.150451
    20  H    0.153167
    21  H    0.155706
    22  H    0.159376
    23  H    0.146261
    24  H    0.162606
    25  C   -0.299070
    26  C   -0.300229
    27  C   -0.476200
    28  H    0.151874
    29  H    0.150391
    30  H    0.153562
    31  H    0.151520
    32  H    0.154958
    33  H    0.157292
    34  H    0.161433
 Sum of Mulliken charges =  -0.00000

 Dipole moment (field-independent basis, Debye):
    X=             -0.6755    Y=              5.0126    Z=             -1.2871  Tot=              5.2191
 Quadrupole moment (field-independent basis, Debye-Ang):
   XX=            -92.5498   YY=           -100.0343   ZZ=            -95.1568
   XY=             15.7326   XZ=             -5.8485   YZ=              0.6739

 Normal termination of Gaussian 16 at Thu May  6 09:12:20 2021.
