 Gaussian 16, Revision A.03,
 Gaussian 16:  EM64L-G16RevA.03 25-Dec-2016

 -------------
 #p 6-31g* mp2
 -------------

 ------------------------------------------------------
 Input file generated by CHIRIPA (05-May-2021 14:53:13)
 ------------------------------------------------------
 Symbolic Z-matrix:
 Charge =  0 Multiplicity = 1

                         Standard orientation:
 ---------------------------------------------------------------------
 Center     Atomic      Atomic             Coordinates (Angstroms)
 Number     Number       Type             X           Y           Z
 ---------------------------------------------------------------------
      1          6           0        4.127307    0.997027   -0.037821
      2          6           0        2.715420    0.822064   -0.598132
      3          6           0        1.932115    2.134241   -0.647290
      4          1           0        4.063786    1.425833    0.971652
      5          1           0        4.670889    1.726770   -0.653767
      6          1           0        2.175118    0.091833    0.017865
      7          1           0        2.782302    0.393446   -1.606314
      8          1           0        2.446432    2.866521   -1.278039
      9          1           0        1.835798    2.563195    0.355368
     10          1           0        0.925682    1.986123   -1.051041
     11          6           0        4.922856   -0.305953    0.017622
     12          6           0        6.334742   -0.130989    0.577933
     13          6           0        7.118048   -1.443167    0.627091
     14          1           0        4.379274   -1.035696    0.633567
     15          1           0        4.986377   -0.734759   -0.991851
     16          1           0        6.267860    0.297628    1.586114
     17          1           0        6.875044    0.599241   -0.038065
     18          1           0        7.214364   -1.872120   -0.375567
     19          1           0        6.603730   -2.175447    1.257840
     20          1           0        8.124480   -1.295049    1.030842
     21          6           0       -5.848834    0.521296    0.630015
     22          6           0       -4.778674    1.421995    0.625366
     23          6           0       -3.492492    0.994677    0.282320
     24          6           0       -3.311548   -0.346446   -0.052255
     25          6           0       -4.357525   -1.267966   -0.056914
     26          6           0       -5.635221   -0.818447    0.289461
     27          1           0       -6.844676    0.861870    0.897794
     28          1           0       -4.941620    2.463040    0.889407
     29          1           0       -2.646142    1.670673    0.270523
     30          1           0       -4.164018   -2.299590   -0.324731
     31          1           0       -6.464448   -1.520174    0.292213
     32          7           0       -1.954417   -0.810580   -0.417183
     33          8           0       -1.821240   -1.997296   -0.708054
     34          8           0       -1.049570    0.021137   -0.405434
 ---------------------------------------------------------------------

 SCF Done:  E(RHF) =  -669.536067596     A.U. after   15 cycles
 E2 =    -0.2090975686D+01 EUMP2 =    -0.67162704328256D+03

 The electronic state is 1-A.
 Alpha  occ. eigenvalues --  -20.60944 -20.60938 -15.85981 -11.31296 -11.27859
 Alpha  occ. eigenvalues --  -11.27855 -11.27597 -11.26866 -11.26856 -11.20886
 Alpha  occ. eigenvalues --  -11.20472 -11.20454 -11.20314 -11.20122 -11.19686
 Alpha  occ. eigenvalues --   -1.60006  -1.39563  -1.19465  -1.08870  -1.07421
 Alpha  occ. eigenvalues --   -1.04860  -1.02475  -0.95716  -0.94959  -0.86261
 Alpha  occ. eigenvalues --   -0.85998  -0.82547  -0.78574  -0.77600  -0.77179
 Alpha  occ. eigenvalues --   -0.72211  -0.71321  -0.70574  -0.65123  -0.64863
 Alpha  occ. eigenvalues --   -0.64064  -0.62207  -0.59885  -0.58339  -0.56508
 Alpha  occ. eigenvalues --   -0.55364  -0.54284  -0.53193  -0.52952  -0.51642
 Alpha  occ. eigenvalues --   -0.51388  -0.48999  -0.48938  -0.48920  -0.46875
 Alpha  occ. eigenvalues --   -0.45622  -0.44985  -0.44741  -0.44611  -0.42734
 Alpha  occ. eigenvalues --   -0.37445  -0.36462
 Alpha virt. eigenvalues --    0.04919   0.11193   0.16411   0.21260   0.23793
 Alpha virt. eigenvalues --    0.25225   0.27184   0.27613   0.27896   0.28528
 Alpha virt. eigenvalues --    0.29126   0.30794   0.32009   0.32364   0.32716

 Mulliken charges:
               1
     1  C   -0.298208
     2  C   -0.297487
     3  C   -0.478848
     4  H    0.145737
     5  H    0.145075
     6  H    0.165544
     7  H    0.150689
     8  H    0.145659
     9  H    0.146879
    10  H    0.175428
    11  C   -0.297551
    12  C   -0.298751
    13  C   -0.475145
    14  H    0.150730
    15  H    0.149352
    16  H    0.150096
    17  H    0.150099
    18  H    0.154744
    19  H    0.154970
    20  H    0.157605
    21  C   -0.170603
    22  C   -0.218569
    23  C   -0.170787
    24  C    0.157497
    25  C   -0.170727
    26  C   -0.218585
    27  H    0.226008
    28  H    0.223963
    29  H    0.276065
    30  H    0.275840
    31  H    0.223808
    32  N    0.494324
    33  O   -0.458951
    34  O   -0.465899
 Sum of Mulliken charges =  -0.00000

 Dipole moment (field-independent basis, Debye):
    X=             -5.1419    Y=              1.5033    Z=              1.2620  Tot=              5.5038
 Quadrupole moment (field-independent basis, Debye-Ang):
   XX=            -64.6747   YY=            -92.8616   ZZ=            -94.8746
   XY=             -1.7215   XZ=             -4.3439   YZ=              0.2319

 Normal termination of Gaussian 16 at Wed May  5 18:33:26 2021.
