 Gaussian 16, Revision A.03,
 Gaussian 16:  EM64L-G16RevA.03 25-Dec-2016

 -------------
 #p 6-31g* mp2
 -------------

 ------------------------------------------------------
 Input file generated by CHIRIPA (05-May-2021 14:51:10)
 ------------------------------------------------------
 Symbolic Z-matrix:
 Charge =  0 Multiplicity = 1

                         Standard orientation:
 ---------------------------------------------------------------------
 Center     Atomic      Atomic             Coordinates (Angstroms)
 Number     Number       Type             X           Y           Z
 ---------------------------------------------------------------------
      1          6           0       -3.179057   -0.296038    0.797651
      2          6           0       -1.968446    0.636357    0.742440
      3          6           0       -0.920643    0.308348    1.806542
      4          1           0       -3.635688   -0.235005    1.795002
      5          1           0       -2.839969   -1.333655    0.672094
      6          1           0       -2.309873    1.672025    0.866680
      7          1           0       -1.514758    0.573241   -0.254956
      8          1           0       -0.551963   -0.714918    1.681625
      9          1           0       -1.351595    0.390109    2.809635
     10          1           0       -0.063931    0.987020    1.749009
     11          6           0       -4.235308    0.019279   -0.260005
     12          6           0       -5.445919   -0.913116   -0.204794
     13          6           0       -6.493722   -0.585107   -1.268895
     14          1           0       -4.574396    1.056896   -0.134448
     15          1           0       -3.778677   -0.041754   -1.257355
     16          1           0       -5.899607   -0.850001    0.792602
     17          1           0       -5.104492   -1.948784   -0.329034
     18          1           0       -6.062770   -0.666868   -2.271989
     19          1           0       -6.862402    0.438158   -1.143979
     20          1           0       -7.350434   -1.263780   -1.211363
     21          6           0        3.748835    0.889025   -0.403833
     22          6           0        2.416584    1.614474   -0.211956
     23          6           0        2.516013    3.115462   -0.485712
     24          1           0        4.501159    1.335364    0.260799
     25          1           0        4.102848    1.052663   -1.431108
     26          1           0        2.064508    1.448371    0.814235
     27          1           0        1.667297    1.166232   -0.876984
     28          1           0        2.843568    3.298608   -1.514190
     29          1           0        3.243036    3.582351    0.186638
     30          1           0        1.552424    3.614343   -0.342624
     31          6           0        3.665529   -0.612266   -0.133813
     32          6           0        4.997780   -1.337715   -0.325690
     33          6           0        4.898352   -2.838703   -0.051934
     34          1           0        3.311518   -0.775904    0.893462
     35          1           0        2.913207   -1.058604   -0.798445
     36          1           0        5.747069   -0.889473    0.339338
     37          1           0        5.349858   -1.171612   -1.351880
     38          1           0        4.171329   -3.305592   -0.724284
     39          1           0        4.570797   -3.021849    0.976544
     40          1           0        5.861941   -3.337583   -0.195022
 ---------------------------------------------------------------------

 SCF Done:  E(RHF) =  -470.733172153     A.U. after   11 cycles
 E2 =    -0.1582688254D+01 EUMP2 =    -0.47231586040724D+03

 The electronic state is 1-A.
 Alpha  occ. eigenvalues --  -11.21601 -11.21595 -11.21592 -11.21569 -11.21404
 Alpha  occ. eigenvalues --  -11.21387 -11.21344 -11.21327 -11.21079 -11.21072
 Alpha  occ. eigenvalues --  -11.21065 -11.20985  -1.08437  -1.08404  -1.03551
 Alpha  occ. eigenvalues --   -1.03486  -0.95990  -0.95943  -0.87015  -0.86954
 Alpha  occ. eigenvalues --   -0.79631  -0.79539  -0.78247  -0.78222  -0.65068
 Alpha  occ. eigenvalues --   -0.65038  -0.60949  -0.60898  -0.59510  -0.59190
 Alpha  occ. eigenvalues --   -0.57697  -0.57447  -0.55269  -0.55236  -0.52736
 Alpha  occ. eigenvalues --   -0.52624  -0.52421  -0.52350  -0.49927  -0.49888
 Alpha  occ. eigenvalues --   -0.48007  -0.47789  -0.46662  -0.46564  -0.45792
 Alpha  occ. eigenvalues --   -0.45763  -0.45716  -0.45660  -0.43804  -0.43692
 Alpha virt. eigenvalues --    0.21599   0.23105   0.23520   0.24905   0.25828
 Alpha virt. eigenvalues --    0.26452   0.26986   0.27564   0.27993   0.29143
 Alpha virt. eigenvalues --    0.30021   0.30932   0.31532   0.31937   0.32089

 Mulliken charges:
               1
     1  C   -0.298415
     2  C   -0.299644
     3  C   -0.480704
     4  H    0.149618
     5  H    0.149501
     6  H    0.151452
     7  H    0.152256
     8  H    0.155044
     9  H    0.154171
    10  H    0.166443
    11  C   -0.298207
    12  C   -0.299626
    13  C   -0.475685
    14  H    0.149465
    15  H    0.149456
    16  H    0.151939
    17  H    0.151903
    18  H    0.155111
    19  H    0.155167
    20  H    0.160222
    21  C   -0.297766
    22  C   -0.304869
    23  C   -0.475997
    24  H    0.149595
    25  H    0.149423
    26  H    0.156485
    27  H    0.152664
    28  H    0.155313
    29  H    0.155118
    30  H    0.160471
    31  C   -0.298407
    32  C   -0.299642
    33  C   -0.475709
    34  H    0.150126
    35  H    0.149308
    36  H    0.151983
    37  H    0.151869
    38  H    0.155011
    39  H    0.155299
    40  H    0.160257
 Sum of Mulliken charges =  -0.00000

 Dipole moment (field-independent basis, Debye):
    X=              0.0220    Y=              0.0059    Z=              0.0016  Tot=              0.0228
 Quadrupole moment (field-independent basis, Debye-Ang):
   XX=            -85.3149   YY=            -85.5913   ZZ=            -83.9352
   XY=             -0.0651   XZ=             -0.6521   YZ=              0.8651

 Normal termination of Gaussian 16 at Wed May  5 15:10:27 2021.
