 Gaussian 16, Revision A.03,
 Gaussian 16:  EM64L-G16RevA.03 25-Dec-2016

 -------------
 #p 6-31g* mp2
 -------------

 ------------------------------------------------------
 Input file generated by CHIRIPA (05-May-2021 14:53:14)
 ------------------------------------------------------
 Symbolic Z-matrix:
 Charge =  0 Multiplicity = 1

                         Standard orientation:
 ---------------------------------------------------------------------
 Center     Atomic      Atomic             Coordinates (Angstroms)
 Number     Number       Type             X           Y           Z
 ---------------------------------------------------------------------
      1          6           0       -4.108564    0.018738   -0.084374
      2          6           0       -4.047478   -1.294458   -0.865251
      3          6           0       -5.426861   -1.916580   -1.084481
      4          1           0       -4.589609   -0.161537    0.886729
      5          1           0       -4.750437    0.728698   -0.624144
      6          1           0       -3.404799   -2.001260   -0.324871
      7          1           0       -3.566350   -1.111074   -1.834530
      8          1           0       -6.073440   -1.232673   -1.643773
      9          1           0       -5.910971   -2.127916   -0.125536
     10          1           0       -5.359851   -2.854431   -1.644665
     11          6           0       -2.737414    0.652828    0.142793
     12          6           0       -2.798500    1.966025    0.923670
     13          6           0       -1.419117    2.588146    1.142900
     14          1           0       -2.095541   -0.057132    0.682563
     15          1           0       -2.256369    0.833103   -0.828310
     16          1           0       -3.279628    1.782641    1.892949
     17          1           0       -3.441179    2.672826    0.383289
     18          1           0       -0.935007    2.799482    0.183955
     19          1           0       -0.772538    1.904239    1.702191
     20          1           0       -1.486127    3.525997    1.703083
     21          6           0        2.361164   -2.385587    1.303721
     22          6           0        3.208278   -2.374038    0.190714
     23          6           0        3.389266   -1.203297   -0.551685
     24          6           0        2.704474   -0.057062   -0.151065
     25          6           0        1.853673   -0.036800    0.953026
     26          6           0        1.687752   -1.218986    1.680660
     27          1           0        2.226421   -3.299491    1.874700
     28          1           0        3.732540   -3.278548   -0.104341
     29          1           0        4.039072   -1.166326   -1.417596
     30          1           0        1.344565    0.880530    1.222722
     31          1           0        1.029244   -1.225016    2.544591
     32          7           0        2.888103    1.188409   -0.929194
     33          8           0        2.273401    2.185013   -0.555623
     34          8           0        3.643255    1.144418   -1.897929
 ---------------------------------------------------------------------

 SCF Done:  E(RHF) =  -669.535626693     A.U. after   15 cycles
 E2 =    -0.2091656739D+01 EUMP2 =    -0.67162728343185D+03

 The electronic state is 1-A.
 Alpha  occ. eigenvalues --  -20.60764 -20.60759 -15.85810 -11.31150 -11.27739
 Alpha  occ. eigenvalues --  -11.27693 -11.27487 -11.26752 -11.26742 -11.21725
 Alpha  occ. eigenvalues --  -11.21644 -11.21508 -11.21449 -11.21189 -11.21055
 Alpha  occ. eigenvalues --   -1.59835  -1.39388  -1.19333  -1.08735  -1.08524
 Alpha  occ. eigenvalues --   -1.04738  -1.03608  -0.96055  -0.95569  -0.87069
 Alpha  occ. eigenvalues --   -0.86134  -0.82404  -0.79673  -0.78345  -0.77441
 Alpha  occ. eigenvalues --   -0.72030  -0.71154  -0.70453  -0.65165  -0.64987
 Alpha  occ. eigenvalues --   -0.64750  -0.62120  -0.60992  -0.59416  -0.57661
 Alpha  occ. eigenvalues --   -0.55392  -0.55204  -0.53065  -0.52910  -0.52730
 Alpha  occ. eigenvalues --   -0.52389  -0.49991  -0.48789  -0.48783  -0.47968
 Alpha  occ. eigenvalues --   -0.46703  -0.45878  -0.45804  -0.44788  -0.43861
 Alpha  occ. eigenvalues --   -0.37319  -0.36332
 Alpha virt. eigenvalues --    0.05059   0.11305   0.16515   0.20477   0.22859
 Alpha virt. eigenvalues --    0.24018   0.25673   0.26770   0.27435   0.27929
 Alpha virt. eigenvalues --    0.29333   0.30830   0.31504   0.31725   0.32043

 Mulliken charges:
               1
     1  C   -0.298287
     2  C   -0.299372
     3  C   -0.475715
     4  H    0.148259
     5  H    0.151294
     6  H    0.149183
     7  H    0.153805
     8  H    0.156359
     9  H    0.154397
    10  H    0.160002
    11  C   -0.298005
    12  C   -0.300462
    13  C   -0.478182
    14  H    0.142583
    15  H    0.154408
    16  H    0.149274
    17  H    0.154651
    18  H    0.173461
    19  H    0.139148
    20  H    0.162907
    21  C   -0.170459
    22  C   -0.218988
    23  C   -0.170209
    24  C    0.157442
    25  C   -0.176533
    26  C   -0.221525
    27  H    0.225437
    28  H    0.223325
    29  H    0.275458
    30  H    0.286992
    31  H    0.222755
    32  N    0.487644
    33  O   -0.460585
    34  O   -0.460463
 Sum of Mulliken charges =  -0.00000

 Dipole moment (field-independent basis, Debye):
    X=             -0.6689    Y=             -4.2715    Z=              2.6234  Tot=              5.0572
 Quadrupole moment (field-independent basis, Debye-Ang):
   XX=            -97.6948   YY=            -93.2860   ZZ=            -93.6337
   XY=            -14.5037   XZ=              5.3969   YZ=              1.4151

 Normal termination of Gaussian 16 at Wed May  5 21:51:11 2021.
