 Gaussian 16, Revision A.03,
 Gaussian 16:  EM64L-G16RevA.03 25-Dec-2016

 -------------
 #p 6-31g* mp2
 -------------

 ------------------------------------------------------
 Input file generated by CHIRIPA (05-May-2021 14:57:23)
 ------------------------------------------------------
 Symbolic Z-matrix:
 Charge =  0 Multiplicity = 1

                         Standard orientation:
 ---------------------------------------------------------------------
 Center     Atomic      Atomic             Coordinates (Angstroms)
 Number     Number       Type             X           Y           Z
 ---------------------------------------------------------------------
      1          6           0        0.867693   -1.241283    1.411610
      2          6           0        1.316042    0.046919    1.721510
      3          6           0        2.439134    0.580697    1.082532
      4          6           0        3.092827   -0.204924    0.134494
      5          6           0        2.670542   -1.491682   -0.195987
      6          6           0        1.545179   -2.005126    0.455536
      7          1           0       -0.005634   -1.648037    1.912856
      8          1           0        0.791868    0.642403    2.463591
      9          1           0        2.807776    1.575076    1.303281
     10          1           0        3.213827   -2.061331   -0.940138
     11          1           0        1.199243   -3.005865    0.212855
     12          7           0        4.282996    0.349399   -0.548604
     13          8           0        4.841371   -0.362962   -1.380107
     14          8           0        4.634940    1.485743   -0.239580
     15          6           0       -3.933691   -2.001819   -0.343220
     16          6           0       -4.729919   -0.885566   -0.066596
     17          6           0       -4.166064    0.392521   -0.010847
     18          6           0       -2.796418    0.518455   -0.237781
     19          6           0       -1.976707   -0.574305   -0.515702
     20          6           0       -2.562044   -1.842906   -0.566497
     21          1           0       -4.380052   -2.990983   -0.384603
     22          1           0       -5.795440   -1.005984    0.107219
     23          1           0       -4.759175    1.273796    0.201266
     24          1           0       -0.917507   -0.422695   -0.684603
     25          1           0       -1.941240   -2.708009   -0.781541
     26          7           0       -2.188118    1.866487   -0.181385
     27          8           0       -0.978956    1.950781   -0.385000
     28          8           0       -2.932014    2.813256    0.065365
 ---------------------------------------------------------------------

 SCF Done:  E(RHF) =  -868.336890172     A.U. after   16 cycles
 E2 =    -0.2602829435D+01 EUMP2 =    -0.87093971960642D+03

 The electronic state is 1-A.
 Alpha  occ. eigenvalues --  -20.61300 -20.61287 -20.60606 -20.60580 -15.86340
 Alpha  occ. eigenvalues --  -15.85654 -11.31731 -11.31116 -11.28344 -11.28240
 Alpha  occ. eigenvalues --  -11.28124 -11.27813 -11.27625 -11.27527 -11.27391
 Alpha  occ. eigenvalues --  -11.27331 -11.26911 -11.26656  -1.60373  -1.59667
 Alpha  occ. eigenvalues --   -1.39921  -1.39218  -1.19949  -1.19340  -1.09336
 Alpha  occ. eigenvalues --   -1.08745  -1.05353  -1.04741  -0.96156  -0.95535
 Alpha  occ. eigenvalues --   -0.86744  -0.86154  -0.82987  -0.82346  -0.78024
 Alpha  occ. eigenvalues --   -0.77361  -0.72559  -0.71876  -0.71712  -0.71057
 Alpha  occ. eigenvalues --   -0.70983  -0.70452  -0.65591  -0.65366  -0.64991
 Alpha  occ. eigenvalues --   -0.64762  -0.62706  -0.62074  -0.55868  -0.55314
 Alpha  occ. eigenvalues --   -0.53745  -0.53582  -0.52848  -0.52811  -0.49324
 Alpha  occ. eigenvalues --   -0.49308  -0.48644  -0.48617  -0.45323  -0.44601
 Alpha  occ. eigenvalues --   -0.37982  -0.37629  -0.36640  -0.36303
 Alpha virt. eigenvalues --    0.04428   0.05217   0.10596   0.11265   0.15769
 Alpha virt. eigenvalues --    0.16800   0.20210   0.21697   0.25719   0.27802
 Alpha virt. eigenvalues --    0.28006   0.28313   0.30185   0.31398   0.32093

 Mulliken charges:
               1
     1  C   -0.182312
     2  C   -0.207363
     3  C   -0.161409
     4  C    0.158330
     5  C   -0.170905
     6  C   -0.228387
     7  H    0.225412
     8  H    0.228108
     9  H    0.280845
    10  H    0.274968
    11  H    0.216855
    12  N    0.488322
    13  O   -0.462276
    14  O   -0.456733
    15  C   -0.170089
    16  C   -0.219504
    17  C   -0.170056
    18  C    0.154825
    19  C   -0.175865
    20  C   -0.225736
    21  H    0.226585
    22  H    0.225192
    23  H    0.277062
    24  H    0.286544
    25  H    0.219174
    26  N    0.486807
    27  O   -0.459093
    28  O   -0.459300
 Sum of Mulliken charges =  -0.00000

 Dipole moment (field-independent basis, Debye):
    X=             -6.2508    Y=             -6.3373    Z=              2.2816  Tot=              9.1891
 Quadrupole moment (field-independent basis, Debye-Ang):
   XX=           -114.9930   YY=           -105.6845   ZZ=           -103.7339
   XY=              5.0744   XZ=              6.8845   YZ=              3.4696

 Normal termination of Gaussian 16 at Fri May  7 09:31:56 2021.
