 Gaussian 16, Revision A.03,
 Gaussian 16:  EM64L-G16RevA.03 25-Dec-2016

 -------------
 #p 6-31g* mp2
 -------------

 ------------------------------------------------------
 Input file generated by CHIRIPA (05-May-2021 14:57:22)
 ------------------------------------------------------
 Symbolic Z-matrix:
 Charge =  0 Multiplicity = 1

                         Standard orientation:
 ---------------------------------------------------------------------
 Center     Atomic      Atomic             Coordinates (Angstroms)
 Number     Number       Type             X           Y           Z
 ---------------------------------------------------------------------
      1          6           0       -3.689591   -2.178181   -0.565772
      2          6           0       -4.726282   -1.427207   -0.002007
      3          6           0       -4.538464   -0.076417    0.305625
      4          6           0       -3.295564    0.493908    0.035035
      5          6           0       -2.243198   -0.227873   -0.526079
      6          6           0       -2.453537   -1.577177   -0.825551
      7          1           0       -3.844240   -3.226930   -0.801579
      8          1           0       -5.687271   -1.891322    0.200828
      9          1           0       -5.323842    0.528287    0.742584
     10          1           0       -1.296335    0.262527   -0.716809
     11          1           0       -1.646627   -2.157949   -1.263325
     12          7           0       -3.084808    1.923143    0.356392
     13          8           0       -1.980441    2.402174    0.108321
     14          8           0       -4.027975    2.537283    0.850259
     15          6           0        2.004778   -2.335515    0.560438
     16          6           0        3.027904   -1.914597    1.416337
     17          6           0        3.768848   -0.765212    1.125713
     18          6           0        3.458445   -0.057541   -0.034520
     19          6           0        2.445112   -0.451398   -0.907057
     20          6           0        1.717155   -1.603862   -0.596488
     21          1           0        1.434239   -3.229581    0.793949
     22          1           0        3.253480   -2.480840    2.315520
     23          1           0        4.566240   -0.416839    1.770866
     24          1           0        2.243477    0.133812   -1.796040
     25          1           0        0.923140   -1.928393   -1.263020
     26          7           0        4.235975    1.160892   -0.352747
     27          8           0        3.942897    1.766831   -1.381134
     28          8           0        5.123761    1.486888    0.432237
 ---------------------------------------------------------------------

 SCF Done:  E(RHF) =  -868.336164146     A.U. after   16 cycles
 E2 =    -0.2600414256D+01 EUMP2 =    -0.87093657840198D+03

 The electronic state is 1-A.
 Alpha  occ. eigenvalues --  -20.61047 -20.61037 -20.60853 -20.60844 -15.86107
 Alpha  occ. eigenvalues --  -15.85917 -11.31647 -11.31485 -11.28291 -11.28230
 Alpha  occ. eigenvalues --  -11.28164 -11.28079 -11.28068 -11.27950 -11.27426
 Alpha  occ. eigenvalues --  -11.27319 -11.27264 -11.27116  -1.60119  -1.59921
 Alpha  occ. eigenvalues --   -1.39667  -1.39470  -1.19859  -1.19708  -1.09223
 Alpha  occ. eigenvalues --   -1.09070  -1.05314  -1.05156  -0.96020  -0.95861
 Alpha  occ. eigenvalues --   -0.86703  -0.86551  -0.82876  -0.82696  -0.77906
 Alpha  occ. eigenvalues --   -0.77679  -0.72319  -0.72135  -0.71447  -0.71242
 Alpha  occ. eigenvalues --   -0.70966  -0.70824  -0.65545  -0.65466  -0.65365
 Alpha  occ. eigenvalues --   -0.65100  -0.62782  -0.62372  -0.55807  -0.55665
 Alpha  occ. eigenvalues --   -0.53618  -0.53517  -0.53422  -0.53186  -0.49096
 Alpha  occ. eigenvalues --   -0.49064  -0.48910  -0.48873  -0.45033  -0.44831
 Alpha  occ. eigenvalues --   -0.37850  -0.37703  -0.36947  -0.36714
 Alpha virt. eigenvalues --    0.04684   0.04845   0.10738   0.10837   0.16092
 Alpha virt. eigenvalues --    0.16191   0.18321   0.22079   0.24667   0.27010
 Alpha virt. eigenvalues --    0.28072   0.29164   0.29356   0.31522   0.32005

 Mulliken charges:
               1
     1  C   -0.170928
     2  C   -0.218635
     3  C   -0.169605
     4  C    0.158662
     5  C   -0.169793
     6  C   -0.221168
     7  H    0.225579
     8  H    0.225053
     9  H    0.277667
    10  H    0.275368
    11  H    0.214233
    12  N    0.487876
    13  O   -0.457330
    14  O   -0.459128
    15  C   -0.169472
    16  C   -0.218156
    17  C   -0.168404
    18  C    0.160603
    19  C   -0.170433
    20  C   -0.223663
    21  H    0.223634
    22  H    0.225092
    23  H    0.278106
    24  H    0.277861
    25  H    0.215207
    26  N    0.488408
    27  O   -0.457705
    28  O   -0.458927
 Sum of Mulliken charges =  -0.00000

 Dipole moment (field-independent basis, Debye):
    X=             -3.3923    Y=             -9.1236    Z=              0.1454  Tot=              9.7349
 Quadrupole moment (field-independent basis, Debye-Ang):
   XX=           -112.1609   YY=           -110.6568   ZZ=           -101.9437
   XY=              0.8857   XZ=              8.5443   YZ=             -1.4332

 Normal termination of Gaussian 16 at Fri May  7 07:57:45 2021.
