 Gaussian 16, Revision A.03,
 Gaussian 16:  EM64L-G16RevA.03 25-Dec-2016

 -------------
 #p 6-31g* mp2
 -------------

 ------------------------------------------------------
 Input file generated by CHIRIPA (05-May-2021 14:57:24)
 ------------------------------------------------------
 Symbolic Z-matrix:
 Charge =  0 Multiplicity = 1

                         Standard orientation:
 ---------------------------------------------------------------------
 Center     Atomic      Atomic             Coordinates (Angstroms)
 Number     Number       Type             X           Y           Z
 ---------------------------------------------------------------------
      1          6           0       -3.186571    1.476353   -1.968371
      2          6           0       -3.037896    0.089778   -2.077121
      3          6           0       -2.738813   -0.682729   -0.950919
      4          6           0       -2.594588   -0.032931    0.273928
      5          6           0       -2.736620    1.346691    0.414498
      6          6           0       -3.035725    2.099286   -0.725101
      7          1           0       -3.418915    2.068721   -2.848435
      8          1           0       -3.154484   -0.396696   -3.041379
      9          1           0       -2.618334   -1.757808   -1.006679
     10          1           0       -2.614486    1.803219    1.389220
     11          1           0       -3.150624    3.175947   -0.637665
     12          7           0       -2.277951   -0.840210    1.473279
     13          8           0       -2.155880   -0.243748    2.540972
     14          8           0       -2.157836   -2.054131    1.322927
     15          6           0        3.594622    2.135075    0.610336
     16          6           0        2.329118    1.743588    1.059512
     17          6           0        1.793995    0.507366    0.685417
     18          6           0        2.555139   -0.316209   -0.142639
     19          6           0        3.818931    0.045550   -0.606589
     20          6           0        4.334185    1.286304   -0.219816
     21          1           0        4.002601    3.097162    0.905866
     22          1           0        1.752516    2.400712    1.704308
     23          1           0        0.816879    0.179327    1.018660
     24          1           0        4.370037   -0.631020   -1.248423
     25          1           0        5.317264    1.587722   -0.570171
     26          7           0        1.999146   -1.627340   -0.545386
     27          8           0        2.689707   -2.334744   -1.275689
     28          8           0        0.883324   -1.922774   -0.123131
 ---------------------------------------------------------------------

 SCF Done:  E(RHF) =  -868.337775876     A.U. after   16 cycles
 E2 =    -0.2601373295D+01 EUMP2 =    -0.87093914917105D+03

 The electronic state is 1-A.
 Alpha  occ. eigenvalues --  -20.60532 -20.60510 -20.60492 -20.60358 -15.85552
 Alpha  occ. eigenvalues --  -15.85459 -11.30966 -11.30919 -11.27606 -11.27569
 Alpha  occ. eigenvalues --  -11.27518 -11.27387 -11.27324 -11.27290 -11.26610
 Alpha  occ. eigenvalues --  -11.26598 -11.26559 -11.26469  -1.59589  -1.59494
 Alpha  occ. eigenvalues --   -1.39142  -1.39037  -1.19154  -1.19111  -1.08546
 Alpha  occ. eigenvalues --   -1.08495  -1.04560  -1.04519  -0.95372  -0.95305
 Alpha  occ. eigenvalues --   -0.85963  -0.85912  -0.82207  -0.82120  -0.77271
 Alpha  occ. eigenvalues --   -0.77132  -0.71841  -0.71664  -0.70915  -0.70759
 Alpha  occ. eigenvalues --   -0.70263  -0.70214  -0.64812  -0.64750  -0.64567
 Alpha  occ. eigenvalues --   -0.64524  -0.61907  -0.61849  -0.55082  -0.55031
 Alpha  occ. eigenvalues --   -0.52910  -0.52855  -0.52639  -0.52608  -0.48564
 Alpha  occ. eigenvalues --   -0.48540  -0.48471  -0.48404  -0.44534  -0.44385
 Alpha  occ. eigenvalues --   -0.37152  -0.37111  -0.36187  -0.36093
 Alpha virt. eigenvalues --    0.05293   0.05370   0.11446   0.11534   0.16776
 Alpha virt. eigenvalues --    0.16820   0.21394   0.21734   0.27050   0.27622
 Alpha virt. eigenvalues --    0.28174   0.28657   0.30810   0.31270   0.32288

 Mulliken charges:
               1
     1  C   -0.171123
     2  C   -0.220014
     3  C   -0.162734
     4  C    0.154485
     5  C   -0.177842
     6  C   -0.218798
     7  H    0.224326
     8  H    0.224986
     9  H    0.284835
    10  H    0.270535
    11  H    0.220220
    12  N    0.488413
    13  O   -0.472023
    14  O   -0.442751
    15  C   -0.171114
    16  C   -0.220241
    17  C   -0.169494
    18  C    0.157646
    19  C   -0.171091
    20  C   -0.219065
    21  H    0.224309
    22  H    0.223755
    23  H    0.278278
    24  H    0.274723
    25  H    0.222227
    26  N    0.488222
    27  O   -0.462938
    28  O   -0.457730
 Sum of Mulliken charges =  -0.00000

 Dipole moment (field-independent basis, Debye):
    X=              0.7709    Y=              7.0900    Z=             -2.8938  Tot=              7.6966
 Quadrupole moment (field-independent basis, Debye-Ang):
   XX=            -86.9848   YY=           -104.9703   ZZ=           -105.8977
   XY=              3.7814   XZ=             12.0889   YZ=              2.9552

 Normal termination of Gaussian 16 at Wed May  5 21:06:39 2021.
