 Gaussian 16, Revision A.03,
 Gaussian 16:  EM64L-G16RevA.03 25-Dec-2016

 -------------
 #p 6-31g* mp2
 -------------

 ------------------------------------------------------
 Input file generated by CHIRIPA (05-May-2021 14:55:25)
 ------------------------------------------------------
 Symbolic Z-matrix:
 Charge =  0 Multiplicity = 1

                         Standard orientation:
 ---------------------------------------------------------------------
 Center     Atomic      Atomic             Coordinates (Angstroms)
 Number     Number       Type             X           Y           Z
 ---------------------------------------------------------------------
      1          6           0       -2.320534    2.314687    0.631039
      2          6           0       -1.540065    1.710809   -0.360283
      3          6           0       -1.770874    0.383997   -0.735578
      4          6           0       -2.795024   -0.312606   -0.095929
      5          6           0       -3.589733    0.261236    0.895250
      6          6           0       -3.341078    1.589252    1.254543
      7          1           0       -2.134305    3.345854    0.916362
      8          1           0       -0.746817    2.271771   -0.846209
      9          1           0       -1.181756   -0.108051   -1.499938
     10          1           0       -4.373311   -0.323460    1.361677
     11          1           0       -3.948783    2.055659    2.024740
     12          7           0       -3.048817   -1.717879   -0.484767
     13          8           0       -3.957149   -2.310057    0.093934
     14          8           0       -2.334602   -2.200546   -1.360876
     15          6           0        2.970925    0.628109   -0.008358
     16          6           0        3.468664    1.991138   -0.490428
     17          6           0        2.350415    3.029716   -0.583534
     18          1           0        2.189674    0.267588   -0.691452
     19          1           0        2.495884    0.745985    0.975430
     20          1           0        3.943855    1.870495   -1.472392
     21          1           0        4.248955    2.348368    0.193786
     22          1           0        1.881282    3.179393    0.394276
     23          1           0        1.574448    2.698806   -1.281370
     24          1           0        2.728371    3.996633   -0.930062
     25          6           0        4.077258   -0.420750    0.089879
     26          6           0        3.579518   -1.783779    0.571948
     27          6           0        4.697766   -2.822358    0.665054
     28          1           0        4.552297   -0.538626   -0.893909
     29          1           0        4.858508   -0.060229    0.772972
     30          1           0        2.799228   -2.141010   -0.112265
     31          1           0        3.104327   -1.663136    1.553914
     32          1           0        5.473733   -2.491447    1.362890
     33          1           0        5.166900   -2.972035   -0.312755
     34          1           0        4.319812   -3.789274    1.011582
 ---------------------------------------------------------------------

 SCF Done:  E(RHF) =  -669.535519164     A.U. after   15 cycles
 E2 =    -0.2091387754D+01 EUMP2 =    -0.67162690691733D+03

 The electronic state is 1-A.
 Alpha  occ. eigenvalues --  -20.60727 -20.60722 -15.85779 -11.31128 -11.27693
 Alpha  occ. eigenvalues --  -11.27683 -11.27419 -11.26712 -11.26645 -11.22249
 Alpha  occ. eigenvalues --  -11.22075 -11.21873 -11.21694 -11.21627 -11.21085
 Alpha  occ. eigenvalues --   -1.59803  -1.39357  -1.19293  -1.08833  -1.08690
 Alpha  occ. eigenvalues --   -1.04693  -1.03948  -0.96430  -0.95531  -0.87459
 Alpha  occ. eigenvalues --   -0.86089  -0.82366  -0.80037  -0.78593  -0.77411
 Alpha  occ. eigenvalues --   -0.71999  -0.71125  -0.70404  -0.65467  -0.64944
 Alpha  occ. eigenvalues --   -0.64713  -0.62078  -0.61329  -0.59810  -0.58008
 Alpha  occ. eigenvalues --   -0.55746  -0.55191  -0.53146  -0.53060  -0.53009
 Alpha  occ. eigenvalues --   -0.52566  -0.50380  -0.48763  -0.48755  -0.48317
 Alpha  occ. eigenvalues --   -0.47054  -0.46143  -0.46031  -0.44766  -0.44181
 Alpha  occ. eigenvalues --   -0.37272  -0.36286
 Alpha virt. eigenvalues --    0.05107   0.11334   0.16578   0.20033   0.22729
 Alpha virt. eigenvalues --    0.23941   0.25244   0.26228   0.26957   0.28610
 Alpha virt. eigenvalues --    0.29221   0.29895   0.31224   0.31615   0.32064

 Mulliken charges:
               1
     1  C   -0.173285
     2  C   -0.222037
     3  C   -0.173036
     4  C    0.158736
     5  C   -0.171393
     6  C   -0.218411
     7  H    0.225911
     8  H    0.232408
     9  H    0.274660
    10  H    0.275275
    11  H    0.223034
    12  N    0.488172
    13  O   -0.460645
    14  O   -0.460855
    15  C   -0.298193
    16  C   -0.299499
    17  C   -0.479535
    18  H    0.146137
    19  H    0.150813
    20  H    0.154708
    21  H    0.154969
    22  H    0.154358
    23  H    0.147417
    24  H    0.164196
    25  C   -0.298810
    26  C   -0.300838
    27  C   -0.476125
    28  H    0.150558
    29  H    0.150003
    30  H    0.156060
    31  H    0.152304
    32  H    0.154302
    33  H    0.155644
    34  H    0.162995
 Sum of Mulliken charges =  -0.00000

 Dipole moment (field-independent basis, Debye):
    X=              1.0628    Y=              4.9117    Z=              1.4120  Tot=              5.2199
 Quadrupole moment (field-independent basis, Debye-Ang):
   XX=            -97.3786   YY=            -99.0384   ZZ=            -92.3931
   XY=            -13.4015   XZ=             -6.7714   YZ=             -0.6406

 Normal termination of Gaussian 16 at Wed May  5 19:12:43 2021.
