 Gaussian 16, Revision A.03,
 Gaussian 16:  EM64L-G16RevA.03 25-Dec-2016

 -------------
 #p 6-31g* mp2
 -------------

 ------------------------------------------------------
 Input file generated by CHIRIPA (05-May-2021 14:53:18)
 ------------------------------------------------------
 Symbolic Z-matrix:
 Charge =  0 Multiplicity = 1

                         Standard orientation:
 ---------------------------------------------------------------------
 Center     Atomic      Atomic             Coordinates (Angstroms)
 Number     Number       Type             X           Y           Z
 ---------------------------------------------------------------------
      1          6           0        4.194848    0.195706   -0.187156
      2          6           0        4.570013   -1.019611    0.661514
      3          6           0        5.767736   -1.786062    0.099546
      4          1           0        3.972937   -0.134542   -1.211186
      5          1           0        5.061585    0.867553   -0.256318
      6          1           0        3.702396   -1.688295    0.730202
      7          1           0        4.790871   -0.686455    1.683690
      8          1           0        6.649057   -1.138685    0.046831
      9          1           0        5.554398   -2.146218   -0.912074
     10          1           0        6.018733   -2.650843    0.721650
     11          6           0        2.999265    0.972193    0.361823
     12          6           0        2.624100    2.187509   -0.486847
     13          6           0        1.426377    2.953960    0.075121
     14          1           0        2.132528    0.300345    0.430985
     15          1           0        3.221176    1.302441    1.385853
     16          1           0        2.403242    1.854353   -1.509023
     17          1           0        3.491717    2.856194   -0.555536
     18          1           0        1.639715    3.314117    1.086741
     19          1           0        0.545056    2.306584    0.127836
     20          1           0        1.175380    3.818741   -0.546984
     21          6           0       -4.833044    0.995812    0.338781
     22          6           0       -3.603174    1.581745    0.021571
     23          6           0       -2.475721    0.786999   -0.205972
     24          6           0       -2.614640   -0.596586   -0.107578
     25          6           0       -3.826281   -1.210158    0.206657
     26          6           0       -4.940484   -0.395816    0.430151
     27          1           0       -5.703729    1.620802    0.513971
     28          1           0       -3.516787    2.662232   -0.050068
     29          1           0       -1.511501    1.214322   -0.453143
     30          1           0       -3.881332   -2.290094    0.270897
     31          1           0       -5.894349   -0.853615    0.676334
     32          7           0       -1.428069   -1.448321   -0.346324
     33          8           0       -1.576683   -2.664853   -0.253582
     34          8           0       -0.371890   -0.883251   -0.621675
 ---------------------------------------------------------------------

 SCF Done:  E(RHF) =  -669.536108406     A.U. after   15 cycles
 E2 =    -0.2091886399D+01 EUMP2 =    -0.67162799480569D+03

 The electronic state is 1-A.
 Alpha  occ. eigenvalues --  -20.60977 -20.60961 -15.86005 -11.31284 -11.27845
 Alpha  occ. eigenvalues --  -11.27828 -11.27575 -11.26848 -11.26831 -11.21050
 Alpha  occ. eigenvalues --  -11.20952 -11.20705 -11.20503 -11.20394 -11.20309
 Alpha  occ. eigenvalues --   -1.60032  -1.39590  -1.19451  -1.08863  -1.07624
 Alpha  occ. eigenvalues --   -1.04841  -1.02880  -0.95712  -0.95352  -0.86399
 Alpha  occ. eigenvalues --   -0.86235  -0.82546  -0.78946  -0.77628  -0.77383
 Alpha  occ. eigenvalues --   -0.72234  -0.71341  -0.70569  -0.65110  -0.64859
 Alpha  occ. eigenvalues --   -0.64215  -0.62218  -0.60259  -0.58738  -0.56955
 Alpha  occ. eigenvalues --   -0.55365  -0.54639  -0.53174  -0.52937  -0.52105
 Alpha  occ. eigenvalues --   -0.51783  -0.49311  -0.48993  -0.48959  -0.47266
 Alpha  occ. eigenvalues --   -0.45939  -0.45148  -0.44964  -0.44651  -0.43080
 Alpha  occ. eigenvalues --   -0.37428  -0.36437
 Alpha virt. eigenvalues --    0.04886   0.11190   0.16385   0.20516   0.23443
 Alpha virt. eigenvalues --    0.24448   0.26334   0.27512   0.27893   0.28652
 Alpha virt. eigenvalues --    0.29416   0.30658   0.31494   0.32084   0.32608

 Mulliken charges:
               1
     1  C   -0.297301
     2  C   -0.301232
     3  C   -0.475409
     4  H    0.153016
     5  H    0.144221
     6  H    0.160927
     7  H    0.148020
     8  H    0.151883
     9  H    0.156245
    10  H    0.158549
    11  C   -0.308395
    12  C   -0.296611
    13  C   -0.481827
    14  H    0.174055
    15  H    0.143323
    16  H    0.155406
    17  H    0.148917
    18  H    0.155211
    19  H    0.152694
    20  H    0.155391
    21  C   -0.170322
    22  C   -0.221957
    23  C   -0.178048
    24  C    0.156272
    25  C   -0.169874
    26  C   -0.218881
    27  H    0.226068
    28  H    0.224758
    29  H    0.289282
    30  H    0.275744
    31  H    0.223782
    32  N    0.490245
    33  O   -0.458617
    34  O   -0.465536
 Sum of Mulliken charges =  -0.00000

 Dipole moment (field-independent basis, Debye):
    X=             -4.3617    Y=              2.8201    Z=              0.8064  Tot=              5.2562
 Quadrupole moment (field-independent basis, Debye-Ang):
   XX=            -72.7342   YY=            -95.7605   ZZ=            -95.5293
   XY=             -2.2632   XZ=             -1.9824   YZ=             -1.4900

 Normal termination of Gaussian 16 at Thu May  6 06:03:00 2021.
