 Gaussian 16, Revision A.03,
 Gaussian 16:  EM64L-G16RevA.03 25-Dec-2016

 -------------
 #p 6-31g* mp2
 -------------

 ------------------------------------------------------
 Input file generated by CHIRIPA (05-May-2021 14:53:15)
 ------------------------------------------------------
 Symbolic Z-matrix:
 Charge =  0 Multiplicity = 1

                         Standard orientation:
 ---------------------------------------------------------------------
 Center     Atomic      Atomic             Coordinates (Angstroms)
 Number     Number       Type             X           Y           Z
 ---------------------------------------------------------------------
      1          6           0        4.618508   -0.662367    0.184625
      2          6           0        3.277613    0.017460   -0.094342
      3          6           0        2.083660   -0.902451    0.162632
      4          1           0        4.704351   -1.560636   -0.442023
      5          1           0        4.637286   -1.006225    1.228082
      6          1           0        3.261911    0.361161   -1.136569
      7          1           0        3.195035    0.914321    0.532904
      8          1           0        2.071379   -1.235496    1.205479
      9          1           0        2.138635   -1.791799   -0.473480
     10          1           0        1.135305   -0.396315   -0.043060
     11          6           0        5.821636    0.244579   -0.067685
     12          6           0        7.162531   -0.435247    0.211281
     13          6           0        8.356484    0.484663   -0.045693
     14          1           0        5.802858    0.588438   -1.111143
     15          1           0        5.735793    1.142849    0.558963
     16          1           0        7.245109   -1.332108   -0.415965
     17          1           0        7.178232   -0.778948    1.253509
     18          1           0        8.301509    1.374012    0.590419
     19          1           0        8.368765    0.817709   -1.088540
     20          1           0        9.304838   -0.021473    0.159999
     21          6           0       -6.270631   -1.062436    0.192874
     22          6           0       -6.215509    0.320013    0.398585
     23          6           0       -5.006187    1.009448    0.269101
     24          6           0       -3.866223    0.281688   -0.068741
     25          6           0       -3.888925   -1.096032   -0.280078
     26          6           0       -5.109210   -1.764808   -0.145205
     27          1           0       -7.214320   -1.589983    0.295554
     28          1           0       -7.115894    0.868071    0.661235
     29          1           0       -4.935088    2.079384    0.422725
     30          1           0       -2.974627   -1.615104   -0.540921
     31          1           0       -5.149038   -2.838468   -0.305554
     32          7           0       -2.580165    1.000628   -0.208674
     33          8           0       -1.589998    0.336456   -0.507141
     34          8           0       -2.586672    2.214688   -0.017236
 ---------------------------------------------------------------------

 SCF Done:  E(RHF) =  -669.536251033     A.U. after   15 cycles
 E2 =    -0.2090575872D+01 EUMP2 =    -0.67162682690471D+03

 The electronic state is 1-A.
 Alpha  occ. eigenvalues --  -20.60939 -20.60934 -15.85978 -11.31284 -11.27847
 Alpha  occ. eigenvalues --  -11.27840 -11.27584 -11.26852 -11.26842 -11.21066
 Alpha  occ. eigenvalues --  -11.20708 -11.20614 -11.20569 -11.20494 -11.19681
 Alpha  occ. eigenvalues --   -1.60001  -1.39557  -1.19451  -1.08859  -1.07657
 Alpha  occ. eigenvalues --   -1.04846  -1.02687  -0.95704  -0.95128  -0.86248
 Alpha  occ. eigenvalues --   -0.86149  -0.82537  -0.78781  -0.77590  -0.77448
 Alpha  occ. eigenvalues --   -0.72205  -0.71314  -0.70561  -0.65108  -0.64849
 Alpha  occ. eigenvalues --   -0.64300  -0.62193  -0.60101  -0.58511  -0.56702
 Alpha  occ. eigenvalues --   -0.55352  -0.54446  -0.53179  -0.52938  -0.51767
 Alpha  occ. eigenvalues --   -0.51559  -0.49115  -0.48956  -0.48940  -0.47072
 Alpha  occ. eigenvalues --   -0.45844  -0.44997  -0.44964  -0.44916  -0.42904
 Alpha  occ. eigenvalues --   -0.37431  -0.36447
 Alpha virt. eigenvalues --    0.04931   0.11208   0.16422   0.21330   0.23587
 Alpha virt. eigenvalues --    0.25210   0.27261   0.27374   0.28108   0.28244
 Alpha virt. eigenvalues --    0.28959   0.30874   0.32173   0.32290   0.32517

 Mulliken charges:
               1
     1  C   -0.297339
     2  C   -0.298054
     3  C   -0.488660
     4  H    0.146938
     5  H    0.147101
     6  H    0.151847
     7  H    0.152618
     8  H    0.147772
     9  H    0.147114
    10  H    0.190958
    11  C   -0.297663
    12  C   -0.298957
    13  C   -0.475290
    14  H    0.149035
    15  H    0.149440
    16  H    0.150663
    17  H    0.150791
    18  H    0.154880
    19  H    0.154755
    20  H    0.158387
    21  C   -0.170574
    22  C   -0.218635
    23  C   -0.170502
    24  C    0.157455
    25  C   -0.170693
    26  C   -0.218587
    27  H    0.225958
    28  H    0.223755
    29  H    0.275819
    30  H    0.276267
    31  H    0.223896
    32  N    0.493685
    33  O   -0.465226
    34  O   -0.458955
 Sum of Mulliken charges =  -0.00000

 Dipole moment (field-independent basis, Debye):
    X=             -4.8776    Y=             -2.4456    Z=              0.4645  Tot=              5.4761
 Quadrupole moment (field-independent basis, Debye-Ang):
   XX=            -61.1897   YY=            -92.9654   ZZ=            -94.6095
   XY=              6.1857   XZ=             -2.2544   YZ=              1.8902

 Normal termination of Gaussian 16 at Thu May  6 04:14:53 2021.
