 Gaussian 16, Revision A.03,
 Gaussian 16:  EM64L-G16RevA.03 25-Dec-2016

 -------------
 #p 6-31g* mp2
 -------------

 ------------------------------------------------------
 Input file generated by CHIRIPA (05-May-2021 14:53:16)
 ------------------------------------------------------
 Symbolic Z-matrix:
 Charge =  0 Multiplicity = 1

                         Standard orientation:
 ---------------------------------------------------------------------
 Center     Atomic      Atomic             Coordinates (Angstroms)
 Number     Number       Type             X           Y           Z
 ---------------------------------------------------------------------
      1          6           0        3.604752   -0.557920    0.440343
      2          6           0        3.114221   -1.909286   -0.080402
      3          6           0        1.843250   -2.387567    0.622217
      4          1           0        3.787624   -0.633031    1.521020
      5          1           0        2.809106    0.188484    0.309104
      6          1           0        3.911055   -2.652611    0.050512
      7          1           0        2.932679   -1.831002   -1.159999
      8          1           0        1.030730   -1.667539    0.480898
      9          1           0        2.014665   -2.493815    1.698288
     10          1           0        1.510170   -3.355366    0.234551
     11          6           0        4.874533   -0.066441   -0.252356
     12          6           0        5.365065    1.284924    0.268389
     13          6           0        6.636036    1.763206   -0.434229
     14          1           0        5.670179   -0.812845   -0.121116
     15          1           0        4.691662    0.008669   -1.333032
     16          1           0        5.546607    1.206641    1.347987
     17          1           0        4.568230    2.028249    0.137475
     18          1           0        6.464620    1.869454   -1.510301
     19          1           0        7.448556    1.043178   -0.292911
     20          1           0        6.969115    2.731004   -0.046564
     21          6           0       -3.208904   -2.265884   -0.310658
     22          6           0       -2.040548   -1.504099   -0.416235
     23          6           0       -2.085933   -0.112821   -0.286490
     24          6           0       -3.322209    0.486527   -0.050499
     25          6           0       -4.503697   -0.245071    0.059691
     26          6           0       -4.434590   -1.635051   -0.073451
     27          1           0       -3.164435   -3.346159   -0.412766
     28          1           0       -1.087269   -1.991315   -0.600421
     29          1           0       -1.196805    0.501094   -0.363810
     30          1           0       -5.439260    0.269036    0.243633
     31          1           0       -5.343562   -2.224131    0.009004
     32          7           0       -3.382813    1.958723    0.088654
     33          8           0       -4.484395    2.462752    0.296280
     34          8           0       -2.327583    2.580728   -0.012537
 ---------------------------------------------------------------------

 SCF Done:  E(RHF) =  -669.535424043     A.U. after   15 cycles
 E2 =    -0.2091101495D+01 EUMP2 =    -0.67162652553838D+03

 The electronic state is 1-A.
 Alpha  occ. eigenvalues --  -20.60745 -20.60740 -15.85798 -11.31156 -11.27721
 Alpha  occ. eigenvalues --  -11.27717 -11.27447 -11.26737 -11.26674 -11.22248
 Alpha  occ. eigenvalues --  -11.22010 -11.21817 -11.21745 -11.21647 -11.21162
 Alpha  occ. eigenvalues --   -1.59820  -1.39374  -1.19322  -1.08829  -1.08716
 Alpha  occ. eigenvalues --   -1.04726  -1.03966  -0.96438  -0.95556  -0.87465
 Alpha  occ. eigenvalues --   -0.86117  -0.82392  -0.80039  -0.78591  -0.77439
 Alpha  occ. eigenvalues --   -0.72016  -0.71143  -0.70433  -0.65479  -0.64973
 Alpha  occ. eigenvalues --   -0.64732  -0.62142  -0.61314  -0.59833  -0.58014
 Alpha  occ. eigenvalues --   -0.55759  -0.55206  -0.53205  -0.53056  -0.52898
 Alpha  occ. eigenvalues --   -0.52705  -0.50357  -0.48773  -0.48772  -0.48342
 Alpha  occ. eigenvalues --   -0.47054  -0.46143  -0.46038  -0.44782  -0.44203
 Alpha  occ. eigenvalues --   -0.37299  -0.36319
 Alpha virt. eigenvalues --    0.05081   0.11320   0.16520   0.20067   0.22763
 Alpha virt. eigenvalues --    0.23864   0.25672   0.26627   0.26873   0.28214
 Alpha virt. eigenvalues --    0.29060   0.30713   0.30975   0.31358   0.31877

 Mulliken charges:
               1
     1  C   -0.298929
     2  C   -0.300181
     3  C   -0.480258
     4  H    0.151747
     5  H    0.150006
     6  H    0.154995
     7  H    0.151305
     8  H    0.149359
     9  H    0.161696
    10  H    0.156928
    11  C   -0.298729
    12  C   -0.300544
    13  C   -0.476032
    14  H    0.149826
    15  H    0.150018
    16  H    0.152590
    17  H    0.154759
    18  H    0.155608
    19  H    0.154795
    20  H    0.161936
    21  C   -0.171817
    22  C   -0.221838
    23  C   -0.172913
    24  C    0.158676
    25  C   -0.171214
    26  C   -0.218388
    27  H    0.225741
    28  H    0.230739
    29  H    0.274490
    30  H    0.275459
    31  H    0.223252
    32  N    0.488165
    33  O   -0.460495
    34  O   -0.460751
 Sum of Mulliken charges =  -0.00000

 Dipole moment (field-independent basis, Debye):
    X=              0.3769    Y=             -5.1808    Z=             -0.4491  Tot=              5.2139
 Quadrupole moment (field-independent basis, Debye-Ang):
   XX=            -91.1059   YY=           -100.4208   ZZ=            -95.1252
   XY=             17.2150   XZ=              1.7208   YZ=             -0.2237

 Normal termination of Gaussian 16 at Thu May  6 15:34:49 2021.
