 Gaussian 16, Revision A.03,
 Gaussian 16:  EM64L-G16RevA.03 25-Dec-2016

 -------------
 #p 6-31g* mp2
 -------------

 ------------------------------------------------------
 Input file generated by CHIRIPA (05-May-2021 14:55:25)
 ------------------------------------------------------
 Symbolic Z-matrix:
 Charge =  0 Multiplicity = 1

                         Standard orientation:
 ---------------------------------------------------------------------
 Center     Atomic      Atomic             Coordinates (Angstroms)
 Number     Number       Type             X           Y           Z
 ---------------------------------------------------------------------
      1          6           0       -3.921851   -1.567506    0.247393
      2          6           0       -3.285050   -1.304766   -0.969970
      3          6           0       -2.528466   -0.141327   -1.138905
      4          6           0       -2.429462    0.741540   -0.064645
      5          6           0       -3.052112    0.507854    1.160503
      6          6           0       -3.803558   -0.661955    1.306876
      7          1           0       -4.507588   -2.473768    0.369863
      8          1           0       -3.375174   -2.006239   -1.794505
      9          1           0       -2.025055    0.086863   -2.070530
     10          1           0       -2.943897    1.225981    1.964244
     11          1           0       -4.297013   -0.863405    2.253430
     12          7           0       -1.631220    1.976592   -0.231547
     13          8           0       -1.559511    2.738473    0.730239
     14          8           0       -1.092383    2.159360   -1.320991
     15          6           0        3.897101   -0.467185    0.436439
     16          6           0        4.819294    0.452817   -0.364274
     17          6           0        6.053218    0.887307    0.427208
     18          1           0        3.582928    0.047923    1.354536
     19          1           0        4.461686   -1.354881    0.753665
     20          1           0        4.252766    1.337859   -0.681074
     21          1           0        5.131154   -0.064469   -1.280666
     22          1           0        6.642711    0.016087    0.730646
     23          1           0        5.759333    1.426383    1.333646
     24          1           0        6.698590    1.544371   -0.164081
     25          6           0        2.659116   -0.910066   -0.341365
     26          6           0        1.736922   -1.830068    0.459347
     27          6           0        0.502999   -2.264559   -0.332134
     28          1           0        2.094530   -0.022370   -0.658592
     29          1           0        2.973288   -1.425174   -1.259463
     30          1           0        1.425062   -1.312782    1.375740
     31          1           0        2.303450   -2.715111    0.776148
     32          1           0        0.796884   -2.803634   -1.238573
     33          1           0       -0.086495   -1.393338   -0.635573
     34          1           0       -0.142374   -2.921622    0.259154
 ---------------------------------------------------------------------

 SCF Done:  E(RHF) =  -669.534932905     A.U. after   15 cycles
 E2 =    -0.2092716000D+01 EUMP2 =    -0.67162764890506D+03

 The electronic state is 1-A.
 Alpha  occ. eigenvalues --  -20.60862 -20.60855 -15.85909 -11.31241 -11.27813
 Alpha  occ. eigenvalues --  -11.27792 -11.27548 -11.26820 -11.26799 -11.21434
 Alpha  occ. eigenvalues --  -11.21168 -11.21051 -11.20994 -11.20988 -11.20685
 Alpha  occ. eigenvalues --   -1.59936  -1.39489  -1.19425  -1.08818  -1.08112
 Alpha  occ. eigenvalues --   -1.04825  -1.03257  -0.95735  -0.95643  -0.86746
 Alpha  occ. eigenvalues --   -0.86219  -0.82488  -0.79329  -0.77910  -0.77538
 Alpha  occ. eigenvalues --   -0.72126  -0.71263  -0.70532  -0.65072  -0.64822
 Alpha  occ. eigenvalues --   -0.64735  -0.62169  -0.60673  -0.59092  -0.57331
 Alpha  occ. eigenvalues --   -0.55322  -0.55112  -0.53214  -0.52908  -0.52381
 Alpha  occ. eigenvalues --   -0.52095  -0.49622  -0.48886  -0.48882  -0.47648
 Alpha  occ. eigenvalues --   -0.46348  -0.45467  -0.45366  -0.44874  -0.43500
 Alpha  occ. eigenvalues --   -0.37386  -0.36333
 Alpha virt. eigenvalues --    0.04980   0.11150   0.16466   0.21337   0.23144
 Alpha virt. eigenvalues --    0.24509   0.26842   0.27176   0.27814   0.28200
 Alpha virt. eigenvalues --    0.28530   0.30783   0.31605   0.31903   0.32224

 Mulliken charges:
               1
     1  C   -0.171258
     2  C   -0.212352
     3  C   -0.177106
     4  C    0.161703
     5  C   -0.171305
     6  C   -0.218006
     7  H    0.225921
     8  H    0.224394
     9  H    0.276280
    10  H    0.275630
    11  H    0.223646
    12  N    0.487898
    13  O   -0.460181
    14  O   -0.461108
    15  C   -0.298101
    16  C   -0.300644
    17  C   -0.475708
    18  H    0.151046
    19  H    0.147033
    20  H    0.157675
    21  H    0.150297
    22  H    0.153141
    23  H    0.156010
    24  H    0.160155
    25  C   -0.301046
    26  C   -0.299228
    27  C   -0.479131
    28  H    0.157955
    29  H    0.147657
    30  H    0.152021
    31  H    0.150054
    32  H    0.151676
    33  H    0.159148
    34  H    0.155833
 Sum of Mulliken charges =  -0.00000

 Dipole moment (field-independent basis, Debye):
    X=             -2.9148    Y=             -4.2556    Z=              0.5741  Tot=              5.1900
 Quadrupole moment (field-independent basis, Debye-Ang):
   XX=            -82.2034   YY=           -101.3210   ZZ=            -90.5758
   XY=              7.9515   XZ=             -3.0787   YZ=              2.2826

 Normal termination of Gaussian 16 at Thu May  6 11:08:19 2021.
