 Gaussian 16, Revision A.03,
 Gaussian 16:  EM64L-G16RevA.03 25-Dec-2016

 -------------
 #p 6-31g* mp2
 -------------

 ------------------------------------------------------
 Input file generated by CHIRIPA (05-May-2021 14:57:21)
 ------------------------------------------------------
 Symbolic Z-matrix:
 Charge =  0 Multiplicity = 1

                         Standard orientation:
 ---------------------------------------------------------------------
 Center     Atomic      Atomic             Coordinates (Angstroms)
 Number     Number       Type             X           Y           Z
 ---------------------------------------------------------------------
      1          6           0       -4.096904    2.402441   -0.211604
      2          6           0       -2.730295    2.111734   -0.277858
      3          6           0       -2.285894    0.786213   -0.284967
      4          6           0       -3.239871   -0.228456   -0.224439
      5          6           0       -4.608272    0.029062   -0.157704
      6          6           0       -5.029887    1.362011   -0.151844
      7          1           0       -4.433275    3.435023   -0.206567
      8          1           0       -2.003470    2.917716   -0.324360
      9          1           0       -1.233924    0.532815   -0.335620
     10          1           0       -5.309005   -0.795761   -0.112311
     11          1           0       -6.091843    1.584808   -0.100323
     12          7           0       -2.781466   -1.635658   -0.231303
     13          8           0       -3.642017   -2.511533   -0.177165
     14          8           0       -1.570296   -1.836102   -0.290692
     15          6           0        1.281858   -0.619132    1.584005
     16          6           0        1.836997   -1.546473    0.696096
     17          6           0        2.963675   -1.216224   -0.062904
     18          6           0        3.512020    0.056052    0.091760
     19          6           0        2.981957    1.001839    0.968008
     20          6           0        1.855099    0.649827    1.716893
     21          1           0        0.406558   -0.884130    2.169685
     22          1           0        1.393917   -2.532700    0.590835
     23          1           0        3.413769   -1.914856   -0.757703
     24          1           0        3.445849    1.977182    1.051241
     25          1           0        1.426103    1.372033    2.405678
     26          7           0        4.704878    0.417192   -0.706405
     27          8           0        5.169220    1.544635   -0.551827
     28          8           0        5.152911   -0.434030   -1.471471
 ---------------------------------------------------------------------

 SCF Done:  E(RHF) =  -868.339855856     A.U. after   16 cycles
 E2 =    -0.2600027285D+01 EUMP2 =    -0.87093988314091D+03

 The electronic state is 1-A.
 Alpha  occ. eigenvalues --  -20.61669 -20.61607 -20.60536 -20.60517 -15.86675
 Alpha  occ. eigenvalues --  -15.85577 -11.31826 -11.30853 -11.28368 -11.28336
 Alpha  occ. eigenvalues --  -11.28071 -11.27461 -11.27334 -11.27324 -11.27280
 Alpha  occ. eigenvalues --  -11.27029 -11.26498 -11.26164  -1.60711  -1.59608
 Alpha  occ. eigenvalues --   -1.40271  -1.39163  -1.19982  -1.18998  -1.09418
 Alpha  occ. eigenvalues --   -1.08393  -1.05347  -1.04366  -0.96287  -0.95245
 Alpha  occ. eigenvalues --   -0.86754  -0.85748  -0.83121  -0.82072  -0.78196
 Alpha  occ. eigenvalues --   -0.77146  -0.72916  -0.72031  -0.71792  -0.71074
 Alpha  occ. eigenvalues --   -0.70932  -0.70045  -0.65636  -0.65340  -0.64623
 Alpha  occ. eigenvalues --   -0.64309  -0.62688  -0.61690  -0.55851  -0.54814
 Alpha  occ. eigenvalues --   -0.53700  -0.53447  -0.52703  -0.52415  -0.49660
 Alpha  occ. eigenvalues --   -0.49636  -0.48558  -0.48540  -0.45722  -0.44589
 Alpha  occ. eigenvalues --   -0.37957  -0.37025  -0.36874  -0.35965
 Alpha virt. eigenvalues --    0.04275   0.05365   0.10689   0.11670   0.15824
 Alpha virt. eigenvalues --    0.16870   0.20881   0.21980   0.26790   0.27700
 Alpha virt. eigenvalues --    0.27914   0.28760   0.30478   0.31469   0.31999

 Mulliken charges:
               1
     1  C   -0.169891
     2  C   -0.220117
     3  C   -0.176757
     4  C    0.156040
     5  C   -0.170409
     6  C   -0.218752
     7  H    0.227848
     8  H    0.225540
     9  H    0.280019
    10  H    0.276461
    11  H    0.225452
    12  N    0.490119
    13  O   -0.456552
    14  O   -0.470388
    15  C   -0.172862
    16  C   -0.210379
    17  C   -0.174253
    18  C    0.157869
    19  C   -0.174218
    20  C   -0.225956
    21  H    0.229602
    22  H    0.239146
    23  H    0.276246
    24  H    0.272298
    25  H    0.218793
    26  N    0.488053
    27  O   -0.463218
    28  O   -0.459735
 Sum of Mulliken charges =  -0.00000

 Dipole moment (field-independent basis, Debye):
    X=             -6.0978    Y=              3.4693    Z=              2.7853  Tot=              7.5484
 Quadrupole moment (field-independent basis, Debye-Ang):
   XX=           -120.0683   YY=           -102.8299   ZZ=           -105.0115
   XY=            -19.6279   XZ=              9.5368   YZ=              0.7701

 Normal termination of Gaussian 16 at Thu May  6 19:26:59 2021.
