 Gaussian 16, Revision A.03,
 Gaussian 16:  EM64L-G16RevA.03 25-Dec-2016

 -------------
 #p 6-31g* mp2
 -------------

 ------------------------------------------------------
 Input file generated by CHIRIPA (05-May-2021 14:53:17)
 ------------------------------------------------------
 Symbolic Z-matrix:
 Charge =  0 Multiplicity = 1

                         Standard orientation:
 ---------------------------------------------------------------------
 Center     Atomic      Atomic             Coordinates (Angstroms)
 Number     Number       Type             X           Y           Z
 ---------------------------------------------------------------------
      1          6           0        5.043912    0.010871    0.407527
      2          6           0        5.800481    0.792310   -0.667154
      3          6           0        7.301923    0.875751   -0.390561
      4          1           0        5.212512    0.485383    1.383928
      5          1           0        5.461906   -1.003000    0.476381
      6          1           0        5.380271    1.803965   -0.734923
      7          1           0        5.629905    0.315995   -1.641138
      8          1           0        7.741242   -0.125945   -0.343593
      9          1           0        7.490190    1.370480    0.567771
     10          1           0        7.823266    1.438595   -1.171117
     11          6           0        3.541805   -0.081254    0.145010
     12          6           0        2.785235   -0.862693    1.219692
     13          6           0        1.283794   -0.946134    0.943099
     14          1           0        3.123811    0.932617    0.076156
     15          1           0        3.373205   -0.555766   -0.831390
     16          1           0        2.955812   -0.386378    2.193675
     17          1           0        3.205446   -1.874349    1.287460
     18          1           0        1.095527   -1.440863   -0.015233
     19          1           0        0.844475    0.055562    0.896131
     20          1           0        0.762450   -1.508978    1.723654
     21          6           0       -4.574533    2.148123    0.399512
     22          6           0       -5.095037    0.906014    0.777350
     23          6           0       -4.427158   -0.275474    0.441831
     24          6           0       -3.235779   -0.177522   -0.275325
     25          6           0       -2.691764    1.045011   -0.666158
     26          6           0       -3.376670    2.213542   -0.319768
     27          1           0       -5.099971    3.060899    0.664375
     28          1           0       -6.025121    0.852176    1.336001
     29          1           0       -4.807679   -1.250320    0.721647
     30          1           0       -1.762580    1.066738   -1.222543
     31          1           0       -2.970089    3.176793   -0.614532
     32          7           0       -2.519712   -1.421451   -0.636278
     33          8           0       -1.471820   -1.308188   -1.268520
     34          8           0       -3.019911   -2.486151   -0.280117
 ---------------------------------------------------------------------

 SCF Done:  E(RHF) =  -669.535989901     A.U. after   15 cycles
 E2 =    -0.2091177344D+01 EUMP2 =    -0.67162716724498D+03

 The electronic state is 1-A.
 Alpha  occ. eigenvalues --  -20.60847 -20.60821 -15.85864 -11.31213 -11.27779
 Alpha  occ. eigenvalues --  -11.27775 -11.27525 -11.26797 -11.26788 -11.21294
 Alpha  occ. eigenvalues --  -11.20985 -11.20924 -11.20840 -11.20821 -11.20057
 Alpha  occ. eigenvalues --   -1.59891  -1.39448  -1.19384  -1.08784  -1.07948
 Alpha  occ. eigenvalues --   -1.04786  -1.02994  -0.95629  -0.95420  -0.86439
 Alpha  occ. eigenvalues --   -0.86184  -0.82459  -0.79073  -0.77759  -0.77497
 Alpha  occ. eigenvalues --   -0.72097  -0.71197  -0.70495  -0.65041  -0.64792
 Alpha  occ. eigenvalues --   -0.64582  -0.62133  -0.60390  -0.58833  -0.57038
 Alpha  occ. eigenvalues --   -0.55291  -0.54707  -0.53113  -0.52879  -0.52121
 Alpha  occ. eigenvalues --   -0.51845  -0.49382  -0.48850  -0.48833  -0.47392
 Alpha  occ. eigenvalues --   -0.46120  -0.45354  -0.45228  -0.44689  -0.43261
 Alpha  occ. eigenvalues --   -0.37362  -0.36387
 Alpha virt. eigenvalues --    0.05008   0.11243   0.16480   0.21341   0.23316
 Alpha virt. eigenvalues --    0.24791   0.26947   0.27292   0.27788   0.28067
 Alpha virt. eigenvalues --    0.28905   0.30921   0.31729   0.32208   0.32529

 Mulliken charges:
               1
     1  C   -0.297797
     2  C   -0.299206
     3  C   -0.475409
     4  H    0.147895
     5  H    0.149895
     6  H    0.149870
     7  H    0.152592
     8  H    0.155436
     9  H    0.154217
    10  H    0.159064
    11  C   -0.297501
    12  C   -0.300323
    13  C   -0.479305
    14  H    0.145018
    15  H    0.152780
    16  H    0.147000
    17  H    0.152007
    18  H    0.178812
    19  H    0.143822
    20  H    0.157385
    21  C   -0.170724
    22  C   -0.218545
    23  C   -0.170910
    24  C    0.158930
    25  C   -0.170888
    26  C   -0.218653
    27  H    0.225652
    28  H    0.223510
    29  H    0.275630
    30  H    0.276269
    31  H    0.223501
    32  N    0.489114
    33  O   -0.459201
    34  O   -0.459939
 Sum of Mulliken charges =  -0.00000

 Dipole moment (field-independent basis, Debye):
    X=             -2.6938    Y=              4.2712    Z=              1.1656  Tot=              5.1825
 Quadrupole moment (field-independent basis, Debye-Ang):
   XX=            -78.0336   YY=            -94.4551   ZZ=            -95.0688
   XY=            -12.2831   XZ=             -5.7710   YZ=             -2.3183

 Normal termination of Gaussian 16 at Thu May  6 12:16:26 2021.
