 Gaussian 16, Revision A.03,
 Gaussian 16:  EM64L-G16RevA.03 25-Dec-2016

 -------------
 #p 6-31g* mp2
 -------------

 ------------------------------------------------------
 Input file generated by CHIRIPA (05-May-2021 14:57:24)
 ------------------------------------------------------
 Symbolic Z-matrix:
 Charge =  0 Multiplicity = 1

                         Standard orientation:
 ---------------------------------------------------------------------
 Center     Atomic      Atomic             Coordinates (Angstroms)
 Number     Number       Type             X           Y           Z
 ---------------------------------------------------------------------
      1          6           0        3.068673    2.572218    0.144445
      2          6           0        2.025734    2.211731   -0.715117
      3          6           0        1.718934    0.865373   -0.933616
      4          6           0        2.478967   -0.098751   -0.273234
      5          6           0        3.524155    0.228688    0.589120
      6          6           0        3.813243    1.581293    0.792677
      7          1           0        3.300123    3.620528    0.308377
      8          1           0        1.445809    2.979155   -1.219887
      9          1           0        0.916893    0.558305   -1.593810
     10          1           0        4.084517   -0.558887    1.078137
     11          1           0        4.623766    1.858319    1.460775
     12          7           0        2.163547   -1.527387   -0.496640
     13          8           0        2.848111   -2.357727    0.097115
     14          8           0        1.237730   -1.789760   -1.261270
     15          6           0       -3.631191    2.076234   -0.271816
     16          6           0       -3.655082    1.048428   -1.220269
     17          6           0       -3.048717   -0.181830   -0.949463
     18          6           0       -2.424584   -0.350644    0.285548
     19          6           0       -2.383913    0.654074    1.251041
     20          6           0       -2.996802    1.876129    0.958643
     21          1           0       -4.104763    3.028742   -0.490571
     22          1           0       -4.147024    1.201005   -2.176699
     23          1           0       -3.052329   -0.994563   -1.665613
     24          1           0       -1.885798    0.472199    2.195615
     25          1           0       -2.976687    2.672551    1.697123
     26          7           0       -1.779200   -1.648721    0.583668
     27          8           0       -1.235859   -1.772306    1.679178
     28          8           0       -1.828910   -2.517989   -0.283822
 ---------------------------------------------------------------------

 SCF Done:  E(RHF) =  -868.335843703     A.U. after   16 cycles
 E2 =    -0.2602054829D+01 EUMP2 =    -0.87093789853260D+03

 The electronic state is 1-A.
 Alpha  occ. eigenvalues --  -20.60178 -20.60084 -20.60070 -20.60048 -15.85176
 Alpha  occ. eigenvalues --  -15.85139 -11.30989 -11.30842 -11.27615 -11.27571
 Alpha  occ. eigenvalues --  -11.27480 -11.27436 -11.27420 -11.27272 -11.26727
 Alpha  occ. eigenvalues --  -11.26699 -11.26580 -11.26527  -1.59177  -1.59122
 Alpha  occ. eigenvalues --   -1.38725  -1.38678  -1.19204  -1.19048  -1.08515
 Alpha  occ. eigenvalues --   -1.08382  -1.04661  -1.04504  -0.95273  -0.95157
 Alpha  occ. eigenvalues --   -0.86034  -0.85890  -0.82105  -0.81990  -0.77072
 Alpha  occ. eigenvalues --   -0.76983  -0.71456  -0.71335  -0.70760  -0.70294
 Alpha  occ. eigenvalues --   -0.70174  -0.70136  -0.64836  -0.64696  -0.64659
 Alpha  occ. eigenvalues --   -0.64519  -0.61989  -0.61852  -0.55151  -0.55007
 Alpha  occ. eigenvalues --   -0.53025  -0.52784  -0.52747  -0.52598  -0.48222
 Alpha  occ. eigenvalues --   -0.48144  -0.48099  -0.48051  -0.44279  -0.43734
 Alpha  occ. eigenvalues --   -0.37248  -0.37029  -0.36315  -0.36095
 Alpha virt. eigenvalues --    0.05471   0.05575   0.11313   0.11544   0.16869
 Alpha virt. eigenvalues --    0.17006   0.21475   0.21588   0.27371   0.27451
 Alpha virt. eigenvalues --    0.28399   0.28490   0.30872   0.31168   0.32597

 Mulliken charges:
               1
     1  C   -0.172652
     2  C   -0.218493
     3  C   -0.173278
     4  C    0.161459
     5  C   -0.169880
     6  C   -0.218622
     7  H    0.222790
     8  H    0.219599
     9  H    0.272984
    10  H    0.277079
    11  H    0.222419
    12  N    0.489822
    13  O   -0.456721
    14  O   -0.456928
    15  C   -0.173896
    16  C   -0.220502
    17  C   -0.172568
    18  C    0.158431
    19  C   -0.172228
    20  C   -0.219726
    21  H    0.223285
    22  H    0.222684
    23  H    0.279586
    24  H    0.275435
    25  H    0.221151
    26  N    0.488914
    27  O   -0.464998
    28  O   -0.445147
 Sum of Mulliken charges =  -0.00000

 Dipole moment (field-independent basis, Debye):
    X=             -1.1187    Y=              9.1587    Z=             -0.3071  Tot=              9.2319
 Quadrupole moment (field-independent basis, Debye-Ang):
   XX=            -86.6202   YY=           -109.2157   ZZ=           -100.6747
   XY=              1.5984   XZ=              7.9754   YZ=              1.2984

 Normal termination of Gaussian 16 at Fri May  7 00:19:31 2021.
