 Gaussian 16, Revision A.03,
 Gaussian 16:  EM64L-G16RevA.03 25-Dec-2016

 -------------
 #p 6-31g* mp2
 -------------

 ------------------------------------------------------
 Input file generated by CHIRIPA (05-May-2021 14:55:21)
 ------------------------------------------------------
 Symbolic Z-matrix:
 Charge =  0 Multiplicity = 1

                         Standard orientation:
 ---------------------------------------------------------------------
 Center     Atomic      Atomic             Coordinates (Angstroms)
 Number     Number       Type             X           Y           Z
 ---------------------------------------------------------------------
      1          6           0       -4.350882   -2.319747   -0.028417
      2          6           0       -2.979053   -2.076922    0.096650
      3          6           0       -2.480040   -0.772589    0.031454
      4          6           0       -3.385321    0.269948   -0.160566
      5          6           0       -4.757506    0.060222   -0.288684
      6          6           0       -5.234173   -1.252282   -0.220346
      7          1           0       -4.729848   -3.336158    0.023450
      8          1           0       -2.290743   -2.903986    0.245779
      9          1           0       -1.422778   -0.556183    0.125179
     10          1           0       -5.419052    0.905151   -0.436568
     11          1           0       -6.300053   -1.437885   -0.317800
     12          7           0       -2.868867    1.655112   -0.231249
     13          8           0       -3.687186    2.556305   -0.401074
     14          8           0       -1.655530    1.813381   -0.115488
     15          6           0        4.963906   -0.451682   -0.199928
     16          6           0        6.339919    0.214527   -0.227132
     17          6           0        7.372945   -0.594399   -1.012173
     18          1           0        5.057582   -1.454227    0.239475
     19          1           0        4.612704   -0.594028   -1.231329
     20          1           0        6.687813    0.356831    0.804050
     21          1           0        6.242926    1.215676   -0.666345
     22          1           0        7.051678   -0.725059   -2.050594
     23          1           0        7.499093   -1.588782   -0.571845
     24          1           0        8.349328   -0.099939   -1.018781
     25          6           0        3.920418    0.345043    0.581154
     26          6           0        2.544405   -0.321166    0.608358
     27          6           0        1.511380    0.487760    1.393400
     28          1           0        4.271621    0.487390    1.612555
     29          1           0        3.826743    1.347587    0.141751
     30          1           0        2.641400   -1.322315    1.047571
     31          1           0        2.196513   -0.463471   -0.422823
     32          1           0        1.385232    1.482144    0.953071
     33          1           0        1.832647    0.618419    2.431820
     34          1           0        0.534997   -0.006701    1.400007
 ---------------------------------------------------------------------

 SCF Done:  E(RHF) =  -669.535391075     A.U. after   15 cycles
 E2 =    -0.2091320710D+01 EUMP2 =    -0.67162671178411D+03

 The electronic state is 1-A.
 Alpha  occ. eigenvalues --  -20.60776 -20.60771 -15.85825 -11.31191 -11.27762
 Alpha  occ. eigenvalues --  -11.27744 -11.27508 -11.26782 -11.26771 -11.21445
 Alpha  occ. eigenvalues --  -11.21414 -11.21232 -11.21142 -11.20954 -11.20649
 Alpha  occ. eigenvalues --   -1.59849  -1.39402  -1.19366  -1.08762  -1.08238
 Alpha  occ. eigenvalues --   -1.04771  -1.03323  -0.95764  -0.95585  -0.86763
 Alpha  occ. eigenvalues --   -0.86167  -0.82427  -0.79388  -0.78058  -0.77472
 Alpha  occ. eigenvalues --   -0.72047  -0.71170  -0.70483  -0.65021  -0.64863
 Alpha  occ. eigenvalues --   -0.64783  -0.62155  -0.60699  -0.59140  -0.57393
 Alpha  occ. eigenvalues --   -0.55274  -0.55001  -0.53100  -0.52951  -0.52381
 Alpha  occ. eigenvalues --   -0.52148  -0.49661  -0.48806  -0.48785  -0.47703
 Alpha  occ. eigenvalues --   -0.46408  -0.45592  -0.45518  -0.44807  -0.43579
 Alpha  occ. eigenvalues --   -0.37348  -0.36372
 Alpha virt. eigenvalues --    0.05044   0.11252   0.16550   0.20633   0.23034
 Alpha virt. eigenvalues --    0.23962   0.26529   0.26886   0.27749   0.27754
 Alpha virt. eigenvalues --    0.29321   0.30728   0.31530   0.31680   0.32058

 Mulliken charges:
               1
     1  C   -0.170531
     2  C   -0.221404
     3  C   -0.177325
     4  C    0.156226
     5  C   -0.170206
     6  C   -0.218823
     7  H    0.225639
     8  H    0.223920
     9  H    0.287975
    10  H    0.275627
    11  H    0.223464
    12  N    0.488310
    13  O   -0.460352
    14  O   -0.461913
    15  C   -0.298085
    16  C   -0.299718
    17  C   -0.475606
    18  H    0.147678
    19  H    0.149285
    20  H    0.151780
    21  H    0.153265
    22  H    0.155022
    23  H    0.154181
    24  H    0.160210
    25  C   -0.298472
    26  C   -0.302106
    27  C   -0.475043
    28  H    0.149383
    29  H    0.153536
    30  H    0.146291
    31  H    0.150641
    32  H    0.173614
    33  H    0.153107
    34  H    0.150428
 Sum of Mulliken charges =  -0.00000

 Dipole moment (field-independent basis, Debye):
    X=             -1.8449    Y=             -4.7368    Z=              0.2307  Tot=              5.0886
 Quadrupole moment (field-independent basis, Debye-Ang):
   XX=            -78.9554   YY=            -97.2530   ZZ=            -95.3144
   XY=             15.0872   XZ=              0.8226   YZ=              0.0132

 Normal termination of Gaussian 16 at Thu May  6 20:44:19 2021.
