 Gaussian 16, Revision A.03,
 Gaussian 16:  EM64L-G16RevA.03 25-Dec-2016

 -------------
 #p 6-31g* mp2
 -------------

 ------------------------------------------------------
 Input file generated by CHIRIPA (05-May-2021 14:57:21)
 ------------------------------------------------------
 Symbolic Z-matrix:
 Charge =  0 Multiplicity = 1

                         Standard orientation:
 ---------------------------------------------------------------------
 Center     Atomic      Atomic             Coordinates (Angstroms)
 Number     Number       Type             X           Y           Z
 ---------------------------------------------------------------------
      1          6           0       -0.879681   -0.038843    1.060160
      2          6           0       -1.883947    0.745140    1.637517
      3          6           0       -3.180851    0.735034    1.115516
      4          6           0       -3.439592   -0.074398    0.010453
      5          6           0       -2.460472   -0.866637   -0.587017
      6          6           0       -1.170636   -0.840816   -0.048311
      7          1           0        0.125040   -0.024889    1.472151
      8          1           0       -1.660868    1.368925    2.498431
      9          1           0       -3.977251    1.332140    1.542868
     10          1           0       -2.713200   -1.478315   -1.444570
     11          1           0       -0.392694   -1.450697   -0.498751
     12          7           0       -4.808825   -0.093416   -0.551008
     13          8           0       -5.011150   -0.815089   -1.525118
     14          8           0       -5.653778    0.613712   -0.006341
     15          6           0        3.380695   -2.376307    0.486506
     16          6           0        2.990452   -1.447581    1.456917
     17          6           0        2.894639   -0.088944    1.141523
     18          6           0        3.197803    0.307886   -0.159979
     19          6           0        3.589406   -0.593243   -1.148869
     20          6           0        3.678402   -1.946932   -0.811002
     21          1           0        3.452478   -3.429808    0.740240
     22          1           0        2.758644   -1.778175    2.465389
     23          1           0        2.594991    0.651386    1.873330
     24          1           0        3.814099   -0.233509   -2.145626
     25          1           0        3.981729   -2.665957   -1.566675
     26          7           0        3.099978    1.743595   -0.505769
     27          8           0        3.372457    2.067722   -1.659603
     28          8           0        2.752677    2.517592    0.383584
 ---------------------------------------------------------------------

 SCF Done:  E(RHF) =  -868.336973832     A.U. after   16 cycles
 E2 =    -0.2601709007D+01 EUMP2 =    -0.87093868283822D+03

 The electronic state is 1-A.
 Alpha  occ. eigenvalues --  -20.61715 -20.61697 -20.60667 -20.60660 -15.86772
 Alpha  occ. eigenvalues --  -15.85719 -11.32375 -11.31074 -11.28997 -11.28879
 Alpha  occ. eigenvalues --  -11.28651 -11.28028 -11.27926 -11.27658 -11.27626
 Alpha  occ. eigenvalues --  -11.27334 -11.26665 -11.26631  -1.60778  -1.59741
 Alpha  occ. eigenvalues --   -1.40327  -1.39295  -1.20563  -1.19243  -1.09879
 Alpha  occ. eigenvalues --   -1.08642  -1.05996  -1.04648  -0.96687  -0.95482
 Alpha  occ. eigenvalues --   -0.87349  -0.86045  -0.83511  -0.82319  -0.78539
 Alpha  occ. eigenvalues --   -0.77363  -0.72979  -0.72118  -0.71938  -0.71635
 Alpha  occ. eigenvalues --   -0.71063  -0.70371  -0.66180  -0.65935  -0.64897
 Alpha  occ. eigenvalues --   -0.64663  -0.63311  -0.62001  -0.56411  -0.55370
 Alpha  occ. eigenvalues --   -0.54145  -0.53996  -0.52971  -0.52735  -0.49755
 Alpha  occ. eigenvalues --   -0.49724  -0.48697  -0.48693  -0.45679  -0.44703
 Alpha  occ. eigenvalues --   -0.38530  -0.37593  -0.37200  -0.36249
 Alpha virt. eigenvalues --    0.03951   0.05162   0.09988   0.11404   0.15377
 Alpha virt. eigenvalues --    0.16678   0.19938   0.21797   0.25638   0.26992
 Alpha virt. eigenvalues --    0.27339   0.29146   0.30053   0.30912   0.32178

 Mulliken charges:
               1
     1  C   -0.170246
     2  C   -0.218388
     3  C   -0.170289
     4  C    0.158563
     5  C   -0.170616
     6  C   -0.223268
     7  H    0.224371
     8  H    0.224246
     9  H    0.275830
    10  H    0.274338
    11  H    0.222110
    12  N    0.488089
    13  O   -0.461243
    14  O   -0.460120
    15  C   -0.172654
    16  C   -0.220060
    17  C   -0.186542
    18  C    0.163038
    19  C   -0.171724
    20  C   -0.219275
    21  H    0.230432
    22  H    0.226989
    23  H    0.274597
    24  H    0.280151
    25  H    0.228524
    26  N    0.488693
    27  O   -0.455239
    28  O   -0.460307
 Sum of Mulliken charges =  -0.00000

 Dipole moment (field-independent basis, Debye):
    X=              5.4633    Y=             -4.9867    Z=              3.0590  Tot=              8.0045
 Quadrupole moment (field-independent basis, Debye-Ang):
   XX=           -135.4514   YY=           -106.2664   ZZ=            -98.7255
   XY=            -18.6675   XZ=             -6.0732   YZ=              4.7924

 Normal termination of Gaussian 16 at Thu May  6 16:08:56 2021.
