 Gaussian 16, Revision A.03,
 Gaussian 16:  EM64L-G16RevA.03 25-Dec-2016

 -------------
 #p 6-31g* mp2
 -------------

 ------------------------------------------------------
 Input file generated by CHIRIPA (05-May-2021 14:55:19)
 ------------------------------------------------------
 Symbolic Z-matrix:
 Charge =  0 Multiplicity = 1

                         Standard orientation:
 ---------------------------------------------------------------------
 Center     Atomic      Atomic             Coordinates (Angstroms)
 Number     Number       Type             X           Y           Z
 ---------------------------------------------------------------------
      1          6           0        4.522821    1.211916   -0.199522
      2          6           0        4.572905    0.003762   -0.902641
      3          6           0        3.573184   -0.958636   -0.732652
      4          6           0        2.533263   -0.678601    0.152467
      5          6           0        2.455405    0.515605    0.867379
      6          6           0        3.466094    1.463538    0.681690
      7          1           0        5.303688    1.953911   -0.337672
      8          1           0        5.392377   -0.194365   -1.587663
      9          1           0        3.587288   -1.902338   -1.264297
     10          1           0        1.625920    0.684516    1.543280
     11          1           0        3.424612    2.400927    1.229071
     12          7           0        1.469098   -1.689792    0.340737
     13          8           0        0.563559   -1.418941    1.126406
     14          8           0        1.560694   -2.734066   -0.300931
     15          6           0       -3.166958    1.348842   -0.044317
     16          6           0       -1.680232    1.429088   -0.392445
     17          6           0       -1.094196    2.822850   -0.164888
     18          1           0       -3.718415    2.082998   -0.647520
     19          1           0       -3.306619    1.639308    1.006168
     20          1           0       -1.543255    1.137224   -1.441573
     21          1           0       -1.132275    0.694522    0.211518
     22          1           0       -1.201612    3.119460    0.883485
     23          1           0       -1.614927    3.564678   -0.778999
     24          1           0       -0.030452    2.857649   -0.420029
     25          6           0       -3.767187   -0.038263   -0.266563
     26          6           0       -5.253912   -0.118510    0.081566
     27          6           0       -5.839948   -1.512272   -0.145992
     28          1           0       -3.627526   -0.328729   -1.317048
     29          1           0       -3.215730   -0.772420    0.336640
     30          1           0       -5.801869    0.616056   -0.522398
     31          1           0       -5.390889    0.173354    1.130694
     32          1           0       -5.319217   -2.254100    0.468119
     33          1           0       -5.732532   -1.808882   -1.194365
     34          1           0       -6.903692   -1.547071    0.109149
 ---------------------------------------------------------------------

 SCF Done:  E(RHF) =  -669.536599075     A.U. after   15 cycles
 E2 =    -0.2091880566D+01 EUMP2 =    -0.67162847964131D+03

 The electronic state is 1-A.
 Alpha  occ. eigenvalues --  -20.60971 -20.60962 -15.85984 -11.31281 -11.27846
 Alpha  occ. eigenvalues --  -11.27842 -11.27578 -11.26851 -11.26841 -11.21006
 Alpha  occ. eigenvalues --  -11.20980 -11.20916 -11.20815 -11.20600 -11.20446
 Alpha  occ. eigenvalues --   -1.60016  -1.39576  -1.19451  -1.08858  -1.07818
 Alpha  occ. eigenvalues --   -1.04844  -1.03011  -0.95706  -0.95485  -0.86501
 Alpha  occ. eigenvalues --   -0.86244  -0.82542  -0.79062  -0.77658  -0.77538
 Alpha  occ. eigenvalues --   -0.72215  -0.71320  -0.70559  -0.65110  -0.64849
 Alpha  occ. eigenvalues --   -0.64437  -0.62196  -0.60404  -0.58868  -0.57088
 Alpha  occ. eigenvalues --   -0.55350  -0.54777  -0.53175  -0.52932  -0.52210
 Alpha  occ. eigenvalues --   -0.51902  -0.49431  -0.48978  -0.48964  -0.47393
 Alpha  occ. eigenvalues --   -0.46123  -0.45303  -0.45128  -0.44639  -0.43241
 Alpha  occ. eigenvalues --   -0.37425  -0.36436
 Alpha virt. eigenvalues --    0.04877   0.11176   0.16340   0.21040   0.23373
 Alpha virt. eigenvalues --    0.24494   0.26960   0.27398   0.27831   0.28428
 Alpha virt. eigenvalues --    0.28920   0.30472   0.31747   0.31979   0.32104

 Mulliken charges:
               1
     1  C   -0.170482
     2  C   -0.218536
     3  C   -0.170762
     4  C    0.158600
     5  C   -0.170159
     6  C   -0.219522
     7  H    0.226088
     8  H    0.223813
     9  H    0.275766
    10  H    0.276938
    11  H    0.224552
    12  N    0.488874
    13  O   -0.460458
    14  O   -0.458213
    15  C   -0.296743
    16  C   -0.311730
    17  C   -0.477310
    18  H    0.145920
    19  H    0.147808
    20  H    0.150033
    21  H    0.170771
    22  H    0.151606
    23  H    0.154743
    24  H    0.153507
    25  C   -0.301271
    26  C   -0.299286
    27  C   -0.475712
    28  H    0.148386
    29  H    0.162516
    30  H    0.148820
    31  H    0.150680
    32  H    0.158565
    33  H    0.154621
    34  H    0.157578
 Sum of Mulliken charges =  -0.00000

 Dipole moment (field-independent basis, Debye):
    X=              3.9094    Y=              3.3467    Z=             -0.6193  Tot=              5.1834
 Quadrupole moment (field-independent basis, Debye-Ang):
   XX=            -75.8266   YY=            -99.4576   ZZ=            -92.4592
   XY=              4.8002   XZ=             -2.9012   YZ=              2.9943

 Normal termination of Gaussian 16 at Thu May  6 15:42:29 2021.
