 Gaussian 16, Revision A.03,
 Gaussian 16:  EM64L-G16RevA.03 25-Dec-2016

 -------------
 #p 6-31g* mp2
 -------------

 ------------------------------------------------------
 Input file generated by CHIRIPA (05-May-2021 14:55:20)
 ------------------------------------------------------
 Symbolic Z-matrix:
 Charge =  0 Multiplicity = 1

                         Standard orientation:
 ---------------------------------------------------------------------
 Center     Atomic      Atomic             Coordinates (Angstroms)
 Number     Number       Type             X           Y           Z
 ---------------------------------------------------------------------
      1          6           0        1.011298   -2.088432    1.006250
      2          6           0        2.102265   -2.541077    0.256968
      3          6           0        3.045567   -1.637318   -0.240978
      4          6           0        2.866138   -0.281820    0.030541
      5          6           0        1.789790    0.200079    0.773870
      6          6           0        0.858811   -0.721709    1.261859
      7          1           0        0.283304   -2.797496    1.389199
      8          1           0        2.223232   -3.601918    0.056900
      9          1           0        3.899520   -1.960458   -0.823870
     10          1           0        1.696007    1.263623    0.956887
     11          1           0        0.012532   -0.367320    1.843465
     12          7           0        3.858247    0.684492   -0.491342
     13          8           0        3.677542    1.873583   -0.238269
     14          8           0        4.797781    0.234499   -1.143584
     15          6           0       -3.517874   -0.170864   -0.346991
     16          6           0       -4.951038   -0.701081   -0.293175
     17          6           0       -5.051850   -2.173801   -0.691580
     18          1           0       -3.121848   -0.305303   -1.362882
     19          1           0       -2.885406   -0.775583    0.317611
     20          1           0       -5.580896   -0.094672   -0.956623
     21          1           0       -5.343766   -0.565189    0.722658
     22          1           0       -4.447166   -2.795821   -0.023711
     23          1           0       -4.685644   -2.322631   -1.712533
     24          1           0       -6.084978   -2.532185   -0.646109
     25          6           0       -3.400851    1.300030    0.048614
     26          6           0       -1.967686    1.830246   -0.005202
     27          6           0       -1.866875    3.302966    0.393203
     28          1           0       -4.033319    1.904748   -0.615987
     29          1           0       -3.796878    1.434469    1.064505
     30          1           0       -1.574960    1.694355   -1.021034
     31          1           0       -1.337829    1.223837    0.658246
     32          1           0       -2.233081    3.451796    1.414155
     33          1           0       -2.471559    3.924987   -0.274666
     34          1           0       -0.833747    3.661350    0.347731
 ---------------------------------------------------------------------

 SCF Done:  E(RHF) =  -669.535068241     A.U. after   15 cycles
 E2 =    -0.2092154957D+01 EUMP2 =    -0.67162722319734D+03

 The electronic state is 1-A.
 Alpha  occ. eigenvalues --  -20.60761 -20.60756 -15.85815 -11.31179 -11.27752
 Alpha  occ. eigenvalues --  -11.27746 -11.27497 -11.26768 -11.26754 -11.22174
 Alpha  occ. eigenvalues --  -11.22139 -11.22005 -11.21920 -11.21611 -11.21489
 Alpha  occ. eigenvalues --   -1.59837  -1.39390  -1.19356  -1.09004  -1.08750
 Alpha  occ. eigenvalues --   -1.04766  -1.04066  -0.96505  -0.95584  -0.87517
 Alpha  occ. eigenvalues --   -0.86161  -0.82429  -0.80136  -0.78830  -0.77458
 Alpha  occ. eigenvalues --   -0.72034  -0.71159  -0.70463  -0.65685  -0.65010
 Alpha  occ. eigenvalues --   -0.64756  -0.62173  -0.61424  -0.59862  -0.58115
 Alpha  occ. eigenvalues --   -0.55797  -0.55262  -0.53206  -0.53072  -0.52961
 Alpha  occ. eigenvalues --   -0.52829  -0.50446  -0.48796  -0.48788  -0.48436
 Alpha  occ. eigenvalues --   -0.47175  -0.46351  -0.46283  -0.44795  -0.44323
 Alpha  occ. eigenvalues --   -0.37332  -0.36321
 Alpha virt. eigenvalues --    0.05053   0.11220   0.16439   0.19750   0.22767
 Alpha virt. eigenvalues --    0.23554   0.25258   0.26396   0.26639   0.28456
 Alpha virt. eigenvalues --    0.29175   0.29877   0.31219   0.31379   0.32289

 Mulliken charges:
               1
     1  C   -0.171506
     2  C   -0.218662
     3  C   -0.170885
     4  C    0.157831
     5  C   -0.169419
     6  C   -0.217287
     7  H    0.225483
     8  H    0.223464
     9  H    0.275590
    10  H    0.276196
    11  H    0.223863
    12  N    0.488132
    13  O   -0.460524
    14  O   -0.460469
    15  C   -0.296527
    16  C   -0.300138
    17  C   -0.475335
    18  H    0.152885
    19  H    0.140730
    20  H    0.154571
    21  H    0.151857
    22  H    0.151418
    23  H    0.156630
    24  H    0.162212
    25  C   -0.298974
    26  C   -0.302559
    27  C   -0.477750
    28  H    0.153023
    29  H    0.148712
    30  H    0.157637
    31  H    0.142641
    32  H    0.154109
    33  H    0.159003
    34  H    0.164050
 Sum of Mulliken charges =  -0.00000

 Dipole moment (field-independent basis, Debye):
    X=             -3.5763    Y=             -3.3461    Z=              1.7322  Tot=              5.1949
 Quadrupole moment (field-independent basis, Debye-Ang):
   XX=           -113.7567   YY=            -91.0465   ZZ=            -93.5917
   XY=            -11.5141   XZ=              4.3043   YZ=              0.5154

 Normal termination of Gaussian 16 at Thu May  6 14:07:53 2021.
