 Gaussian 16, Revision A.03,
 Gaussian 16:  EM64L-G16RevA.03 25-Dec-2016

 -------------
 #p 6-31g* mp2
 -------------

 ------------------------------------------------------
 Input file generated by CHIRIPA (05-May-2021 14:55:20)
 ------------------------------------------------------
 Symbolic Z-matrix:
 Charge =  0 Multiplicity = 1

                         Standard orientation:
 ---------------------------------------------------------------------
 Center     Atomic      Atomic             Coordinates (Angstroms)
 Number     Number       Type             X           Y           Z
 ---------------------------------------------------------------------
      1          6           0       -3.958047    2.494878   -0.102981
      2          6           0       -5.046497    1.679714   -0.430553
      3          6           0       -4.927089    0.287252   -0.393969
      4          6           0       -3.699075   -0.258837   -0.023754
      5          6           0       -2.596288    0.526651    0.308150
      6          6           0       -2.738566    1.916764    0.264677
      7          1           0       -4.059689    3.575664   -0.134076
      8          1           0       -5.994766    2.125919   -0.716442
      9          1           0       -5.753552   -0.367364   -0.642679
     10          1           0       -1.663692    0.052710    0.589330
     11          1           0       -1.891565    2.547364    0.519586
     12          7           0       -3.560558   -1.731731    0.018622
     13          8           0       -2.467967   -2.188233    0.347997
     14          8           0       -4.547202   -2.401794   -0.278341
     15          6           0        5.375795   -0.164268   -0.379000
     16          6           0        6.692304    0.331996    0.219756
     17          6           0        7.907041   -0.045582   -0.628562
     18          1           0        5.420477   -1.256086   -0.492494
     19          1           0        5.261405    0.250658   -1.390013
     20          1           0        6.803515   -0.082632    1.229871
     21          1           0        6.644410    1.422739    0.332016
     22          1           0        7.822807    0.380918   -1.633351
     23          1           0        7.982816   -1.133006   -0.730395
     24          1           0        8.837444    0.319010   -0.182149
     25          6           0        4.152281    0.205448    0.457691
     26          6           0        2.835772   -0.290815   -0.141066
     27          6           0        1.621035    0.086762    0.707252
     28          1           0        4.266671   -0.209477    1.468703
     29          1           0        4.107598    1.297267    0.571185
     30          1           0        2.883666   -1.381558   -0.253325
     31          1           0        2.724561    0.123813   -1.151180
     32          1           0        1.545260    1.174186    0.809085
     33          1           0        1.705269   -0.339738    1.712042
     34          1           0        0.690632   -0.277829    0.260841
 ---------------------------------------------------------------------

 SCF Done:  E(RHF) =  -669.535674302     A.U. after   15 cycles
 E2 =    -0.2090849849D+01 EUMP2 =    -0.67162652415101D+03

 The electronic state is 1-A.
 Alpha  occ. eigenvalues --  -20.60743 -20.60738 -15.85793 -11.31139 -11.27717
 Alpha  occ. eigenvalues --  -11.27676 -11.27462 -11.26735 -11.26713 -11.21765
 Alpha  occ. eigenvalues --  -11.21666 -11.21522 -11.21462 -11.21437 -11.21109
 Alpha  occ. eigenvalues --   -1.59817  -1.39371  -1.19316  -1.08717  -1.08547
 Alpha  occ. eigenvalues --   -1.04716  -1.03675  -0.96150  -0.95552  -0.87178
 Alpha  occ. eigenvalues --   -0.86116  -0.82383  -0.79741  -0.78347  -0.77432
 Alpha  occ. eigenvalues --   -0.72014  -0.71139  -0.70436  -0.65172  -0.64969
 Alpha  occ. eigenvalues --   -0.64731  -0.62102  -0.61065  -0.59500  -0.57741
 Alpha  occ. eigenvalues --   -0.55432  -0.55230  -0.53078  -0.53028  -0.52653
 Alpha  occ. eigenvalues --   -0.52507  -0.50083  -0.48771  -0.48769  -0.48053
 Alpha  occ. eigenvalues --   -0.46753  -0.45896  -0.45807  -0.44780  -0.43928
 Alpha  occ. eigenvalues --   -0.37304  -0.36317
 Alpha virt. eigenvalues --    0.05088   0.11314   0.16593   0.20660   0.22825
 Alpha virt. eigenvalues --    0.24010   0.26005   0.26500   0.27233   0.27865
 Alpha virt. eigenvalues --    0.28916   0.29804   0.31467   0.31594   0.31976

 Mulliken charges:
               1
     1  C   -0.170664
     2  C   -0.218919
     3  C   -0.170296
     4  C    0.158176
     5  C   -0.179265
     6  C   -0.221930
     7  H    0.225374
     8  H    0.223239
     9  H    0.275424
    10  H    0.288205
    11  H    0.224087
    12  N    0.487121
    13  O   -0.461272
    14  O   -0.460397
    15  C   -0.298575
    16  C   -0.299693
    17  C   -0.475812
    18  H    0.151562
    19  H    0.149393
    20  H    0.152446
    21  H    0.151063
    22  H    0.155065
    23  H    0.156086
    24  H    0.160313
    25  C   -0.298996
    26  C   -0.298588
    27  C   -0.483942
    28  H    0.150748
    29  H    0.147617
    30  H    0.158225
    31  H    0.151775
    32  H    0.147890
    33  H    0.160533
    34  H    0.164004
 Sum of Mulliken charges =  -0.00000

 Dipole moment (field-independent basis, Debye):
    X=             -0.3823    Y=              5.1221    Z=             -0.1535  Tot=              5.1386
 Quadrupole moment (field-independent basis, Debye-Ang):
   XX=            -87.3403   YY=            -97.3133   ZZ=            -95.1699
   XY=            -18.9095   XZ=              2.7041   YZ=             -0.5293

 Normal termination of Gaussian 16 at Thu May  6 02:57:11 2021.
