 Gaussian 16, Revision A.03,
 Gaussian 16:  EM64L-G16RevA.03 25-Dec-2016

 -------------
 #p 6-31g* mp2
 -------------

 ------------------------------------------------------
 Input file generated by CHIRIPA (05-May-2021 14:57:26)
 ------------------------------------------------------
 Symbolic Z-matrix:
 Charge =  0 Multiplicity = 1

                         Standard orientation:
 ---------------------------------------------------------------------
 Center     Atomic      Atomic             Coordinates (Angstroms)
 Number     Number       Type             X           Y           Z
 ---------------------------------------------------------------------
      1          6           0       -2.089954   -1.518019    0.188211
      2          6           0       -2.055674   -0.367393   -0.606398
      3          6           0       -3.175184    0.464827   -0.699443
      4          6           0       -4.317475    0.114690    0.018794
      5          6           0       -4.382635   -1.024954    0.818954
      6          6           0       -3.251278   -1.842556    0.897102
      7          1           0       -1.215691   -2.158830    0.254705
      8          1           0       -1.155141   -0.112875   -1.158037
      9          1           0       -3.176004    1.361563   -1.307128
     10          1           0       -5.294720   -1.252557    1.357207
     11          1           0       -3.280768   -2.735523    1.514989
     12          7           0       -5.508921    0.987986   -0.071823
     13          8           0       -6.503133    0.657469    0.570780
     14          8           0       -5.426004    1.986456   -0.783736
     15          6           0        5.721755    1.893901    0.538022
     16          6           0        6.197438    0.588840    0.373513
     17          6           0        5.319659   -0.452146    0.056655
     18          6           0        3.966366   -0.151029   -0.089004
     19          6           0        3.461902    1.138928    0.068540
     20          6           0        4.357910    2.164302    0.385280
     21          1           0        6.410715    2.696501    0.784119
     22          1           0        7.256106    0.375910    0.491531
     23          1           0        5.660979   -1.471576   -0.076316
     24          1           0        2.401170    1.320283   -0.055463
     25          1           0        3.985664    3.176876    0.512452
     26          7           0        3.027451   -1.244811   -0.424385
     27          8           0        1.839757   -0.953435   -0.547344
     28          8           0        3.497003   -2.372782   -0.557946
 ---------------------------------------------------------------------

 SCF Done:  E(RHF) =  -868.340688370     A.U. after   16 cycles
 E2 =    -0.2598232225D+01 EUMP2 =    -0.87093892059507D+03

 The electronic state is 1-A.
 Alpha  occ. eigenvalues --  -20.61905 -20.61847 -20.60176 -20.60171 -15.86911
 Alpha  occ. eigenvalues --  -15.85221 -11.31953 -11.30372 -11.28498 -11.28465
 Alpha  occ. eigenvalues --  -11.28150 -11.27418 -11.27407 -11.26942 -11.26898
 Alpha  occ. eigenvalues --  -11.26409 -11.25858 -11.25698  -1.60934  -1.59257
 Alpha  occ. eigenvalues --   -1.40501  -1.38817  -1.20091  -1.18500  -1.09542
 Alpha  occ. eigenvalues --   -1.07888  -1.05446  -1.03875  -0.96434  -0.94770
 Alpha  occ. eigenvalues --   -0.86859  -0.85247  -0.83284  -0.81624  -0.78366
 Alpha  occ. eigenvalues --   -0.76737  -0.73159  -0.72230  -0.71442  -0.71193
 Alpha  occ. eigenvalues --   -0.70580  -0.69493  -0.65750  -0.65442  -0.64123
 Alpha  occ. eigenvalues --   -0.63817  -0.62800  -0.61224  -0.55950  -0.54221
 Alpha  occ. eigenvalues --   -0.53790  -0.53532  -0.52219  -0.51928  -0.49914
 Alpha  occ. eigenvalues --   -0.49855  -0.48213  -0.48175  -0.45973  -0.44272
 Alpha  occ. eigenvalues --   -0.38046  -0.37034  -0.36410  -0.35505
 Alpha virt. eigenvalues --    0.04145   0.05790   0.10626   0.12168   0.15707
 Alpha virt. eigenvalues --    0.17366   0.20682   0.22457   0.26574   0.27212
 Alpha virt. eigenvalues --    0.28506   0.29374   0.30448   0.31542   0.32549

 Mulliken charges:
               1
     1  C   -0.173719
     2  C   -0.223672
     3  C   -0.173824
     4  C    0.157514
     5  C   -0.172552
     6  C   -0.219975
     7  H    0.241448
     8  H    0.235707
     9  H    0.271216
    10  H    0.272358
    11  H    0.221247
    12  N    0.488256
    13  O   -0.462842
    14  O   -0.463484
    15  C   -0.169637
    16  C   -0.218439
    17  C   -0.170344
    18  C    0.157733
    19  C   -0.170040
    20  C   -0.218326
    21  H    0.228539
    22  H    0.225897
    23  H    0.276574
    24  H    0.272838
    25  H    0.226245
    26  N    0.493127
    27  O   -0.476053
    28  O   -0.455791
 Sum of Mulliken charges =  -0.00000

 Dipole moment (field-independent basis, Debye):
    X=              8.1612    Y=              0.7116    Z=              1.5081  Tot=              8.3298
 Quadrupole moment (field-independent basis, Debye-Ang):
   XX=           -111.6208   YY=           -103.1747   ZZ=           -104.5774
   XY=             28.1777   XZ=              1.5925   YZ=             -2.5622

 Normal termination of Gaussian 16 at Fri May  7 00:28:39 2021.
