 Gaussian 16, Revision A.03,
 Gaussian 16:  EM64L-G16RevA.03 25-Dec-2016

 -------------
 #p 6-31g* mp2
 -------------

 ------------------------------------------------------
 Input file generated by CHIRIPA (05-May-2021 14:55:24)
 ------------------------------------------------------
 Symbolic Z-matrix:
 Charge =  0 Multiplicity = 1

                         Standard orientation:
 ---------------------------------------------------------------------
 Center     Atomic      Atomic             Coordinates (Angstroms)
 Number     Number       Type             X           Y           Z
 ---------------------------------------------------------------------
      1          6           0       -1.943230    1.354062    1.993531
      2          6           0       -3.050708    0.532817    2.229264
      3          6           0       -3.579111   -0.258031    1.204619
      4          6           0       -2.972461   -0.202847   -0.049263
      5          6           0       -1.868119    0.605190   -0.315339
      6          6           0       -1.356505    1.387568    0.724220
      7          1           0       -1.539274    1.965122    2.795293
      8          1           0       -3.508408    0.504779    3.214033
      9          1           0       -4.435659   -0.902803    1.359578
     10          1           0       -1.433380    0.611894   -1.307496
     11          1           0       -0.496336    2.024416    0.538260
     12          7           0       -3.522971   -1.035599   -1.141903
     13          8           0       -2.970343   -0.969044   -2.237718
     14          8           0       -4.496664   -1.739097   -0.881810
     15          6           0        3.643891    0.651773   -0.676395
     16          6           0        2.564175    1.681690   -0.342523
     17          6           0        2.486934    2.811414   -1.369924
     18          1           0        4.616892    1.157786   -0.740930
     19          1           0        3.443961    0.230687   -1.671437
     20          1           0        2.765304    2.099702    0.652178
     21          1           0        1.593659    1.173135   -0.278586
     22          1           0        2.262999    2.412814   -2.364696
     23          1           0        3.441301    3.344646   -1.428644
     24          1           0        1.708619    3.536296   -1.111796
     25          6           0        3.733337   -0.483839    0.341502
     26          6           0        4.813053   -1.513755    0.007630
     27          6           0        4.890294   -2.643479    1.035031
     28          1           0        3.933267   -0.062753    1.336544
     29          1           0        2.760337   -0.989852    0.406037
     30          1           0        5.783569   -1.005200   -0.056307
     31          1           0        4.611924   -1.931769   -0.987071
     32          1           0        3.935928   -3.176712    1.093752
     33          1           0        5.114230   -2.244880    2.029804
     34          1           0        5.668609   -3.368362    0.776903
 ---------------------------------------------------------------------

 SCF Done:  E(RHF) =  -669.535459922     A.U. after   15 cycles
 E2 =    -0.2091512571D+01 EUMP2 =    -0.67162697249295D+03

 The electronic state is 1-A.
 Alpha  occ. eigenvalues --  -20.60765 -20.60760 -15.85818 -11.31180 -11.27750
 Alpha  occ. eigenvalues --  -11.27742 -11.27476 -11.26764 -11.26708 -11.22439
 Alpha  occ. eigenvalues --  -11.21932 -11.21890 -11.21866 -11.21778 -11.21293
 Alpha  occ. eigenvalues --   -1.59841  -1.39394  -1.19350  -1.08954  -1.08742
 Alpha  occ. eigenvalues --   -1.04755  -1.04068  -0.96492  -0.95580  -0.87505
 Alpha  occ. eigenvalues --   -0.86148  -0.82419  -0.80167  -0.78744  -0.77456
 Alpha  occ. eigenvalues --   -0.72036  -0.71164  -0.70456  -0.65604  -0.64998
 Alpha  occ. eigenvalues --   -0.64753  -0.62166  -0.61412  -0.59885  -0.58107
 Alpha  occ. eigenvalues --   -0.55757  -0.55244  -0.53215  -0.53087  -0.52908
 Alpha  occ. eigenvalues --   -0.52836  -0.50419  -0.48801  -0.48792  -0.48447
 Alpha  occ. eigenvalues --   -0.47183  -0.46274  -0.46174  -0.44801  -0.44304
 Alpha  occ. eigenvalues --   -0.37326  -0.36341
 Alpha virt. eigenvalues --    0.05049   0.11283   0.16445   0.19968   0.22634
 Alpha virt. eigenvalues --    0.23694   0.25888   0.26060   0.27057   0.28220
 Alpha virt. eigenvalues --    0.28970   0.29849   0.30965   0.31470   0.32182

 Mulliken charges:
               1
     1  C   -0.172150
     2  C   -0.218426
     3  C   -0.171074
     4  C    0.158628
     5  C   -0.173441
     6  C   -0.221758
     7  H    0.225939
     8  H    0.223385
     9  H    0.275567
    10  H    0.275504
    11  H    0.231628
    12  N    0.488123
    13  O   -0.460600
    14  O   -0.460459
    15  C   -0.298164
    16  C   -0.306235
    17  C   -0.478088
    18  H    0.151648
    19  H    0.153142
    20  H    0.150638
    21  H    0.147760
    22  H    0.159691
    23  H    0.160133
    24  H    0.155255
    25  C   -0.299245
    26  C   -0.300287
    27  C   -0.476160
    28  H    0.148271
    29  H    0.151524
    30  H    0.152203
    31  H    0.154245
    32  H    0.156619
    33  H    0.154411
    34  H    0.161774
 Sum of Mulliken charges =  -0.00000

 Dipole moment (field-independent basis, Debye):
    X=              2.0809    Y=              2.8868    Z=              3.8262  Tot=              5.2253
 Quadrupole moment (field-independent basis, Debye-Ang):
   XX=           -103.2745   YY=            -96.4816   ZZ=            -93.6296
   XY=             -7.2709   XZ=            -14.1587   YZ=             -1.3104

 Normal termination of Gaussian 16 at Thu May  6 15:59:54 2021.
