 Gaussian 16, Revision A.03,
 Gaussian 16:  EM64L-G16RevA.03 25-Dec-2016

 -------------
 #p 6-31g* mp2
 -------------

 ------------------------------------------------------
 Input file generated by CHIRIPA (05-May-2021 14:51:07)
 ------------------------------------------------------
 Symbolic Z-matrix:
 Charge =  0 Multiplicity = 1

                         Standard orientation:
 ---------------------------------------------------------------------
 Center     Atomic      Atomic             Coordinates (Angstroms)
 Number     Number       Type             X           Y           Z
 ---------------------------------------------------------------------
      1          6           0        2.433328    0.095776   -0.248598
      2          6           0        2.772205    1.584110   -0.338090
      3          6           0        3.431046    1.961625   -1.665193
      4          1           0        3.351792   -0.491664   -0.383816
      5          1           0        1.765982   -0.171803   -1.079529
      6          1           0        3.437604    1.849101    0.493558
      7          1           0        1.852858    2.168079   -0.202452
      8          1           0        2.769341    1.725279   -2.504769
      9          1           0        4.363092    1.404488   -1.804804
     10          1           0        3.664789    3.029994   -1.707774
     11          6           0        1.774114   -0.297089    1.072319
     12          6           0        1.435238   -1.785423    1.161810
     13          6           0        0.776397   -2.162938    2.488914
     14          1           0        2.441461   -0.029510    1.903249
     15          1           0        0.855650    0.290351    1.207537
     16          1           0        2.354585   -2.369392    1.026173
     17          1           0        0.769838   -2.050414    0.330162
     18          1           0       -0.155649   -1.605802    2.628524
     19          1           0        1.438102   -1.926592    3.328489
     20          1           0        0.542654   -3.231307    2.531495
     21          6           0       -1.617831   -0.465869   -0.574318
     22          6           0       -2.178207   -1.477057   -1.575048
     23          6           0       -1.194511   -2.604425   -1.889974
     24          1           0       -0.686928   -0.041102   -0.974239
     25          1           0       -1.349192   -0.989256    0.353741
     26          1           0       -2.446997   -0.951694   -2.500446
     27          1           0       -3.107985   -1.899325   -1.172783
     28          1           0       -0.934347   -3.154184   -0.979656
     29          1           0       -0.269602   -2.201170   -2.314863
     30          1           0       -1.615458   -3.315824   -2.607313
     31          6           0       -2.589612    0.667181   -0.249404
     32          6           0       -2.029236    1.678370    0.751327
     33          6           0       -3.012931    2.805738    1.066254
     34          1           0       -2.858252    1.190569   -1.177463
     35          1           0       -3.520515    0.242415    0.150518
     36          1           0       -1.099457    2.100637    0.349062
     37          1           0       -1.760446    1.153008    1.676726
     38          1           0       -3.937840    2.402482    1.491142
     39          1           0       -3.273096    3.355497    0.155935
     40          1           0       -2.591985    3.517138    1.783592
 ---------------------------------------------------------------------

 SCF Done:  E(RHF) =  -470.730573313     A.U. after   11 cycles
 E2 =    -0.1587897184D+01 EUMP2 =    -0.47231847049721D+03

 The electronic state is 1-A.
 Alpha  occ. eigenvalues --  -11.21721 -11.21684 -11.21593 -11.21477 -11.21403
 Alpha  occ. eigenvalues --  -11.21382 -11.21321 -11.21182 -11.21161 -11.21147
 Alpha  occ. eigenvalues --  -11.21079 -11.21052  -1.08619  -1.08282  -1.03657
 Alpha  occ. eigenvalues --   -1.03463  -0.96085  -0.95934  -0.87099  -0.86954
 Alpha  occ. eigenvalues --   -0.79774  -0.79507  -0.78431  -0.78143  -0.65211
 Alpha  occ. eigenvalues --   -0.65004  -0.61134  -0.60837  -0.59479  -0.59259
 Alpha  occ. eigenvalues --   -0.57731  -0.57517  -0.55474  -0.55148  -0.52769
 Alpha  occ. eigenvalues --   -0.52635  -0.52519  -0.52362  -0.50030  -0.49904
 Alpha  occ. eigenvalues --   -0.48213  -0.47845  -0.46935  -0.46418  -0.46340
 Alpha  occ. eigenvalues --   -0.45715  -0.45477  -0.45034  -0.43870  -0.43704
 Alpha virt. eigenvalues --    0.20012   0.21994   0.22360   0.23829   0.25269
 Alpha virt. eigenvalues --    0.26493   0.26738   0.27537   0.28840   0.30274
 Alpha virt. eigenvalues --    0.31012   0.31327   0.31525   0.31776   0.32298

 Mulliken charges:
               1
     1  C   -0.301870
     2  C   -0.302142
     3  C   -0.475436
     4  H    0.150013
     5  H    0.150881
     6  H    0.152499
     7  H    0.152753
     8  H    0.154300
     9  H    0.155488
    10  H    0.160190
    11  C   -0.304349
    12  C   -0.310587
    13  C   -0.478084
    14  H    0.148804
    15  H    0.158568
    16  H    0.151744
    17  H    0.164337
    18  H    0.154256
    19  H    0.155786
    20  H    0.159494
    21  C   -0.311601
    22  C   -0.298201
    23  C   -0.480880
    24  H    0.155554
    25  H    0.157393
    26  H    0.151922
    27  H    0.152178
    28  H    0.157912
    29  H    0.156170
    30  H    0.161582
    31  C   -0.296695
    32  C   -0.304891
    33  C   -0.475527
    34  H    0.149531
    35  H    0.149884
    36  H    0.154209
    37  H    0.152880
    38  H    0.155580
    39  H    0.155508
    40  H    0.160845
 Sum of Mulliken charges =  -0.00000

 Dipole moment (field-independent basis, Debye):
    X=             -0.0675    Y=             -0.0024    Z=             -0.0247  Tot=              0.0719
 Quadrupole moment (field-independent basis, Debye-Ang):
   XX=            -84.4361   YY=            -85.3822   ZZ=            -85.0497
   XY=              0.3867   XZ=              0.6745   YZ=             -0.2852

 Normal termination of Gaussian 16 at Thu May  6 06:51:34 2021.
