 Gaussian 16, Revision A.03,
 Gaussian 16:  EM64L-G16RevA.03 25-Dec-2016

 -------------
 #p 6-31g* mp2
 -------------

 ------------------------------------------------------
 Input file generated by CHIRIPA (05-May-2021 14:57:22)
 ------------------------------------------------------
 Symbolic Z-matrix:
 Charge =  0 Multiplicity = 1

                         Standard orientation:
 ---------------------------------------------------------------------
 Center     Atomic      Atomic             Coordinates (Angstroms)
 Number     Number       Type             X           Y           Z
 ---------------------------------------------------------------------
      1          6           0        2.986491    2.602440    0.171535
      2          6           0        2.449782    1.803274   -0.843255
      3          6           0        2.733895    0.435371   -0.894927
      4          6           0        3.562205   -0.102738    0.088755
      5          6           0        4.112126    0.667258    1.112465
      6          6           0        3.814490    2.032886    1.144441
      7          1           0        2.760533    3.664176    0.204025
      8          1           0        1.806437    2.242883   -1.600154
      9          1           0        2.331791   -0.206463   -1.669381
     10          1           0        4.750175    0.200429    1.852994
     11          1           0        4.232710    2.651103    1.933710
     12          7           0        3.870141   -1.549671    0.044478
     13          8           0        4.602644   -1.999596    0.922911
     14          8           0        3.373167   -2.206455   -0.867821
     15          6           0       -1.215059   -0.400395   -1.107215
     16          6           0       -1.812241   -1.472574   -0.436151
     17          6           0       -3.084243   -1.337281    0.127989
     18          6           0       -3.733461   -0.110148    0.001703
     19          6           0       -3.164891    0.976636   -0.660807
     20          6           0       -1.892096    0.818640   -1.217207
     21          1           0       -0.226629   -0.514311   -1.542446
     22          1           0       -1.288788   -2.420455   -0.349185
     23          1           0       -3.569869   -2.150964    0.652875
     24          1           0       -3.711381    1.909270   -0.731225
     25          1           0       -1.430761    1.653023   -1.737801
     26          7           0       -5.080492    0.045098    0.594836
     27          8           0       -5.631612    1.136555    0.469839
     28          8           0       -5.559669   -0.927618    1.173498
 ---------------------------------------------------------------------

 SCF Done:  E(RHF) =  -868.337091585     A.U. after   16 cycles
 E2 =    -0.2600231902D+01 EUMP2 =    -0.87093732348629D+03

 The electronic state is 1-A.
 Alpha  occ. eigenvalues --  -20.61643 -20.61605 -20.60900 -20.60889 -15.86682
 Alpha  occ. eigenvalues --  -15.85952 -11.32092 -11.31349 -11.28773 -11.28587
 Alpha  occ. eigenvalues --  -11.28352 -11.27969 -11.27874 -11.27759 -11.27709
 Alpha  occ. eigenvalues --  -11.27590 -11.27055 -11.26858  -1.60700  -1.59972
 Alpha  occ. eigenvalues --   -1.40255  -1.39524  -1.20256  -1.19530  -1.09627
 Alpha  occ. eigenvalues --   -1.08927  -1.05684  -1.04937  -0.96467  -0.95755
 Alpha  occ. eigenvalues --   -0.87071  -0.86338  -0.83310  -0.82586  -0.78369
 Alpha  occ. eigenvalues --   -0.77618  -0.72898  -0.72170  -0.72025  -0.71399
 Alpha  occ. eigenvalues --   -0.71295  -0.70640  -0.65912  -0.65690  -0.65187
 Alpha  occ. eigenvalues --   -0.64955  -0.63047  -0.62281  -0.56153  -0.55491
 Alpha  occ. eigenvalues --   -0.53964  -0.53758  -0.53255  -0.53032  -0.49666
 Alpha  occ. eigenvalues --   -0.49645  -0.48931  -0.48922  -0.45653  -0.44923
 Alpha  occ. eigenvalues --   -0.38196  -0.37629  -0.37159  -0.36533
 Alpha virt. eigenvalues --    0.04136   0.04938   0.10300   0.11128   0.15611
 Alpha virt. eigenvalues --    0.16418   0.18391   0.22156   0.24939   0.25318
 Alpha virt. eigenvalues --    0.27782   0.29177   0.30399   0.31083   0.33045

 Mulliken charges:
               1
     1  C   -0.169525
     2  C   -0.216895
     3  C   -0.176338
     4  C    0.160566
     5  C   -0.169620
     6  C   -0.217212
     7  H    0.228718
     8  H    0.218993
     9  H    0.269422
    10  H    0.278575
    11  H    0.227458
    12  N    0.488048
    13  O   -0.455853
    14  O   -0.464341
    15  C   -0.169254
    16  C   -0.220443
    17  C   -0.170428
    18  C    0.158600
    19  C   -0.170919
    20  C   -0.219292
    21  H    0.223136
    22  H    0.231451
    23  H    0.277414
    24  H    0.274679
    25  H    0.215224
    26  N    0.487996
    27  O   -0.461160
    28  O   -0.459001
 Sum of Mulliken charges =  -0.00000

 Dipole moment (field-independent basis, Debye):
    X=              3.8443    Y=              4.5160    Z=             -1.6821  Tot=              6.1646
 Quadrupole moment (field-independent basis, Debye-Ang):
   XX=           -146.6901   YY=           -101.4601   ZZ=           -102.0413
   XY=             20.6276   XZ=             11.5283   YZ=             -0.4767

 Normal termination of Gaussian 16 at Thu May  6 00:11:25 2021.
