 Gaussian 16, Revision A.03,
 Gaussian 16:  EM64L-G16RevA.03 25-Dec-2016

 -------------
 #p 6-31g* mp2
 -------------

 ------------------------------------------------------
 Input file generated by CHIRIPA (05-May-2021 14:55:24)
 ------------------------------------------------------
 Symbolic Z-matrix:
 Charge =  0 Multiplicity = 1

                         Standard orientation:
 ---------------------------------------------------------------------
 Center     Atomic      Atomic             Coordinates (Angstroms)
 Number     Number       Type             X           Y           Z
 ---------------------------------------------------------------------
      1          6           0        1.344843    2.519942    1.086220
      2          6           0        1.312063    1.285989    1.744101
      3          6           0        1.890227    0.154703    1.160606
      4          6           0        2.495529    0.293993   -0.087391
      5          6           0        2.544409    1.509655   -0.767881
      6          6           0        1.959827    2.627647   -0.165464
      7          1           0        0.893218    3.393588    1.546843
      8          1           0        0.835145    1.199386    2.716260
      9          1           0        1.879164   -0.812720    1.647832
     10          1           0        3.027059    1.564817   -1.736089
     11          1           0        1.986784    3.584678   -0.678698
     12          7           0        3.111002   -0.896612   -0.715127
     13          8           0        3.638167   -0.747582   -1.815365
     14          8           0        3.054592   -1.956293   -0.095022
     15          6           0       -3.310467    0.064192   -0.231494
     16          6           0       -4.824481    0.133576   -0.433809
     17          6           0       -5.301434    1.523686   -0.855597
     18          1           0       -3.014233    0.801025    0.527629
     19          1           0       -2.809091    0.357522   -1.164217
     20          1           0       -5.322856   -0.161132    0.498600
     21          1           0       -5.117170   -0.603642   -1.192399
     22          1           0       -4.830996    1.822935   -1.797796
     23          1           0       -5.037852    2.267960   -0.097189
     24          1           0       -6.386693    1.550703   -0.994674
     25          6           0       -2.818407   -1.319153    0.190361
     26          6           0       -1.304393   -1.388537    0.392677
     27          6           0       -0.827440   -2.778647    0.814464
     28          1           0       -3.319783   -1.612484    1.123086
     29          1           0       -3.114641   -2.055988   -0.568760
     30          1           0       -1.011704   -0.651319    1.151267
     31          1           0       -0.806017   -1.093831   -0.539731
     32          1           0       -1.091023   -3.522922    0.056057
     33          1           0       -1.297877   -3.077896    1.756664
     34          1           0        0.257819   -2.805664    0.953541
 ---------------------------------------------------------------------

 SCF Done:  E(RHF) =  -669.535059296     A.U. after   15 cycles
 E2 =    -0.2093645752D+01 EUMP2 =    -0.67162870504880D+03

 The electronic state is 1-A.
 Alpha  occ. eigenvalues --  -20.60865 -20.60860 -15.85901 -11.31212 -11.27798
 Alpha  occ. eigenvalues --  -11.27789 -11.27537 -11.26790 -11.26780 -11.21763
 Alpha  occ. eigenvalues --  -11.21571 -11.21542 -11.21415 -11.21287 -11.20853
 Alpha  occ. eigenvalues --   -1.59927  -1.39483  -1.19400  -1.08800  -1.08523
 Alpha  occ. eigenvalues --   -1.04808  -1.03590  -0.96040  -0.95636  -0.87042
 Alpha  occ. eigenvalues --   -0.86200  -0.82482  -0.79663  -0.78352  -0.77529
 Alpha  occ. eigenvalues --   -0.72123  -0.71243  -0.70517  -0.65180  -0.65041
 Alpha  occ. eigenvalues --   -0.64812  -0.62188  -0.60991  -0.59396  -0.57656
 Alpha  occ. eigenvalues --   -0.55334  -0.55292  -0.53143  -0.52946  -0.52651
 Alpha  occ. eigenvalues --   -0.52421  -0.49977  -0.48884  -0.48875  -0.47955
 Alpha  occ. eigenvalues --   -0.46715  -0.45880  -0.45815  -0.44888  -0.43826
 Alpha  occ. eigenvalues --   -0.37369  -0.36305
 Alpha virt. eigenvalues --    0.04970   0.11169   0.16382   0.20799   0.22846
 Alpha virt. eigenvalues --    0.24037   0.26335   0.26698   0.27178   0.27933
 Alpha virt. eigenvalues --    0.28863   0.29984   0.31470   0.31609   0.31831

 Mulliken charges:
               1
     1  C   -0.170449
     2  C   -0.219142
     3  C   -0.165013
     4  C    0.157259
     5  C   -0.171158
     6  C   -0.218658
     7  H    0.225779
     8  H    0.223361
     9  H    0.277699
    10  H    0.275581
    11  H    0.223532
    12  N    0.488511
    13  O   -0.459559
    14  O   -0.461604
    15  C   -0.296953
    16  C   -0.299661
    17  C   -0.475418
    18  H    0.144860
    19  H    0.150316
    20  H    0.151570
    21  H    0.153588
    22  H    0.155257
    23  H    0.152672
    24  H    0.160949
    25  C   -0.298183
    26  C   -0.300899
    27  C   -0.484985
    28  H    0.147945
    29  H    0.151736
    30  H    0.145045
    31  H    0.153517
    32  H    0.159565
    33  H    0.150794
    34  H    0.172144
 Sum of Mulliken charges =  -0.00000

 Dipole moment (field-independent basis, Debye):
    X=             -2.0730    Y=              4.1666    Z=              2.1430  Tot=              5.1235
 Quadrupole moment (field-independent basis, Debye-Ang):
   XX=           -106.4084   YY=            -91.8518   ZZ=            -91.4957
   XY=             11.2225   XZ=              4.4000   YZ=             -1.5215

 Normal termination of Gaussian 16 at Wed May  5 22:23:22 2021.
