 Gaussian 16, Revision A.03,
 Gaussian 16:  EM64L-G16RevA.03 25-Dec-2016

 -------------
 #p 6-31g* mp2
 -------------

 ------------------------------------------------------
 Input file generated by CHIRIPA (05-May-2021 14:57:26)
 ------------------------------------------------------
 Symbolic Z-matrix:
 Charge =  0 Multiplicity = 1

                         Standard orientation:
 ---------------------------------------------------------------------
 Center     Atomic      Atomic             Coordinates (Angstroms)
 Number     Number       Type             X           Y           Z
 ---------------------------------------------------------------------
      1          6           0        2.138255    1.964123    1.827242
      2          6           0        2.756031    2.213986    0.597429
      3          6           0        2.990154    1.171574   -0.304299
      4          6           0        2.591779   -0.114290    0.057834
      5          6           0        1.974099   -0.395125    1.275575
      6          6           0        1.749945    0.662659    2.161801
      7          1           0        1.960254    2.779864    2.521705
      8          1           0        3.058660    3.223719    0.334942
      9          1           0        3.466498    1.336871   -1.263044
     10          1           0        1.683623   -1.412218    1.509164
     11          1           0        1.269970    0.465663    3.116192
     12          7           0        2.834358   -1.225982   -0.888578
     13          8           0        2.473932   -2.349930   -0.545839
     14          8           0        3.380323   -0.952327   -1.955195
     15          6           0       -2.504937   -2.361871    0.837922
     16          6           0       -3.552518   -1.480896    1.125979
     17          6           0       -3.588736   -0.207986    0.548973
     18          6           0       -2.556329    0.152744   -0.315492
     19          6           0       -1.499071   -0.702485   -0.622218
     20          6           0       -1.483358   -1.970544   -0.033720
     21          1           0       -2.484766   -3.348813    1.290618
     22          1           0       -4.347239   -1.782108    1.802540
     23          1           0       -4.387803    0.493897    0.754571
     24          1           0       -0.721066   -0.373803   -1.300519
     25          1           0       -0.668541   -2.652638   -0.259253
     26          7           0       -2.583818    1.497748   -0.932426
     27          8           0       -1.662269    1.791557   -1.690752
     28          8           0       -3.526392    2.232686   -0.645970
 ---------------------------------------------------------------------

 SCF Done:  E(RHF) =  -868.339674217     A.U. after   16 cycles
 E2 =    -0.2600722925D+01 EUMP2 =    -0.87094039714238D+03

 The electronic state is 1-A.
 Alpha  occ. eigenvalues --  -20.61374 -20.61301 -20.60808 -20.60798 -15.86359
 Alpha  occ. eigenvalues --  -15.85853 -11.31427 -11.31138 -11.28021 -11.27912
 Alpha  occ. eigenvalues --  -11.27723 -11.27638 -11.27617 -11.27395 -11.26922
 Alpha  occ. eigenvalues --  -11.26831 -11.26730 -11.26523  -1.60408  -1.59884
 Alpha  occ. eigenvalues --   -1.39969  -1.39438  -1.19571  -1.19295  -1.09015
 Alpha  occ. eigenvalues --   -1.08704  -1.04921  -1.04662  -0.95898  -0.95556
 Alpha  occ. eigenvalues --   -0.86336  -0.86063  -0.82739  -0.82372  -0.77837
 Alpha  occ. eigenvalues --   -0.77427  -0.72578  -0.72075  -0.71737  -0.71207
 Alpha  occ. eigenvalues --   -0.70666  -0.70398  -0.65221  -0.64942  -0.64913
 Alpha  occ. eigenvalues --   -0.64616  -0.62288  -0.61977  -0.55420  -0.55174
 Alpha  occ. eigenvalues --   -0.53374  -0.53040  -0.52905  -0.52696  -0.49356
 Alpha  occ. eigenvalues --   -0.49301  -0.48833  -0.48823  -0.45421  -0.44861
 Alpha  occ. eigenvalues --   -0.37548  -0.37294  -0.36718  -0.36005
 Alpha virt. eigenvalues --    0.04600   0.05093   0.11134   0.11339   0.16178
 Alpha virt. eigenvalues --    0.16578   0.21083   0.21720   0.26692   0.27418
 Alpha virt. eigenvalues --    0.28130   0.28527   0.30619   0.31478   0.32046

 Mulliken charges:
               1
     1  C   -0.168606
     2  C   -0.215119
     3  C   -0.167433
     4  C    0.152848
     5  C   -0.170490
     6  C   -0.217963
     7  H    0.228265
     8  H    0.227437
     9  H    0.277810
    10  H    0.269959
    11  H    0.223280
    12  N    0.487169
    13  O   -0.470133
    14  O   -0.454003
    15  C   -0.173504
    16  C   -0.219242
    17  C   -0.172915
    18  C    0.157441
    19  C   -0.171194
    20  C   -0.229889
    21  H    0.226285
    22  H    0.222228
    23  H    0.274137
    24  H    0.276243
    25  H    0.242180
    26  N    0.487874
    27  O   -0.460307
    28  O   -0.462358
 Sum of Mulliken charges =  -0.00000

 Dipole moment (field-independent basis, Debye):
    X=             -0.5488    Y=             -0.6369    Z=              5.4638  Tot=              5.5281
 Quadrupole moment (field-independent basis, Debye-Ang):
   XX=           -106.1742   YY=           -105.5677   ZZ=           -103.4434
   XY=             23.8094   XZ=             -0.9606   YZ=              0.0929

 Normal termination of Gaussian 16 at Thu May  6 09:57:50 2021.
