 Gaussian 16, Revision A.03,
 Gaussian 16:  EM64L-G16RevA.03 25-Dec-2016

 -------------
 #p 6-31g* mp2
 -------------

 ------------------------------------------------------
 Input file generated by CHIRIPA (05-May-2021 14:53:16)
 ------------------------------------------------------
 Symbolic Z-matrix:
 Charge =  0 Multiplicity = 1

                         Standard orientation:
 ---------------------------------------------------------------------
 Center     Atomic      Atomic             Coordinates (Angstroms)
 Number     Number       Type             X           Y           Z
 ---------------------------------------------------------------------
      1          6           0       -2.931774    0.591814    0.646086
      2          6           0       -2.686509    1.971475    0.034233
      3          6           0       -1.728137    2.824906    0.865481
      4          1           0       -3.333836    0.714102    1.661141
      5          1           0       -1.971042    0.069017    0.751316
      6          1           0       -3.647573    2.490973   -0.071091
      7          1           0       -2.285164    1.845888   -0.979555
      8          1           0       -0.755689    2.330941    0.960059
      9          1           0       -2.125840    2.979691    1.873685
     10          1           0       -1.566959    3.806906    0.409897
     11          6           0       -3.887791   -0.273102   -0.173476
     12          6           0       -4.133056   -1.652763    0.438377
     13          6           0       -5.091428   -2.506194   -0.392871
     14          1           0       -4.848523    0.249695   -0.278706
     15          1           0       -3.485729   -0.395390   -1.188531
     16          1           0       -4.534401   -1.527176    1.452166
     17          1           0       -3.171991   -2.172261    0.543702
     18          1           0       -4.693725   -2.660979   -1.401075
     19          1           0       -6.063876   -2.012229   -0.487449
     20          1           0       -5.252606   -3.488194    0.062714
     21          6           0        4.560468   -1.612550    0.560116
     22          6           0        3.319109   -2.169909    0.236233
     23          6           0        2.261159   -1.355016   -0.177571
     24          6           0        2.480538    0.019363   -0.256611
     25          6           0        3.705682    0.604619    0.059282
     26          6           0        4.749460   -0.229502    0.470763
     27          1           0        5.376805   -2.253047    0.880666
     28          1           0        3.169462   -3.243671    0.304702
     29          1           0        1.289858   -1.760081   -0.434308
     30          1           0        3.824565    1.678493   -0.018700
     31          1           0        5.712438    0.206120    0.721665
     32          7           0        1.368035    0.892232   -0.693458
     33          8           0        1.586885    2.100111   -0.754877
     34          8           0        0.298271    0.351981   -0.966167
 ---------------------------------------------------------------------

 SCF Done:  E(RHF) =  -669.536215345     A.U. after   15 cycles
 E2 =    -0.2093201913D+01 EUMP2 =    -0.67162941725833D+03

 The electronic state is 1-A.
 Alpha  occ. eigenvalues --  -20.61185 -20.61175 -15.86161 -11.31421 -11.27973
 Alpha  occ. eigenvalues --  -11.27966 -11.27694 -11.26958 -11.26948 -11.20830
 Alpha  occ. eigenvalues --  -11.20472 -11.20243 -11.19890 -11.19779 -11.19308
 Alpha  occ. eigenvalues --   -1.60221  -1.39778  -1.19579  -1.08999  -1.07157
 Alpha  occ. eigenvalues --   -1.04961  -1.02250  -0.95851  -0.94731  -0.86366
 Alpha  occ. eigenvalues --   -0.85764  -0.82691  -0.78407  -0.77757  -0.76899
 Alpha  occ. eigenvalues --   -0.72402  -0.71550  -0.70687  -0.65240  -0.64968
 Alpha  occ. eigenvalues --   -0.63748  -0.62309  -0.59619  -0.58187  -0.56330
 Alpha  occ. eigenvalues --   -0.55472  -0.54026  -0.53289  -0.53051  -0.51474
 Alpha  occ. eigenvalues --   -0.51180  -0.49186  -0.49128  -0.48661  -0.46702
 Alpha  occ. eigenvalues --   -0.45467  -0.45198  -0.44422  -0.44207  -0.42502
 Alpha  occ. eigenvalues --   -0.37548  -0.36557
 Alpha virt. eigenvalues --    0.04709   0.11098   0.16192   0.21170   0.24021
 Alpha virt. eigenvalues --    0.25758   0.26996   0.27519   0.28425   0.28820
 Alpha virt. eigenvalues --    0.29143   0.30941   0.32377   0.32618   0.32763

 Mulliken charges:
               1
     1  C   -0.298288
     2  C   -0.297650
     3  C   -0.471538
     4  H    0.140284
     5  H    0.156457
     6  H    0.140956
     7  H    0.169178
     8  H    0.160057
     9  H    0.142325
    10  H    0.158817
    11  C   -0.298304
    12  C   -0.297661
    13  C   -0.474935
    14  H    0.145574
    15  H    0.153759
    16  H    0.149222
    17  H    0.147384
    18  H    0.154423
    19  H    0.154527
    20  H    0.155934
    21  C   -0.170225
    22  C   -0.218523
    23  C   -0.170672
    24  C    0.158987
    25  C   -0.170443
    26  C   -0.218603
    27  H    0.226556
    28  H    0.224392
    29  H    0.275621
    30  H    0.276317
    31  H    0.224357
    32  N    0.487135
    33  O   -0.455736
    34  O   -0.459683
 Sum of Mulliken charges =  -0.00000

 Dipole moment (field-independent basis, Debye):
    X=              4.4016    Y=             -3.0558    Z=              1.3301  Tot=              5.5210
 Quadrupole moment (field-independent basis, Debye-Ang):
   XX=            -74.9197   YY=            -92.7593   ZZ=            -96.6084
   XY=             -5.7971   XZ=              3.0906   YZ=              0.6825

 Normal termination of Gaussian 16 at Thu May  6 15:34:41 2021.
