 Gaussian 16, Revision A.03,
 Gaussian 16:  EM64L-G16RevA.03 25-Dec-2016

 -------------
 #p 6-31g* mp2
 -------------

 ------------------------------------------------------
 Input file generated by CHIRIPA (05-May-2021 14:53:18)
 ------------------------------------------------------
 Symbolic Z-matrix:
 Charge =  0 Multiplicity = 1

                         Standard orientation:
 ---------------------------------------------------------------------
 Center     Atomic      Atomic             Coordinates (Angstroms)
 Number     Number       Type             X           Y           Z
 ---------------------------------------------------------------------
      1          6           0        2.599111   -0.052785    0.081876
      2          6           0        2.870069   -0.976156   -1.106380
      3          6           0        3.459205   -2.323033   -0.686100
      4          1           0        3.535859    0.110777    0.632053
      5          1           0        1.911561   -0.553809    0.777321
      6          1           0        3.555815   -0.472983   -1.800056
      7          1           0        1.932605   -1.137385   -1.653903
      8          1           0        2.775607   -2.848955   -0.011786
      9          1           0        4.408039   -2.180778   -0.158769
     10          1           0        3.645066   -2.967380   -1.551047
     11          6           0        2.010017    1.297551   -0.322217
     12          6           0        1.739059    2.220922    0.866039
     13          6           0        1.149922    3.567799    0.445760
     14          1           0        2.697566    1.798575   -1.017662
     15          1           0        1.073268    1.133989   -0.872394
     16          1           0        2.676523    2.382151    1.413563
     17          1           0        1.053313    1.717750    1.559715
     18          1           0        0.201088    3.425545   -0.081572
     19          1           0        1.833521    4.093721   -0.228555
     20          1           0        0.964062    4.212146    1.310706
     21          6           0       -0.987088   -2.593566    1.217958
     22          6           0       -0.924225   -1.370619    1.893953
     23          6           0       -1.372032   -0.196654    1.280909
     24          6           0       -1.879073   -0.282508   -0.014788
     25          6           0       -1.954788   -1.485889   -0.714383
     26          6           0       -1.501262   -2.647204   -0.081761
     27          1           0       -0.637000   -3.500617    1.701789
     28          1           0       -0.525395   -1.325965    2.903400
     29          1           0       -1.334909    0.763411    1.781224
     30          1           0       -2.357473   -1.498812   -1.719915
     31          1           0       -1.551293   -3.595566   -0.609160
     32          7           0       -2.356173    0.953620   -0.674154
     33          8           0       -2.798561    0.851313   -1.816285
     34          8           0       -2.278702    2.001398   -0.036348
 ---------------------------------------------------------------------

 SCF Done:  E(RHF) =  -669.535806955     A.U. after   15 cycles
 E2 =    -0.2095584235D+01 EUMP2 =    -0.67163139119039D+03

 The electronic state is 1-A.
 Alpha  occ. eigenvalues --  -20.61044 -20.61038 -15.86066 -11.31401 -11.27965
 Alpha  occ. eigenvalues --  -11.27955 -11.27704 -11.26972 -11.26962 -11.21652
 Alpha  occ. eigenvalues --  -11.21368 -11.21314 -11.21308 -11.21181 -11.20295
 Alpha  occ. eigenvalues --   -1.60101  -1.39656  -1.19578  -1.08975  -1.08314
 Alpha  occ. eigenvalues --   -1.04972  -1.03374  -0.95825  -0.95779  -0.86811
 Alpha  occ. eigenvalues --   -0.86362  -0.82645  -0.79460  -0.78133  -0.77695
 Alpha  occ. eigenvalues --   -0.72291  -0.71429  -0.70675  -0.65230  -0.65041
 Alpha  occ. eigenvalues --   -0.64897  -0.62331  -0.60747  -0.59211  -0.57414
 Alpha  occ. eigenvalues --   -0.55464  -0.55107  -0.53257  -0.53053  -0.52486
 Alpha  occ. eigenvalues --   -0.52212  -0.49732  -0.49052  -0.49041  -0.47767
 Alpha  occ. eigenvalues --   -0.46514  -0.45682  -0.45634  -0.44926  -0.43626
 Alpha  occ. eigenvalues --   -0.37519  -0.36500
 Alpha virt. eigenvalues --    0.04750   0.11009   0.16191   0.20664   0.22890
 Alpha virt. eigenvalues --    0.23980   0.26131   0.26781   0.27802   0.28193
 Alpha virt. eigenvalues --    0.28414   0.30814   0.31431   0.31755   0.32327

 Mulliken charges:
               1
     1  C   -0.301692
     2  C   -0.298689
     3  C   -0.474886
     4  H    0.147538
     5  H    0.149290
     6  H    0.153128
     7  H    0.151851
     8  H    0.148965
     9  H    0.155458
    10  H    0.159502
    11  C   -0.297833
    12  C   -0.298098
    13  C   -0.484644
    14  H    0.151084
    15  H    0.148887
    16  H    0.149210
    17  H    0.140257
    18  H    0.179260
    19  H    0.151957
    20  H    0.156969
    21  C   -0.170717
    22  C   -0.219323
    23  C   -0.168774
    24  C    0.157997
    25  C   -0.171554
    26  C   -0.218025
    27  H    0.227112
    28  H    0.225379
    29  H    0.278095
    30  H    0.276488
    31  H    0.224811
    32  N    0.488452
    33  O   -0.458170
    34  O   -0.459285
 Sum of Mulliken charges =  -0.00000

 Dipole moment (field-independent basis, Debye):
    X=              1.4187    Y=             -4.3422    Z=              2.2456  Tot=              5.0902
 Quadrupole moment (field-independent basis, Debye-Ang):
   XX=           -101.1488   YY=            -92.1145   ZZ=            -91.7520
   XY=              9.2521   XZ=             -3.5870   YZ=              1.6607

 Normal termination of Gaussian 16 at Wed May  5 23:41:43 2021.
