 Gaussian 16, Revision A.03,
 Gaussian 16:  EM64L-G16RevA.03 25-Dec-2016

 -------------
 #p 6-31g* mp2
 -------------

 ------------------------------------------------------
 Input file generated by CHIRIPA (05-May-2021 14:55:19)
 ------------------------------------------------------
 Symbolic Z-matrix:
 Charge =  0 Multiplicity = 1

                         Standard orientation:
 ---------------------------------------------------------------------
 Center     Atomic      Atomic             Coordinates (Angstroms)
 Number     Number       Type             X           Y           Z
 ---------------------------------------------------------------------
      1          6           0        0.364093   -0.685790    1.020204
      2          6           0        0.970054   -1.665129    0.226336
      3          6           0        2.273829   -1.489087   -0.246663
      4          6           0        2.945520   -0.316317    0.094996
      5          6           0        2.368946    0.677792    0.884045
      6          6           0        1.064238    0.480489    1.345951
      7          1           0       -0.649073   -0.830801    1.383332
      8          1           0        0.428706   -2.571873   -0.028226
      9          1           0        2.766910   -2.231050   -0.862926
     10          1           0        2.933812    1.571176    1.121130
     11          1           0        0.596152    1.242756    1.962303
     12          7           0        4.326262   -0.118695   -0.399875
     13          8           0        4.896728    0.923384   -0.084794
     14          8           0        4.811877   -1.009621   -1.093464
     15          6           0       -3.439060    1.205436   -0.303255
     16          6           0       -2.009092    1.745064   -0.258799
     17          6           0       -1.945620    3.264755   -0.414694
     18          1           0       -3.905076    1.497685   -1.254237
     19          1           0       -4.028124    1.681541    0.492812
     20          1           0       -1.422541    1.267056   -1.053836
     21          1           0       -1.546362    1.451333    0.692106
     22          1           0       -2.506854    3.757883    0.385582
     23          1           0       -2.382330    3.572559   -1.370279
     24          1           0       -0.914180    3.629154   -0.380007
     25          6           0       -3.518910   -0.312284   -0.148730
     26          6           0       -4.948879   -0.851912   -0.193187
     27          6           0       -5.012351   -2.371603   -0.037291
     28          1           0       -2.929847   -0.788389   -0.944797
     29          1           0       -3.052894   -0.604533    0.802251
     30          1           0       -5.411609   -0.558180   -1.144091
     31          1           0       -5.535429   -0.373904    0.601851
     32          1           0       -4.575641   -2.679408    0.918294
     33          1           0       -4.451117   -2.864730   -0.837567
     34          1           0       -6.043791   -2.736002   -0.071979
 ---------------------------------------------------------------------

 SCF Done:  E(RHF) =  -669.533472982     A.U. after   15 cycles
 E2 =    -0.2093900159D+01 EUMP2 =    -0.67162737314068D+03

 The electronic state is 1-A.
 Alpha  occ. eigenvalues --  -20.60714 -20.60708 -15.85769 -11.31109 -11.27700
 Alpha  occ. eigenvalues --  -11.27689 -11.27382 -11.26685 -11.26672 -11.22492
 Alpha  occ. eigenvalues --  -11.22426 -11.22387 -11.22216 -11.21888 -11.21750
 Alpha  occ. eigenvalues --   -1.59791  -1.39345  -1.19295  -1.09353  -1.08682
 Alpha  occ. eigenvalues --   -1.04708  -1.04348  -0.96812  -0.95531  -0.87822
 Alpha  occ. eigenvalues --   -0.86110  -0.82369  -0.80435  -0.79212  -0.77409
 Alpha  occ. eigenvalues --   -0.71988  -0.71115  -0.70418  -0.65998  -0.64947
 Alpha  occ. eigenvalues --   -0.64711  -0.62110  -0.61693  -0.60175  -0.58442
 Alpha  occ. eigenvalues --   -0.56123  -0.55199  -0.53487  -0.53251  -0.53008
 Alpha  occ. eigenvalues --   -0.52795  -0.50750  -0.48790  -0.48744  -0.48690
 Alpha  occ. eigenvalues --   -0.47464  -0.46690  -0.46613  -0.44757  -0.44634
 Alpha  occ. eigenvalues --   -0.37166  -0.36289
 Alpha virt. eigenvalues --    0.05113   0.11253   0.16540   0.19656   0.22709
 Alpha virt. eigenvalues --    0.23216   0.24924   0.25973   0.26636   0.27817
 Alpha virt. eigenvalues --    0.29659   0.30725   0.30857   0.31285   0.31511

 Mulliken charges:
               1
     1  C   -0.167747
     2  C   -0.223065
     3  C   -0.170773
     4  C    0.157707
     5  C   -0.172493
     6  C   -0.218036
     7  H    0.231585
     8  H    0.223519
     9  H    0.275258
    10  H    0.275161
    11  H    0.223141
    12  N    0.488108
    13  O   -0.460773
    14  O   -0.460804
    15  C   -0.298701
    16  C   -0.298932
    17  C   -0.477197
    18  H    0.153791
    19  H    0.150446
    20  H    0.158318
    21  H    0.140942
    22  H    0.154881
    23  H    0.159049
    24  H    0.161528
    25  C   -0.301399
    26  C   -0.299525
    27  C   -0.476426
    28  H    0.151015
    29  H    0.139621
    30  H    0.155827
    31  H    0.153981
    32  H    0.152681
    33  H    0.155128
    34  H    0.164185
 Sum of Mulliken charges =  -0.00000

 Dipole moment (field-independent basis, Debye):
    X=             -5.0492    Y=             -0.6448    Z=              1.6189  Tot=              5.3415
 Quadrupole moment (field-independent basis, Debye-Ang):
   XX=           -123.6803   YY=            -91.5802   ZZ=            -92.9711
   XY=             -0.5553   XZ=              5.0953   YZ=              1.8712

 Normal termination of Gaussian 16 at Thu May  6 12:23:55 2021.
