 Gaussian 16, Revision A.03,
 Gaussian 16:  EM64L-G16RevA.03 25-Dec-2016

 -------------
 #p 6-31g* mp2
 -------------

 ------------------------------------------------------
 Input file generated by CHIRIPA (05-May-2021 14:55:25)
 ------------------------------------------------------
 Symbolic Z-matrix:
 Charge =  0 Multiplicity = 1

                         Standard orientation:
 ---------------------------------------------------------------------
 Center     Atomic      Atomic             Coordinates (Angstroms)
 Number     Number       Type             X           Y           Z
 ---------------------------------------------------------------------
      1          6           0       -1.124077   -2.412601   -0.159888
      2          6           0       -1.174077   -1.743321    1.067339
      3          6           0       -1.866124   -0.534704    1.189261
      4          6           0       -2.499660   -0.021703    0.058441
      5          6           0       -2.468024   -0.664836   -1.177952
      6          6           0       -1.770071   -1.872176   -1.276647
      7          1           0       -0.584184   -3.350987   -0.245578
      8          1           0       -0.673322   -2.160669    1.936309
      9          1           0       -1.920875    0.004332    2.127270
     10          1           0       -2.977029   -0.224010   -2.026483
     11          1           0       -1.732922   -2.389757   -2.230993
     12          7           0       -3.235426    1.257129    0.175220
     13          8           0       -3.785274    1.688152   -0.835978
     14          8           0       -3.248338    1.804239    1.275739
     15          6           0        3.285119   -0.357285    0.260694
     16          6           0        2.595307   -1.593006   -0.318219
     17          6           0        3.087601   -2.895345    0.313724
     18          1           0        4.370263   -0.449422    0.116061
     19          1           0        3.115963   -0.326177    1.345965
     20          1           0        2.764551   -1.621028   -1.402278
     21          1           0        1.511665   -1.497826   -0.172362
     22          1           0        2.904133   -2.893250    1.393046
     23          1           0        4.164138   -3.017151    0.156141
     24          1           0        2.581355   -3.765960   -0.114767
     25          6           0        2.803578    0.952409   -0.361034
     26          6           0        3.493389    2.188130    0.217879
     27          6           0        3.001096    3.490469   -0.414063
     28          1           0        2.972733    0.921301   -1.446305
     29          1           0        1.718434    1.044546   -0.216400
     30          1           0        4.577032    2.092951    0.072023
     31          1           0        3.324146    2.216152    1.301940
     32          1           0        1.924559    3.612275   -0.256479
     33          1           0        3.184564    3.488374   -1.493385
     34          1           0        3.507342    4.361084    0.014428
 ---------------------------------------------------------------------

 SCF Done:  E(RHF) =  -669.534857893     A.U. after   15 cycles
 E2 =    -0.2093122335D+01 EUMP2 =    -0.67162798022741D+03

 The electronic state is 1-A.
 Alpha  occ. eigenvalues --  -20.60838 -20.60833 -15.85894 -11.31284 -11.27867
 Alpha  occ. eigenvalues --  -11.27856 -11.27587 -11.26868 -11.26851 -11.21988
 Alpha  occ. eigenvalues --  -11.21828 -11.21730 -11.21691 -11.21550 -11.21032
 Alpha  occ. eigenvalues --   -1.59915  -1.39467  -1.19471  -1.08880  -1.08702
 Alpha  occ. eigenvalues --   -1.04871  -1.03843  -0.96307  -0.95685  -0.87314
 Alpha  occ. eigenvalues --   -0.86266  -0.82513  -0.79914  -0.78503  -0.77553
 Alpha  occ. eigenvalues --   -0.72111  -0.71240  -0.70573  -0.65383  -0.65109
 Alpha  occ. eigenvalues --   -0.64855  -0.62212  -0.61254  -0.59723  -0.57910
 Alpha  occ. eigenvalues --   -0.55602  -0.55343  -0.53287  -0.52989  -0.52954
 Alpha  occ. eigenvalues --   -0.52712  -0.50230  -0.48871  -0.48864  -0.48221
 Alpha  occ. eigenvalues --   -0.46942  -0.46045  -0.45949  -0.44868  -0.44084
 Alpha  occ. eigenvalues --   -0.37333  -0.36468
 Alpha virt. eigenvalues --    0.04960   0.11117   0.16403   0.20309   0.22842
 Alpha virt. eigenvalues --    0.24066   0.26160   0.26585   0.27121   0.27517
 Alpha virt. eigenvalues --    0.29194   0.29810   0.31224   0.31969   0.32443

 Mulliken charges:
               1
     1  C   -0.171852
     2  C   -0.219046
     3  C   -0.171330
     4  C    0.158238
     5  C   -0.170548
     6  C   -0.217573
     7  H    0.229086
     8  H    0.224927
     9  H    0.275966
    10  H    0.276164
    11  H    0.224292
    12  N    0.488039
    13  O   -0.459987
    14  O   -0.460371
    15  C   -0.296722
    16  C   -0.311172
    17  C   -0.476300
    18  H    0.150118
    19  H    0.147378
    20  H    0.151105
    21  H    0.161328
    22  H    0.152157
    23  H    0.159849
    24  H    0.152260
    25  C   -0.299067
    26  C   -0.299863
    27  C   -0.476434
    28  H    0.149416
    29  H    0.151811
    30  H    0.151400
    31  H    0.151891
    32  H    0.158868
    33  H    0.154864
    34  H    0.161105
 Sum of Mulliken charges =  -0.00000

 Dipole moment (field-independent basis, Debye):
    X=              2.5151    Y=             -4.4262    Z=             -0.4440  Tot=              5.1102
 Quadrupole moment (field-independent basis, Debye-Ang):
   XX=           -107.8347   YY=            -96.3423   ZZ=            -89.7859
   XY=             11.8501   XZ=              1.9624   YZ=              0.5157

 Normal termination of Gaussian 16 at Thu May  6 14:22:29 2021.
