 Gaussian 16, Revision A.03,
 Gaussian 16:  EM64L-G16RevA.03 25-Dec-2016

 -------------
 #p 6-31g* mp2
 -------------

 ------------------------------------------------------
 Input file generated by CHIRIPA (05-May-2021 14:57:24)
 ------------------------------------------------------
 Symbolic Z-matrix:
 Charge =  0 Multiplicity = 1

                         Standard orientation:
 ---------------------------------------------------------------------
 Center     Atomic      Atomic             Coordinates (Angstroms)
 Number     Number       Type             X           Y           Z
 ---------------------------------------------------------------------
      1          6           0        3.865796    1.635086    0.877039
      2          6           0        4.232747    0.911529   -0.262406
      3          6           0        3.510789   -0.222423   -0.646432
      4          6           0        2.422498   -0.606226    0.135621
      5          6           0        2.032122    0.093771    1.276192
      6          6           0        2.768589    1.224621    1.641353
      7          1           0        4.432265    2.514762    1.168032
      8          1           0        5.084401    1.227975   -0.857883
      9          1           0        3.773012   -0.801018   -1.523863
     10          1           0        1.178393   -0.246192    1.849768
     11          1           0        2.481319    1.784612    2.526752
     12          7           0        1.650513   -1.805049   -0.260945
     13          8           0        0.695745   -2.122484    0.444952
     14          8           0        2.014818   -2.404551   -1.270160
     15          6           0       -3.626639   -1.616945    0.849341
     16          6           0       -2.732884   -1.772268   -0.215364
     17          6           0       -2.130289   -0.657026   -0.804994
     18          6           0       -2.445618    0.604473   -0.302521
     19          6           0       -3.332039    0.791791    0.756941
     20          6           0       -3.922842   -0.337666    1.331246
     21          1           0       -4.090170   -2.488812    1.301427
     22          1           0       -2.500979   -2.764562   -0.591683
     23          1           0       -1.434799   -0.748536   -1.630425
     24          1           0       -3.543511    1.793705    1.110305
     25          1           0       -4.616570   -0.214028    2.157986
     26          7           0       -1.813920    1.792653   -0.918624
     27          8           0       -2.108360    2.893274   -0.457565
     28          8           0       -1.036316    1.600831   -1.850918
 ---------------------------------------------------------------------

 SCF Done:  E(RHF) =  -868.339690163     A.U. after   16 cycles
 E2 =    -0.2600319091D+01 EUMP2 =    -0.87094000925445D+03

 The electronic state is 1-A.
 Alpha  occ. eigenvalues --  -20.61012 -20.61003 -20.60407 -20.60396 -15.86010
 Alpha  occ. eigenvalues --  -15.85443 -11.31036 -11.30508 -11.27586 -11.27561
 Alpha  occ. eigenvalues --  -11.27258 -11.27095 -11.26934 -11.26699 -11.26525
 Alpha  occ. eigenvalues --  -11.26509 -11.26083 -11.25825  -1.60082  -1.59488
 Alpha  occ. eigenvalues --   -1.39641  -1.39048  -1.19175  -1.18642  -1.08643
 Alpha  occ. eigenvalues --   -1.08101  -1.04539  -1.03971  -0.95539  -0.94986
 Alpha  occ. eigenvalues --   -0.85959  -0.85407  -0.82395  -0.81809  -0.77475
 Alpha  occ. eigenvalues --   -0.76900  -0.72266  -0.71677  -0.71392  -0.70806
 Alpha  occ. eigenvalues --   -0.70304  -0.69758  -0.64847  -0.64558  -0.64286
 Alpha  occ. eigenvalues --   -0.63974  -0.61906  -0.61329  -0.55066  -0.54522
 Alpha  occ. eigenvalues --   -0.52863  -0.52645  -0.52344  -0.52062  -0.49043
 Alpha  occ. eigenvalues --   -0.48993  -0.48439  -0.48398  -0.45129  -0.44515
 Alpha  occ. eigenvalues --   -0.37126  -0.36637  -0.36108  -0.35460
 Alpha virt. eigenvalues --    0.04977   0.05653   0.11526   0.12103   0.16553
 Alpha virt. eigenvalues --    0.17242   0.21640   0.22192   0.27551   0.28113
 Alpha virt. eigenvalues --    0.28523   0.28961   0.31190   0.31754   0.32659

 Mulliken charges:
               1
     1  C   -0.168039
     2  C   -0.217074
     3  C   -0.167859
     4  C    0.160471
     5  C   -0.171254
     6  C   -0.216185
     7  H    0.226570
     8  H    0.223980
     9  H    0.274973
    10  H    0.273333
    11  H    0.223780
    12  N    0.487147
    13  O   -0.466652
    14  O   -0.461303
    15  C   -0.172874
    16  C   -0.204945
    17  C   -0.164973
    18  C    0.153030
    19  C   -0.175569
    20  C   -0.219629
    21  H    0.224202
    22  H    0.231986
    23  H    0.276459
    24  H    0.270642
    25  H    0.219416
    26  N    0.487851
    27  O   -0.465146
    28  O   -0.462338
 Sum of Mulliken charges =  -0.00000

 Dipole moment (field-independent basis, Debye):
    X=              0.7436    Y=             -0.1456    Z=              3.4827  Tot=              3.5642
 Quadrupole moment (field-independent basis, Debye-Ang):
   XX=            -78.8301   YY=           -114.2336   ZZ=           -101.5124
   XY=             16.7439   XZ=             -5.2786   YZ=              5.2951

 Normal termination of Gaussian 16 at Thu May  6 05:06:38 2021.
