 Gaussian 16, Revision A.03,
 Gaussian 16:  EM64L-G16RevA.03 25-Dec-2016

 -------------
 #p 6-31g* mp2
 -------------

 ------------------------------------------------------
 Input file generated by CHIRIPA (05-May-2021 14:51:13)
 ------------------------------------------------------
 Symbolic Z-matrix:
 Charge =  0 Multiplicity = 1

                         Standard orientation:
 ---------------------------------------------------------------------
 Center     Atomic      Atomic             Coordinates (Angstroms)
 Number     Number       Type             X           Y           Z
 ---------------------------------------------------------------------
      1          6           0        3.252141   -0.235787    0.739745
      2          6           0        1.810932   -0.312786    0.234798
      3          6           0        0.783104   -0.200443    1.361184
      4          1           0        3.420383   -1.036589    1.472791
      5          1           0        3.395572    0.713088    1.274964
      6          1           0        1.670649   -1.260620   -0.300503
      7          1           0        1.646157    0.488175   -0.497273
      8          1           0        0.894283    0.751357    1.890633
      9          1           0        0.918914   -1.007374    2.088521
     10          1           0       -0.240440   -0.257905    0.977889
     11          6           0        4.291222   -0.346617   -0.374596
     12          6           0        5.732431   -0.269618    0.130352
     13          6           0        6.760259   -0.381961   -0.996034
     14          1           0        4.147791   -1.295492   -0.909814
     15          1           0        4.122980    0.454185   -1.107641
     16          1           0        5.897206   -1.070578    0.862422
     17          1           0        5.872714    0.678216    0.665653
     18          1           0        6.624449    0.424970   -1.723371
     19          1           0        6.649080   -1.333761   -1.525484
     20          1           0        7.783803   -0.324499   -0.612739
     21          6           0       -3.082744    0.620784   -0.169415
     22          6           0       -3.141497    2.148694   -0.164525
     23          6           0       -1.755380    2.793501   -0.138118
     24          1           0       -2.534378    0.278430    0.718861
     25          1           0       -2.504818    0.285808   -1.041876
     26          1           0       -3.720313    2.480643    0.706909
     27          1           0       -3.689953    2.487443   -1.052816
     28          1           0       -1.172973    2.490892   -1.014378
     29          1           0       -1.203506    2.484053    0.755346
     30          1           0       -1.820817    3.886007   -0.135025
     31          6           0       -4.460619   -0.038380   -0.195735
     32          6           0       -4.401866   -1.566290   -0.200625
     33          6           0       -5.787983   -2.211097   -0.227032
     34          1           0       -5.038545    0.296596    0.676726
     35          1           0       -5.008985    0.303975   -1.084011
     36          1           0       -3.853410   -1.905039    0.687666
     37          1           0       -3.823050   -1.898239   -1.072059
     38          1           0       -6.339857   -1.901649   -1.120495
     39          1           0       -6.370390   -1.908488    0.649228
     40          1           0       -5.722546   -3.303602   -0.230125
 ---------------------------------------------------------------------

 SCF Done:  E(RHF) =  -470.733054172     A.U. after   11 cycles
 E2 =    -0.1583131714D+01 EUMP2 =    -0.47231618588646D+03

 The electronic state is 1-A.
 Alpha  occ. eigenvalues --  -11.21611 -11.21607 -11.21579 -11.21550 -11.21417
 Alpha  occ. eigenvalues --  -11.21370 -11.21358 -11.21310 -11.21077 -11.21054
 Alpha  occ. eigenvalues --  -11.21045 -11.20974  -1.08449  -1.08389  -1.03547
 Alpha  occ. eigenvalues --   -1.03476  -0.95984  -0.95942  -0.87001  -0.86964
 Alpha  occ. eigenvalues --   -0.79629  -0.79530  -0.78272  -0.78205  -0.65084
 Alpha  occ. eigenvalues --   -0.65021  -0.60964  -0.60865  -0.59481  -0.59198
 Alpha  occ. eigenvalues --   -0.57618  -0.57533  -0.55324  -0.55178  -0.52746
 Alpha  occ. eigenvalues --   -0.52632  -0.52449  -0.52296  -0.49994  -0.49818
 Alpha  occ. eigenvalues --   -0.47939  -0.47844  -0.46682  -0.46531  -0.45786
 Alpha  occ. eigenvalues --   -0.45758  -0.45724  -0.45663  -0.43797  -0.43663
 Alpha virt. eigenvalues --    0.21491   0.23073   0.23536   0.25113   0.25962
 Alpha virt. eigenvalues --    0.26480   0.26714   0.27490   0.27604   0.29286
 Alpha virt. eigenvalues --    0.30442   0.30969   0.31475   0.32102   0.32212

 Mulliken charges:
               1
     1  C   -0.298516
     2  C   -0.299284
     3  C   -0.484127
     4  H    0.149459
     5  H    0.149548
     6  H    0.151573
     7  H    0.152564
     8  H    0.154456
     9  H    0.154039
    10  H    0.169599
    11  C   -0.298214
    12  C   -0.299604
    13  C   -0.475682
    14  H    0.149372
    15  H    0.149625
    16  H    0.151867
    17  H    0.151933
    18  H    0.155156
    19  H    0.155111
    20  H    0.160175
    21  C   -0.304348
    22  C   -0.299239
    23  C   -0.478998
    24  H    0.155060
    25  H    0.149520
    26  H    0.151871
    27  H    0.151885
    28  H    0.154927
    29  H    0.159490
    30  H    0.159835
    31  C   -0.297404
    32  C   -0.299904
    33  C   -0.475690
    34  H    0.149587
    35  H    0.149728
    36  H    0.151982
    37  H    0.151887
    38  H    0.155208
    39  H    0.155252
    40  H    0.160301
 Sum of Mulliken charges =  -0.00000

 Dipole moment (field-independent basis, Debye):
    X=             -0.0330    Y=              0.0042    Z=              0.0003  Tot=              0.0332
 Quadrupole moment (field-independent basis, Debye-Ang):
   XX=            -86.4512   YY=            -84.1459   ZZ=            -84.2426
   XY=             -0.5076   XZ=              0.5206   YZ=             -0.1567

 Normal termination of Gaussian 16 at Thu May  6 00:48:04 2021.
