 Gaussian 16, Revision A.03,
 Gaussian 16:  EM64L-G16RevA.03 25-Dec-2016

 -------------
 #p 6-31g* mp2
 -------------

 ------------------------------------------------------
 Input file generated by CHIRIPA (05-May-2021 14:57:21)
 ------------------------------------------------------
 Symbolic Z-matrix:
 Charge =  0 Multiplicity = 1

                         Standard orientation:
 ---------------------------------------------------------------------
 Center     Atomic      Atomic             Coordinates (Angstroms)
 Number     Number       Type             X           Y           Z
 ---------------------------------------------------------------------
      1          6           0       -0.358715   -2.647657    0.702682
      2          6           0       -1.113037   -2.586838   -0.473677
      3          6           0       -1.943910   -1.491733   -0.728517
      4          6           0       -1.996557   -0.470554    0.218960
      5          6           0       -1.257217   -0.502127    1.400344
      6          6           0       -0.433082   -1.606942    1.634296
      7          1           0        0.284110   -3.502132    0.892535
      8          1           0       -1.057266   -3.393617   -1.198964
      9          1           0       -2.538652   -1.419040   -1.630967
     10          1           0       -1.333711    0.317423    2.104549
     11          1           0        0.151605   -1.651490    2.548736
     12          7           0       -2.872599    0.693924   -0.039772
     13          8           0       -2.901337    1.580657    0.810826
     14          8           0       -3.513914    0.697860   -1.088264
     15          6           0        2.774370   -1.672332   -0.514903
     16          6           0        1.948923   -1.134214   -1.507671
     17          6           0        1.432305    0.158381   -1.377854
     18          6           0        1.763021    0.888195   -0.237113
     19          6           0        2.582782    0.379850    0.769301
     20          6           0        3.088112   -0.914917    0.618416
     21          1           0        3.171308   -2.677293   -0.623930
     22          1           0        1.703591   -1.720136   -2.388892
     23          1           0        0.790931    0.599500   -2.131161
     24          1           0        2.809674    0.988112    1.636454
     25          1           0        3.728920   -1.330256    1.391012
     26          7           0        1.222075    2.257757   -0.088531
     27          8           0        1.528351    2.880305    0.925996
     28          8           0        0.502047    2.682739   -0.989413
 ---------------------------------------------------------------------

 SCF Done:  E(RHF) =  -868.332629052     A.U. after   16 cycles
 E2 =    -0.2609750253D+01 EUMP2 =    -0.87094237930542D+03

 The electronic state is 1-A.
 Alpha  occ. eigenvalues --  -20.60855 -20.60816 -20.60473 -20.60424 -15.85888
 Alpha  occ. eigenvalues --  -15.85524 -11.31482 -11.31184 -11.28062 -11.28031
 Alpha  occ. eigenvalues --  -11.27867 -11.27807 -11.27776 -11.27668 -11.27170
 Alpha  occ. eigenvalues --  -11.27150 -11.26923 -11.26895  -1.59904  -1.59516
 Alpha  occ. eigenvalues --   -1.39454  -1.39065  -1.19742  -1.19361  -1.09089
 Alpha  occ. eigenvalues --   -1.08733  -1.05157  -1.04846  -0.95860  -0.95531
 Alpha  occ. eigenvalues --   -0.86546  -0.86255  -0.82684  -0.82372  -0.77679
 Alpha  occ. eigenvalues --   -0.77355  -0.72099  -0.71740  -0.71315  -0.70865
 Alpha  occ. eigenvalues --   -0.70775  -0.70531  -0.65342  -0.65175  -0.65071
 Alpha  occ. eigenvalues --   -0.64894  -0.62484  -0.62213  -0.55687  -0.55397
 Alpha  occ. eigenvalues --   -0.54783  -0.53242  -0.52984  -0.51828  -0.48875
 Alpha  occ. eigenvalues --   -0.48846  -0.48519  -0.48471  -0.44813  -0.44394
 Alpha  occ. eigenvalues --   -0.38756  -0.37531  -0.36448  -0.35496
 Alpha virt. eigenvalues --    0.04610   0.05362   0.10199   0.11796   0.15930
 Alpha virt. eigenvalues --    0.16989   0.20198   0.21813   0.26024   0.27017
 Alpha virt. eigenvalues --    0.27793   0.28856   0.29621   0.31352   0.31988

 Mulliken charges:
               1
     1  C   -0.164219
     2  C   -0.219247
     3  C   -0.175977
     4  C    0.160064
     5  C   -0.177453
     6  C   -0.210669
     7  H    0.218102
     8  H    0.217532
     9  H    0.274561
    10  H    0.280869
    11  H    0.220204
    12  N    0.490139
    13  O   -0.453247
    14  O   -0.461859
    15  C   -0.175266
    16  C   -0.209844
    17  C   -0.168408
    18  C    0.163076
    19  C   -0.174371
    20  C   -0.220622
    21  H    0.220626
    22  H    0.219853
    23  H    0.278274
    24  H    0.274679
    25  H    0.220426
    26  N    0.486659
    27  O   -0.460269
    28  O   -0.453612
 Sum of Mulliken charges =  -0.00000

 Dipole moment (field-independent basis, Debye):
    X=              4.8600    Y=             -8.5929    Z=              0.3771  Tot=              9.8793
 Quadrupole moment (field-independent basis, Debye-Ang):
   XX=           -110.7823   YY=           -110.2026   ZZ=            -96.8843
   XY=              0.6211   XZ=              1.0095   YZ=              1.7523

 Normal termination of Gaussian 16 at Thu May  6 19:27:56 2021.
