 Gaussian 16, Revision A.03,
 Gaussian 16:  EM64L-G16RevA.03 25-Dec-2016

 -------------
 #p 6-31g* mp2
 -------------

 ------------------------------------------------------
 Input file generated by CHIRIPA (05-May-2021 14:51:07)
 ------------------------------------------------------
 Symbolic Z-matrix:
 Charge =  0 Multiplicity = 1

                         Standard orientation:
 ---------------------------------------------------------------------
 Center     Atomic      Atomic             Coordinates (Angstroms)
 Number     Number       Type             X           Y           Z
 ---------------------------------------------------------------------
      1          6           0       -3.663511    0.077891    0.554615
      2          6           0       -2.906581    1.343626    0.150937
      3          6           0       -1.610826    1.534481    0.939852
      4          1           0       -3.889493    0.120360    1.628893
      5          1           0       -3.011251   -0.793920    0.406639
      6          1           0       -3.560551    2.212658    0.298323
      7          1           0       -2.682543    1.298227   -0.922544
      8          1           0       -0.936631    0.686013    0.784401
      9          1           0       -1.819628    1.605640    2.012204
     10          1           0       -1.085807    2.445223    0.635281
     11          6           0       -4.961056   -0.126726   -0.225280
     12          6           0       -5.717986   -1.392462    0.178399
     13          6           0       -7.013741   -1.583316   -0.610517
     14          1           0       -5.613316    0.745085   -0.077304
     15          1           0       -4.735075   -0.169196   -1.299558
     16          1           0       -5.942024   -1.347062    1.251880
     17          1           0       -5.064016   -2.261493    0.031013
     18          1           0       -6.804939   -1.654476   -1.682869
     19          1           0       -7.687937   -0.734849   -0.455065
     20          1           0       -7.538760   -2.494059   -0.305946
     21          6           0        3.605936    0.202553   -0.394391
     22          6           0        3.270191    1.685046   -0.228628
     23          6           0        1.853702    2.025835   -0.692541
     24          1           0        3.486774   -0.078064   -1.449852
     25          1           0        2.879503   -0.396336    0.172198
     26          1           0        3.997869    2.281021   -0.794237
     27          1           0        3.390352    1.962211    0.826530
     28          1           0        1.113670    1.456468   -0.120898
     29          1           0        1.724639    1.777090   -1.750873
     30          1           0        1.634800    3.090596   -0.565150
     31          6           0        5.018631   -0.153718    0.065055
     32          6           0        5.354376   -1.636210   -0.100708
     33          6           0        6.770866   -1.977000    0.363205
     34          1           0        5.745064    0.445172   -0.501534
     35          1           0        5.137794    0.126899    1.120517
     36          1           0        5.234215   -1.913376   -1.155865
     37          1           0        4.626698   -2.232186    0.464901
     38          1           0        6.899928   -1.728255    1.421538
     39          1           0        7.510898   -1.407633   -0.208437
     40          1           0        6.989767   -3.041761    0.235815
 ---------------------------------------------------------------------

 SCF Done:  E(RHF) =  -470.732452984     A.U. after   11 cycles
 E2 =    -0.1582695074D+01 EUMP2 =    -0.47231514805830D+03

 The electronic state is 1-A.
 Alpha  occ. eigenvalues --  -11.21597 -11.21585 -11.21584 -11.21528 -11.21398
 Alpha  occ. eigenvalues --  -11.21376 -11.21338 -11.21316 -11.21067 -11.21058
 Alpha  occ. eigenvalues --  -11.21036 -11.20903  -1.08425  -1.08390  -1.03543
 Alpha  occ. eigenvalues --   -1.03462  -0.96036  -0.95876  -0.87099  -0.86855
 Alpha  occ. eigenvalues --   -0.79668  -0.79474  -0.78243  -0.78200  -0.65080
 Alpha  occ. eigenvalues --   -0.65004  -0.61050  -0.60790  -0.59391  -0.59261
 Alpha  occ. eigenvalues --   -0.57587  -0.57546  -0.55497  -0.55036  -0.52835
 Alpha  occ. eigenvalues --   -0.52568  -0.52372  -0.52276  -0.50138  -0.49628
 Alpha  occ. eigenvalues --   -0.47928  -0.47828  -0.46738  -0.46431  -0.45794
 Alpha  occ. eigenvalues --   -0.45744  -0.45711  -0.45611  -0.43822  -0.43661
 Alpha virt. eigenvalues --    0.22367   0.22996   0.23666   0.24800   0.26229
 Alpha virt. eigenvalues --    0.26774   0.27200   0.27319   0.27681   0.29149
 Alpha virt. eigenvalues --    0.29712   0.31225   0.31718   0.31901   0.32384

 Mulliken charges:
               1
     1  C   -0.298657
     2  C   -0.299797
     3  C   -0.479384
     4  H    0.149536
     5  H    0.149583
     6  H    0.151905
     7  H    0.152686
     8  H    0.155242
     9  H    0.154711
    10  H    0.165254
    11  C   -0.298287
    12  C   -0.299641
    13  C   -0.475702
    14  H    0.149530
    15  H    0.149733
    16  H    0.151888
    17  H    0.151896
    18  H    0.155199
    19  H    0.155179
    20  H    0.160222
    21  C   -0.298233
    22  C   -0.299328
    23  C   -0.482427
    24  H    0.149390
    25  H    0.148862
    26  H    0.151251
    27  H    0.151739
    28  H    0.165577
    29  H    0.153730
    30  H    0.158516
    31  C   -0.298224
    32  C   -0.299621
    33  C   -0.475683
    34  H    0.149534
    35  H    0.149682
    36  H    0.151820
    37  H    0.151808
    38  H    0.155189
    39  H    0.155168
    40  H    0.160156
 Sum of Mulliken charges =  -0.00000

 Dipole moment (field-independent basis, Debye):
    X=             -0.0376    Y=              0.0077    Z=              0.0123  Tot=              0.0403
 Quadrupole moment (field-independent basis, Debye-Ang):
   XX=            -86.5130   YY=            -84.7449   ZZ=            -83.7339
   XY=             -0.1556   XZ=             -1.4076   YZ=              0.2349

 Normal termination of Gaussian 16 at Thu May  6 09:59:57 2021.
