 Gaussian 16, Revision A.03,
 Gaussian 16:  EM64L-G16RevA.03 25-Dec-2016

 -------------
 #p 6-31g* mp2
 -------------

 ------------------------------------------------------
 Input file generated by CHIRIPA (05-May-2021 14:51:08)
 ------------------------------------------------------
 Symbolic Z-matrix:
 Charge =  0 Multiplicity = 1

                         Standard orientation:
 ---------------------------------------------------------------------
 Center     Atomic      Atomic             Coordinates (Angstroms)
 Number     Number       Type             X           Y           Z
 ---------------------------------------------------------------------
      1          6           0        4.302411    0.503936    0.032346
      2          6           0        5.728379   -0.043557   -0.037319
      3          6           0        6.788592    1.051710    0.081553
      4          1           0        4.160363    1.242228   -0.768710
      5          1           0        4.169806    1.042502    0.980902
      6          1           0        5.857829   -0.582113   -0.984850
      7          1           0        5.866989   -0.780772    0.763879
      8          1           0        6.688037    1.583550    1.033202
      9          1           0        6.678825    1.783338   -0.725463
     10          1           0        7.800594    0.638213    0.029278
     11          6           0        3.231298   -0.578959   -0.085062
     12          6           0        1.805331   -0.031466   -0.015397
     13          6           0        0.745117   -1.126734   -0.134268
     14          1           0        3.363904   -1.117525   -1.033617
     15          1           0        3.373346   -1.317251    0.715995
     16          1           0        1.666720    0.705749   -0.816594
     17          1           0        1.675880    0.507090    0.932134
     18          1           0        0.854884   -1.858361    0.672747
     19          1           0        0.845672   -1.658574   -1.085917
     20          1           0       -0.266885   -0.713236   -0.081994
     21          6           0       -4.023109    0.658668   -0.336865
     22          6           0       -3.976960    1.924319    0.519863
     23          6           0       -4.492820    3.158556   -0.220637
     24          1           0       -3.428126    0.817496   -1.246653
     25          1           0       -5.056930    0.484522   -0.665925
     26          1           0       -2.943766    2.095257    0.848354
     27          1           0       -4.571965    1.762391    1.427808
     28          1           0       -5.531511    3.013257   -0.534659
     29          1           0       -3.894061    3.348016   -1.117407
     30          1           0       -4.450933    4.051913    0.410249
     31          6           0       -3.510600   -0.583645    0.389581
     32          6           0       -3.556750   -1.849296   -0.467147
     33          6           0       -3.040889   -3.083532    0.273353
     34          1           0       -2.476778   -0.409499    0.718641
     35          1           0       -4.105583   -0.742474    1.299368
     36          1           0       -2.961744   -1.687368   -1.375092
     37          1           0       -4.589944   -2.020235   -0.795639
     38          1           0       -3.639648   -3.272992    1.170122
     39          1           0       -2.002198   -2.938234    0.587375
     40          1           0       -3.082777   -3.976890   -0.357533
 ---------------------------------------------------------------------

 SCF Done:  E(RHF) =  -470.733167233     A.U. after   11 cycles
 E2 =    -0.1583008686D+01 EUMP2 =    -0.47231617591914D+03

 The electronic state is 1-A.
 Alpha  occ. eigenvalues --  -11.21672 -11.21628 -11.21594 -11.21545 -11.21447
 Alpha  occ. eigenvalues --  -11.21386 -11.21382 -11.21319 -11.21149 -11.21091
 Alpha  occ. eigenvalues --  -11.21064 -11.20968  -1.08478  -1.08404  -1.03588
 Alpha  occ. eigenvalues --   -1.03485  -0.96035  -0.95940  -0.87055  -0.86957
 Alpha  occ. eigenvalues --   -0.79660  -0.79543  -0.78288  -0.78220  -0.65106
 Alpha  occ. eigenvalues --   -0.65073  -0.60982  -0.60926  -0.59417  -0.59266
 Alpha  occ. eigenvalues --   -0.57661  -0.57538  -0.55322  -0.55227  -0.52747
 Alpha  occ. eigenvalues --   -0.52629  -0.52502  -0.52322  -0.49990  -0.49865
 Alpha  occ. eigenvalues --   -0.47961  -0.47869  -0.46701  -0.46561  -0.45827
 Alpha  occ. eigenvalues --   -0.45764  -0.45750  -0.45684  -0.43781  -0.43744
 Alpha virt. eigenvalues --    0.20756   0.23001   0.23863   0.24779   0.26250
 Alpha virt. eigenvalues --    0.26524   0.26957   0.27404   0.27876   0.28959
 Alpha virt. eigenvalues --    0.30608   0.31358   0.31778   0.31893   0.32031

 Mulliken charges:
               1
     1  C   -0.298288
     2  C   -0.299678
     3  C   -0.475733
     4  H    0.149674
     5  H    0.149617
     6  H    0.151988
     7  H    0.152040
     8  H    0.155235
     9  H    0.155204
    10  H    0.160361
    11  C   -0.298648
    12  C   -0.299861
    13  C   -0.483576
    14  H    0.149696
    15  H    0.149887
    16  H    0.151897
    17  H    0.152067
    18  H    0.155585
    19  H    0.155940
    20  H    0.167413
    21  C   -0.298368
    22  C   -0.299575
    23  C   -0.475672
    24  H    0.149447
    25  H    0.149711
    26  H    0.151683
    27  H    0.151994
    28  H    0.155192
    29  H    0.155147
    30  H    0.160225
    31  C   -0.304206
    32  C   -0.299475
    33  C   -0.479162
    34  H    0.153694
    35  H    0.150035
    36  H    0.152353
    37  H    0.151764
    38  H    0.154391
    39  H    0.160199
    40  H    0.159801
 Sum of Mulliken charges =  -0.00000

 Dipole moment (field-independent basis, Debye):
    X=              0.0339    Y=             -0.0019    Z=              0.0003  Tot=              0.0339
 Quadrupole moment (field-independent basis, Debye-Ang):
   XX=            -84.8299   YY=            -86.1982   ZZ=            -83.7847
   XY=             -0.1129   XZ=             -0.5201   YZ=              0.1556

 Normal termination of Gaussian 16 at Wed May  5 19:40:32 2021.
