 Gaussian 16, Revision A.03,
 Gaussian 16:  EM64L-G16RevA.03 25-Dec-2016

 -------------
 #p 6-31g* mp2
 -------------

 ------------------------------------------------------
 Input file generated by CHIRIPA (05-May-2021 14:55:22)
 ------------------------------------------------------
 Symbolic Z-matrix:
 Charge =  0 Multiplicity = 1

                         Standard orientation:
 ---------------------------------------------------------------------
 Center     Atomic      Atomic             Coordinates (Angstroms)
 Number     Number       Type             X           Y           Z
 ---------------------------------------------------------------------
      1          6           0        3.119088   -1.704203    0.999472
      2          6           0        3.319450   -1.322582   -0.331220
      3          6           0        2.841864   -0.094008   -0.797122
      4          6           0        2.165160    0.732063    0.098963
      5          6           0        1.949734    0.380063    1.430495
      6          6           0        2.436073   -0.853163    1.874540
      7          1           0        3.493488   -2.660396    1.352907
      8          1           0        3.849537   -1.981491   -1.013050
      9          1           0        2.983037    0.226329   -1.822243
     10          1           0        1.417613    1.058181    2.086560
     11          1           0        2.279008   -1.146925    2.908503
     12          7           0        1.654928    2.035162   -0.382697
     13          8           0        1.061878    2.744961    0.426694
     14          8           0        1.857720    2.322058   -1.560493
     15          6           0       -2.227428   -1.023884   -0.061039
     16          6           0       -1.463456   -1.499579   -1.297181
     17          6           0       -0.162067   -2.221435   -0.946323
     18          1           0       -1.582611   -0.355691    0.526051
     19          1           0       -2.448002   -1.888426    0.580294
     20          1           0       -1.245597   -0.634584   -1.936665
     21          1           0       -2.110234   -2.166564   -1.881496
     22          1           0       -0.364506   -3.101620   -0.327539
     23          1           0        0.505042   -1.560937   -0.383022
     24          1           0        0.367944   -2.552920   -1.844692
     25          6           0       -3.530659   -0.300397   -0.395527
     26          6           0       -4.294631    0.175298    0.840614
     27          6           0       -5.596021    0.897156    0.489757
     28          1           0       -3.310085    0.564146   -1.036861
     29          1           0       -4.175476   -0.968589   -0.982618
     30          1           0       -3.647854    0.842284    1.424930
     31          1           0       -4.512490   -0.689696    1.480098
     32          1           0       -6.263129    0.236657   -0.073545
     33          1           0       -5.393580    1.777341   -0.129028
     34          1           0       -6.126030    1.228640    1.388126
 ---------------------------------------------------------------------

 SCF Done:  E(RHF) =  -669.533592245     A.U. after   15 cycles
 E2 =    -0.2095044488D+01 EUMP2 =    -0.67162863673289D+03

 The electronic state is 1-A.
 Alpha  occ. eigenvalues --  -20.60879 -20.60874 -15.85933 -11.31304 -11.27894
 Alpha  occ. eigenvalues --  -11.27816 -11.27577 -11.26897 -11.26827 -11.21424
 Alpha  occ. eigenvalues --  -11.21350 -11.21230 -11.21103 -11.20871 -11.20798
 Alpha  occ. eigenvalues --   -1.59955  -1.39507  -1.19509  -1.08870  -1.08221
 Alpha  occ. eigenvalues --   -1.04882  -1.03329  -0.95798  -0.95693  -0.86815
 Alpha  occ. eigenvalues --   -0.86265  -0.82525  -0.79409  -0.78040  -0.77582
 Alpha  occ. eigenvalues --   -0.72145  -0.71289  -0.70565  -0.65118  -0.64875
 Alpha  occ. eigenvalues --   -0.64848  -0.62216  -0.60794  -0.59168  -0.57447
 Alpha  occ. eigenvalues --   -0.55433  -0.55355  -0.53389  -0.52951  -0.52471
 Alpha  occ. eigenvalues --   -0.51933  -0.49532  -0.48907  -0.48902  -0.47646
 Alpha  occ. eigenvalues --   -0.46339  -0.45552  -0.45474  -0.44904  -0.43599
 Alpha  occ. eigenvalues --   -0.37475  -0.36452
 Alpha virt. eigenvalues --    0.04946   0.11107   0.16420   0.21294   0.23011
 Alpha virt. eigenvalues --    0.24502   0.26655   0.27105   0.27761   0.28261
 Alpha virt. eigenvalues --    0.28415   0.30796   0.31655   0.32098   0.32163

 Mulliken charges:
               1
     1  C   -0.170506
     2  C   -0.214153
     3  C   -0.173437
     4  C    0.158788
     5  C   -0.174199
     6  C   -0.216463
     7  H    0.226503
     8  H    0.224220
     9  H    0.275909
    10  H    0.276209
    11  H    0.224576
    12  N    0.488188
    13  O   -0.460654
    14  O   -0.459940
    15  C   -0.298195
    16  C   -0.300892
    17  C   -0.480242
    18  H    0.148737
    19  H    0.146233
    20  H    0.155320
    21  H    0.150527
    22  H    0.149049
    23  H    0.168448
    24  H    0.152936
    25  C   -0.298699
    26  C   -0.299948
    27  C   -0.475895
    28  H    0.154685
    29  H    0.148336
    30  H    0.154149
    31  H    0.149027
    32  H    0.153928
    33  H    0.158034
    34  H    0.159422
 Sum of Mulliken charges =  -0.00000

 Dipole moment (field-independent basis, Debye):
    X=              1.9373    Y=             -4.4943    Z=              1.7211  Tot=              5.1879
 Quadrupole moment (field-independent basis, Debye-Ang):
   XX=            -87.5654   YY=           -101.7839   ZZ=            -90.3958
   XY=             -8.6676   XZ=              1.9987   YZ=              1.6252

 Normal termination of Gaussian 16 at Thu May  6 15:54:02 2021.
