 Gaussian 16, Revision A.03,
 Gaussian 16:  EM64L-G16RevA.03 25-Dec-2016

 -------------
 #p 6-31g* mp2
 -------------

 ------------------------------------------------------
 Input file generated by CHIRIPA (05-May-2021 14:53:13)
 ------------------------------------------------------
 Symbolic Z-matrix:
 Charge =  0 Multiplicity = 1

                         Standard orientation:
 ---------------------------------------------------------------------
 Center     Atomic      Atomic             Coordinates (Angstroms)
 Number     Number       Type             X           Y           Z
 ---------------------------------------------------------------------
      1          6           0        2.217326    1.085394   -0.241406
      2          6           0        2.171638    2.612650   -0.183200
      3          6           0        0.768056    3.171481   -0.418695
      4          1           0        1.847404    0.750883   -1.220285
      5          1           0        1.527843    0.675991    0.509858
      6          1           0        2.862035    3.019044   -0.933408
      7          1           0        2.541892    2.943572    0.795584
      8          1           0        0.071328    2.793899    0.336688
      9          1           0        0.393290    2.869800   -1.402128
     10          1           0        0.758372    4.264942   -0.372758
     11          6           0        3.613793    0.511746   -0.007874
     12          6           0        3.659481   -1.015509   -0.066081
     13          6           0        5.063063   -1.574341    0.169415
     14          1           0        4.303276    0.921149   -0.759138
     15          1           0        3.983716    0.846258    0.971005
     16          1           0        3.289227   -1.346432   -1.044864
     17          1           0        2.969084   -1.421903    0.684127
     18          1           0        5.437830   -1.272660    1.152848
     19          1           0        5.759791   -1.196759   -0.585968
     20          1           0        5.072747   -2.667802    0.123478
     21          6           0       -0.175516   -2.018541    0.133866
     22          6           0       -1.055976   -2.107692   -0.949352
     23          6           0       -2.223755   -1.339650   -0.980205
     24          6           0       -2.481020   -0.489052    0.093847
     25          6           0       -1.623444   -0.378049    1.187251
     26          6           0       -0.461555   -1.155526    1.196837
     27          1           0        0.729355   -2.618840    0.149573
     28          1           0       -0.836398   -2.777066   -1.776256
     29          1           0       -2.922716   -1.389096   -1.806297
     30          1           0       -1.869349    0.298227    1.996941
     31          1           0        0.220405   -1.084239    2.039388
     32          7           0       -3.714177    0.329033    0.072442
     33          8           0       -3.918018    1.070803    1.031016
     34          8           0       -4.453537    0.212989   -0.902503
 ---------------------------------------------------------------------

 SCF Done:  E(RHF) =  -669.534193069     A.U. after   15 cycles
 E2 =    -0.2094358564D+01 EUMP2 =    -0.67162855163285D+03

 The electronic state is 1-A.
 Alpha  occ. eigenvalues --  -20.60761 -20.60756 -15.85817 -11.31197 -11.27772
 Alpha  occ. eigenvalues --  -11.27762 -11.27457 -11.26776 -11.26766 -11.22577
 Alpha  occ. eigenvalues --  -11.22004 -11.21862 -11.21858 -11.21693 -11.21168
 Alpha  occ. eigenvalues --   -1.59836  -1.39390  -1.19371  -1.09010  -1.08737
 Alpha  occ. eigenvalues --   -1.04789  -1.04062  -0.96466  -0.95589  -0.87486
 Alpha  occ. eigenvalues --   -0.86184  -0.82432  -0.80187  -0.78776  -0.77474
 Alpha  occ. eigenvalues --   -0.72035  -0.71158  -0.70462  -0.65682  -0.65020
 Alpha  occ. eigenvalues --   -0.64766  -0.62134  -0.61471  -0.59884  -0.58090
 Alpha  occ. eigenvalues --   -0.55757  -0.55263  -0.53295  -0.53119  -0.52891
 Alpha  occ. eigenvalues --   -0.52781  -0.50419  -0.48797  -0.48789  -0.48463
 Alpha  occ. eigenvalues --   -0.47246  -0.46277  -0.46218  -0.44792  -0.44290
 Alpha  occ. eigenvalues --   -0.37259  -0.36308
 Alpha virt. eigenvalues --    0.05033   0.11134   0.16432   0.19843   0.22859
 Alpha virt. eigenvalues --    0.23651   0.25375   0.26306   0.27212   0.27743
 Alpha virt. eigenvalues --    0.29516   0.30307   0.30827   0.31416   0.31884

 Mulliken charges:
               1
     1  C   -0.302339
     2  C   -0.300304
     3  C   -0.475216
     4  H    0.149895
     5  H    0.152416
     6  H    0.152157
     7  H    0.150660
     8  H    0.155204
     9  H    0.156538
    10  H    0.162505
    11  C   -0.298193
    12  C   -0.300619
    13  C   -0.475477
    14  H    0.152208
    15  H    0.149772
    16  H    0.150918
    17  H    0.140457
    18  H    0.157179
    19  H    0.159043
    20  H    0.158824
    21  C   -0.166186
    22  C   -0.219879
    23  C   -0.170576
    24  C    0.159133
    25  C   -0.171157
    26  C   -0.220977
    27  H    0.229374
    28  H    0.223430
    29  H    0.275579
    30  H    0.275333
    31  H    0.223018
    32  N    0.488218
    33  O   -0.460530
    34  O   -0.460409
 Sum of Mulliken charges =  -0.00000

 Dipole moment (field-independent basis, Debye):
    X=              4.3617    Y=             -2.8344    Z=              0.0144  Tot=              5.2018
 Quadrupole moment (field-independent basis, Debye-Ang):
   XX=           -117.4799   YY=            -92.0231   ZZ=            -90.0065
   XY=              6.1996   XZ=              1.0590   YZ=              1.7637

 Normal termination of Gaussian 16 at Thu May  6 01:01:30 2021.
