 Gaussian 16, Revision A.03,
 Gaussian 16:  EM64L-G16RevA.03 25-Dec-2016

 -------------
 #p 6-31g* mp2
 -------------

 ------------------------------------------------------
 Input file generated by CHIRIPA (05-May-2021 14:51:13)
 ------------------------------------------------------
 Symbolic Z-matrix:
 Charge =  0 Multiplicity = 1

                         Standard orientation:
 ---------------------------------------------------------------------
 Center     Atomic      Atomic             Coordinates (Angstroms)
 Number     Number       Type             X           Y           Z
 ---------------------------------------------------------------------
      1          6           0       -3.739374   -0.300862    0.320915
      2          6           0       -4.902158   -0.073394   -0.645612
      3          6           0       -6.051401    0.712249   -0.013315
      4          1           0       -4.106992   -0.835677    1.207354
      5          1           0       -3.369384    0.671757    0.673782
      6          1           0       -5.268945   -1.046108   -0.997621
      7          1           0       -4.531690    0.460773   -1.529940
      8          1           0       -5.706995    1.695873    0.322048
      9          1           0       -6.448440    0.180431    0.857392
     10          1           0       -6.871896    0.863446   -0.721685
     11          6           0       -2.582795   -1.084883   -0.296632
     12          6           0       -1.420010   -1.312352    0.669895
     13          6           0       -0.270767   -2.097995    0.037598
     14          1           0       -2.952784   -2.057503   -0.649499
     15          1           0       -2.215176   -0.550069   -1.183071
     16          1           0       -1.790479   -1.846519    1.554223
     17          1           0       -1.053223   -0.339638    1.021903
     18          1           0        0.126271   -1.566176   -0.833109
     19          1           0       -0.615173   -3.081619   -0.297765
     20          1           0        0.549728   -2.249191    0.745968
     21          6           0        2.864282    1.366990   -0.214393
     22          6           0        1.511460    1.654112    0.437850
     23          6           0        0.930509    3.006359    0.023460
     24          1           0        3.569023    2.167100    0.050389
     25          1           0        2.750966    1.399156   -1.306877
     26          1           0        1.627000    1.620047    1.528769
     27          1           0        0.809911    0.853126    0.171641
     28          1           0        0.786655    3.047796   -1.061063
     29          1           0        1.608386    3.819075    0.303777
     30          1           0       -0.036635    3.191220    0.501286
     31          6           0        3.457887    0.018756    0.190110
     32          6           0        4.810708   -0.268366   -0.462132
     33          6           0        5.391659   -1.620614   -0.047742
     34          1           0        3.571202   -0.013410    1.282594
     35          1           0        2.753145   -0.781354   -0.074671
     36          1           0        5.512257    0.532620   -0.195924
     37          1           0        4.695168   -0.234302   -1.553052
     38          1           0        4.713782   -2.433329   -0.328059
     39          1           0        5.535514   -1.662050    1.036780
     40          1           0        6.358803   -1.805473   -0.525568
 ---------------------------------------------------------------------

 SCF Done:  E(RHF) =  -470.732762584     A.U. after   11 cycles
 E2 =    -0.1583928125D+01 EUMP2 =    -0.47231669070918D+03

 The electronic state is 1-A.
 Alpha  occ. eigenvalues --  -11.21612 -11.21601 -11.21572 -11.21567 -11.21426
 Alpha  occ. eigenvalues --  -11.21374 -11.21366 -11.21295 -11.21129 -11.21103
 Alpha  occ. eigenvalues --  -11.21078 -11.21042  -1.08470  -1.08392  -1.03585
 Alpha  occ. eigenvalues --   -1.03495  -0.96017  -0.95966  -0.87033  -0.86981
 Alpha  occ. eigenvalues --   -0.79683  -0.79528  -0.78282  -0.78208  -0.65263
 Alpha  occ. eigenvalues --   -0.64906  -0.61164  -0.60736  -0.59394  -0.59309
 Alpha  occ. eigenvalues --   -0.57616  -0.57583  -0.55334  -0.55245  -0.52740
 Alpha  occ. eigenvalues --   -0.52647  -0.52437  -0.52375  -0.49991  -0.49887
 Alpha  occ. eigenvalues --   -0.48073  -0.47807  -0.46784  -0.46470  -0.45909
 Alpha  occ. eigenvalues --   -0.45767  -0.45687  -0.45488  -0.43795  -0.43760
 Alpha virt. eigenvalues --    0.20630   0.23005   0.23912   0.24395   0.26272
 Alpha virt. eigenvalues --    0.26350   0.26986   0.27325   0.28594   0.29848
 Alpha virt. eigenvalues --    0.30403   0.31281   0.31682   0.31936   0.32170

 Mulliken charges:
               1
     1  C   -0.298250
     2  C   -0.299682
     3  C   -0.475727
     4  H    0.149752
     5  H    0.149570
     6  H    0.151923
     7  H    0.152014
     8  H    0.155249
     9  H    0.155185
    10  H    0.160304
    11  C   -0.298464
    12  C   -0.305440
    13  C   -0.479351
    14  H    0.149687
    15  H    0.149266
    16  H    0.152609
    17  H    0.157235
    18  H    0.154648
    19  H    0.155861
    20  H    0.163437
    21  C   -0.297195
    22  C   -0.309252
    23  C   -0.475556
    24  H    0.149506
    25  H    0.148744
    26  H    0.151516
    27  H    0.162702
    28  H    0.154789
    29  H    0.155599
    30  H    0.159375
    31  C   -0.304228
    32  C   -0.299326
    33  C   -0.475809
    34  H    0.148779
    35  H    0.156599
    36  H    0.151712
    37  H    0.151676
    38  H    0.155449
    39  H    0.154965
    40  H    0.160131
 Sum of Mulliken charges =  -0.00000

 Dipole moment (field-independent basis, Debye):
    X=             -0.0234    Y=             -0.0286    Z=              0.0113  Tot=              0.0387
 Quadrupole moment (field-independent basis, Debye-Ang):
   XX=            -85.6352   YY=            -85.0582   ZZ=            -84.2144
   XY=              1.5853   XZ=              0.4059   YZ=              0.0819

 Normal termination of Gaussian 16 at Thu May  6 03:56:48 2021.
