 Gaussian 16, Revision A.03,
 Gaussian 16:  EM64L-G16RevA.03 25-Dec-2016

 -------------
 #p 6-31g* mp2
 -------------

 ------------------------------------------------------
 Input file generated by CHIRIPA (05-May-2021 14:51:09)
 ------------------------------------------------------
 Symbolic Z-matrix:
 Charge =  0 Multiplicity = 1

                         Standard orientation:
 ---------------------------------------------------------------------
 Center     Atomic      Atomic             Coordinates (Angstroms)
 Number     Number       Type             X           Y           Z
 ---------------------------------------------------------------------
      1          6           0       -3.584328   -0.124806   -0.262520
      2          6           0       -4.778676   -1.079300   -0.241043
      3          6           0       -5.477805   -1.181988   -1.596944
      4          1           0       -3.924618    0.871133   -0.577563
      5          1           0       -2.866108   -0.464332   -1.021649
      6          1           0       -5.493785   -0.738858    0.518781
      7          1           0       -4.435537   -2.073036    0.074171
      8          1           0       -4.783249   -1.543552   -2.362101
      9          1           0       -5.847510   -0.201793   -1.914964
     10          1           0       -6.328563   -1.869466   -1.558924
     11          6           0       -2.875041   -0.011514    1.085740
     12          6           0       -1.680694    0.942980    1.064264
     13          6           0       -0.981564    1.045668    2.420164
     14          1           0       -3.593262    0.328011    1.844869
     15          1           0       -2.534751   -1.007454    1.400784
     16          1           0       -2.023833    1.936716    0.749050
     17          1           0       -0.965584    0.602538    0.304439
     18          1           0       -0.611859    0.065473    2.738184
     19          1           0       -1.676121    1.407231    3.185321
     20          1           0       -0.130806    1.733145    2.382144
     21          6           0        3.183919    0.828764   -0.358516
     22          6           0        2.028639    1.424400   -1.163830
     23          6           0        1.950192    2.946940   -1.047591
     24          1           0        3.071135    1.112021    0.696941
     25          1           0        4.128466    1.272809   -0.702102
     26          1           0        1.086687    0.978344   -0.819774
     27          1           0        2.144082    1.139533   -2.217462
     28          1           0        2.874321    3.409057   -1.409575
     29          1           0        1.810918    3.246953   -0.003945
     30          1           0        1.117335    3.351733   -1.630990
     31          6           0        3.275451   -0.692444   -0.464704
     32          6           0        4.430731   -1.288080    0.340611
     33          6           0        4.509178   -2.810619    0.224370
     34          1           0        2.330904   -1.136488   -0.121119
     35          1           0        3.388235   -0.975700   -1.520162
     36          1           0        4.315287   -1.003213    1.394242
     37          1           0        5.372683   -0.842023   -0.003446
     38          1           0        4.648453   -3.110633   -0.819275
     39          1           0        3.585049   -3.272738    0.586355
     40          1           0        5.342035   -3.215412    0.807770
 ---------------------------------------------------------------------

 SCF Done:  E(RHF) =  -470.733346165     A.U. after   11 cycles
 E2 =    -0.1583002265D+01 EUMP2 =    -0.47231634843040D+03

 The electronic state is 1-A.
 Alpha  occ. eigenvalues --  -11.21641 -11.21619 -11.21606 -11.21571 -11.21435
 Alpha  occ. eigenvalues --  -11.21408 -11.21375 -11.21346 -11.21142 -11.21082
 Alpha  occ. eigenvalues --  -11.21080 -11.21061  -1.08470  -1.08423  -1.03581
 Alpha  occ. eigenvalues --   -1.03512  -0.96017  -0.95973  -0.87031  -0.86991
 Alpha  occ. eigenvalues --   -0.79683  -0.79545  -0.78316  -0.78203  -0.65183
 Alpha  occ. eigenvalues --   -0.64987  -0.61093  -0.60823  -0.59393  -0.59321
 Alpha  occ. eigenvalues --   -0.57635  -0.57571  -0.55304  -0.55259  -0.52710
 Alpha  occ. eigenvalues --   -0.52669  -0.52439  -0.52401  -0.49994  -0.49895
 Alpha  occ. eigenvalues --   -0.48063  -0.47853  -0.46891  -0.46461  -0.45949
 Alpha  occ. eigenvalues --   -0.45785  -0.45760  -0.45399  -0.43816  -0.43779
 Alpha virt. eigenvalues --    0.20320   0.23158   0.23708   0.25058   0.25420
 Alpha virt. eigenvalues --    0.26507   0.26995   0.27903   0.28207   0.28843
 Alpha virt. eigenvalues --    0.30525   0.30764   0.31572   0.31834   0.32398

 Mulliken charges:
               1
     1  C   -0.298440
     2  C   -0.299674
     3  C   -0.475753
     4  H    0.149797
     5  H    0.149604
     6  H    0.151976
     7  H    0.151956
     8  H    0.155298
     9  H    0.155217
    10  H    0.160314
    11  C   -0.297546
    12  C   -0.306976
    13  C   -0.476231
    14  H    0.149695
    15  H    0.149423
    16  H    0.152597
    17  H    0.158175
    18  H    0.154799
    19  H    0.155834
    20  H    0.160231
    21  C   -0.297891
    22  C   -0.308035
    23  C   -0.475375
    24  H    0.149846
    25  H    0.149507
    26  H    0.159899
    27  H    0.151760
    28  H    0.155116
    29  H    0.154965
    30  H    0.160497
    31  C   -0.298197
    32  C   -0.299708
    33  C   -0.475686
    34  H    0.148729
    35  H    0.149614
    36  H    0.152185
    37  H    0.152022
    38  H    0.155144
    39  H    0.154982
    40  H    0.160330
 Sum of Mulliken charges =  -0.00000

 Dipole moment (field-independent basis, Debye):
    X=             -0.0191    Y=              0.0055    Z=             -0.0004  Tot=              0.0198
 Quadrupole moment (field-independent basis, Debye-Ang):
   XX=            -84.4145   YY=            -85.4207   ZZ=            -84.8944
   XY=             -0.3548   XZ=             -1.2235   YZ=             -0.0156

 Normal termination of Gaussian 16 at Wed May  5 16:39:13 2021.
