 Gaussian 16, Revision A.03,
 Gaussian 16:  EM64L-G16RevA.03 25-Dec-2016

 -------------
 #p 6-31g* mp2
 -------------

 ------------------------------------------------------
 Input file generated by CHIRIPA (05-May-2021 14:57:22)
 ------------------------------------------------------
 Symbolic Z-matrix:
 Charge =  0 Multiplicity = 1

                         Standard orientation:
 ---------------------------------------------------------------------
 Center     Atomic      Atomic             Coordinates (Angstroms)
 Number     Number       Type             X           Y           Z
 ---------------------------------------------------------------------
      1          6           0       -1.980087    1.348989    1.376359
      2          6           0       -1.640186    0.059597    0.953918
      3          6           0       -2.566891   -0.729627    0.266247
      4          6           0       -3.830119   -0.195462    0.016822
      5          6           0       -4.198753    1.085532    0.424810
      6          6           0       -3.256036    1.856946    1.110925
      7          1           0       -1.253981    1.955159    1.909955
      8          1           0       -0.650011   -0.337486    1.158667
      9          1           0       -2.330207   -1.731060   -0.072177
     10          1           0       -5.193636    1.454003    0.206054
     11          1           0       -3.522780    2.857966    1.437806
     12          7           0       -4.819656   -1.021550   -0.710361
     13          8           0       -5.925953   -0.527850   -0.917735
     14          8           0       -4.470220   -2.147096   -1.059184
     15          6           0        4.948576   -1.994696    0.573696
     16          6           0        3.649495   -1.781829    1.046557
     17          6           0        2.930061   -0.647271    0.659593
     18          6           0        3.543137    0.257886   -0.205346
     19          6           0        4.835822    0.073793   -0.693573
     20          6           0        5.536557   -1.067839   -0.293332
     21          1           0        5.500187   -2.878795    0.879457
     22          1           0        3.190341   -2.499945    1.720004
     23          1           0        1.922925   -0.457778    1.010574
     24          1           0        5.266966    0.807476   -1.363830
     25          1           0        6.545290   -1.230565   -0.662143
     26          7           0        2.791402    1.462736   -0.622037
     27          8           0        3.353949    2.245129   -1.384951
     28          8           0        1.653879    1.601890   -0.177834
 ---------------------------------------------------------------------

 SCF Done:  E(RHF) =  -868.338039128     A.U. after   16 cycles
 E2 =    -0.2599659459D+01 EUMP2 =    -0.87093769858754D+03

 The electronic state is 1-A.
 Alpha  occ. eigenvalues --  -20.61603 -20.61559 -20.60367 -20.60359 -15.86630
 Alpha  occ. eigenvalues --  -15.85418 -11.31936 -11.30653 -11.28595 -11.28424
 Alpha  occ. eigenvalues --  -11.28153 -11.27497 -11.27419 -11.27259 -11.27218
 Alpha  occ. eigenvalues --  -11.26859 -11.26252 -11.26156  -1.60646  -1.59444
 Alpha  occ. eigenvalues --   -1.40209  -1.39002  -1.20082  -1.18814  -1.09474
 Alpha  occ. eigenvalues --   -1.08206  -1.05485  -1.04223  -0.96333  -0.95066
 Alpha  occ. eigenvalues --   -0.86883  -0.85615  -0.83174  -0.81928  -0.78254
 Alpha  occ. eigenvalues --   -0.77012  -0.72859  -0.71959  -0.71640  -0.71195
 Alpha  occ. eigenvalues --   -0.70765  -0.69869  -0.65738  -0.65497  -0.64467
 Alpha  occ. eigenvalues --   -0.64254  -0.62853  -0.61587  -0.55954  -0.54646
 Alpha  occ. eigenvalues --   -0.53796  -0.53588  -0.52516  -0.52321  -0.49624
 Alpha  occ. eigenvalues --   -0.49583  -0.48402  -0.48385  -0.45625  -0.44439
 Alpha  occ. eigenvalues --   -0.38026  -0.37078  -0.36712  -0.35819
 Alpha virt. eigenvalues --    0.04299   0.05556   0.10572   0.11837   0.15831
 Alpha virt. eigenvalues --    0.17093   0.18898   0.22053   0.24958   0.27127
 Alpha virt. eigenvalues --    0.28747   0.29053   0.30433   0.31007   0.32519

 Mulliken charges:
               1
     1  C   -0.165418
     2  C   -0.211875
     3  C   -0.173765
     4  C    0.158189
     5  C   -0.170918
     6  C   -0.219367
     7  H    0.231576
     8  H    0.218238
     9  H    0.271760
    10  H    0.274121
    11  H    0.223133
    12  N    0.488314
    13  O   -0.461487
    14  O   -0.463048
    15  C   -0.169828
    16  C   -0.220519
    17  C   -0.174169
    18  C    0.157691
    19  C   -0.169200
    20  C   -0.218143
    21  H    0.228590
    22  H    0.224585
    23  H    0.273197
    24  H    0.277768
    25  H    0.226421
    26  N    0.488703
    27  O   -0.455227
    28  O   -0.469323
 Sum of Mulliken charges =  -0.00000

 Dipole moment (field-independent basis, Debye):
    X=              6.5173    Y=             -1.2037    Z=              3.9868  Tot=              7.7343
 Quadrupole moment (field-independent basis, Debye-Ang):
   XX=           -107.2604   YY=           -105.6108   ZZ=           -105.1532
   XY=            -28.5742   XZ=             -8.1344   YZ=              0.1167

 Normal termination of Gaussian 16 at Wed May  5 17:48:21 2021.
