 Gaussian 16, Revision A.03,
 Gaussian 16:  EM64L-G16RevA.03 25-Dec-2016

 -------------
 #p 6-31g* mp2
 -------------

 ------------------------------------------------------
 Input file generated by CHIRIPA (05-May-2021 14:53:18)
 ------------------------------------------------------
 Symbolic Z-matrix:
 Charge =  0 Multiplicity = 1

                         Standard orientation:
 ---------------------------------------------------------------------
 Center     Atomic      Atomic             Coordinates (Angstroms)
 Number     Number       Type             X           Y           Z
 ---------------------------------------------------------------------
      1          6           0        5.343656   -0.116818    0.185491
      2          6           0        5.948860    1.047725   -0.599081
      3          6           0        7.442595    0.865272   -0.869749
      4          1           0        5.879645   -0.226644    1.138171
      5          1           0        5.504811   -1.049227   -0.373113
      6          1           0        5.785394    1.977846   -0.039823
      7          1           0        5.411243    1.154912   -1.549920
      8          1           0        7.620677   -0.047053   -1.448154
      9          1           0        7.996954    0.780557    0.070522
     10          1           0        7.854774    1.709147   -1.431747
     11          6           0        3.850985    0.051021    0.463861
     12          6           0        3.245781   -1.113522    1.248433
     13          6           0        1.752046   -0.931068    1.519101
     14          1           0        3.689830    0.983430    1.022464
     15          1           0        3.314996    0.160847   -0.488819
     16          1           0        3.783398   -1.220709    2.199271
     17          1           0        3.409247   -2.043643    0.689175
     18          1           0        1.197687   -0.846354    0.578830
     19          1           0        1.573964   -0.018744    2.097506
     20          1           0        1.339867   -1.774944    2.081099
     21          6           0       -5.541762    1.426036    0.522284
     22          6           0       -5.713349    0.058708    0.282507
     23          6           0       -4.639886   -0.726896   -0.147671
     24          6           0       -3.403128   -0.109677   -0.328668
     25          6           0       -3.200518    1.250145   -0.098181
     26          6           0       -4.288104    2.016350    0.331512
     27          1           0       -6.381139    2.028778    0.856268
     28          1           0       -6.685819   -0.402426    0.429824
     29          1           0       -4.744795   -1.787624   -0.340720
     30          1           0       -2.219134    1.681492   -0.253878
     31          1           0       -4.151920    3.078005    0.516948
     32          7           0       -2.259225   -0.931092   -0.783821
     33          8           0       -1.179752   -0.363401   -0.935812
     34          8           0       -2.463767   -2.127056   -0.979961
 ---------------------------------------------------------------------

 SCF Done:  E(RHF) =  -669.536301893     A.U. after   15 cycles
 E2 =    -0.2090756833D+01 EUMP2 =    -0.67162705872679D+03

 The electronic state is 1-A.
 Alpha  occ. eigenvalues --  -20.60934 -20.60924 -15.85959 -11.31269 -11.27832
 Alpha  occ. eigenvalues --  -11.27827 -11.27571 -11.26839 -11.26829 -11.21061
 Alpha  occ. eigenvalues --  -11.20721 -11.20634 -11.20622 -11.20527 -11.19759
 Alpha  occ. eigenvalues --   -1.59986  -1.39543  -1.19437  -1.08844  -1.07672
 Alpha  occ. eigenvalues --   -1.04833  -1.02730  -0.95689  -0.95166  -0.86235
 Alpha  occ. eigenvalues --   -0.86182  -0.82523  -0.78819  -0.77579  -0.77464
 Alpha  occ. eigenvalues --   -0.72187  -0.71295  -0.70548  -0.65094  -0.64837
 Alpha  occ. eigenvalues --   -0.64303  -0.62180  -0.60119  -0.58580  -0.56779
 Alpha  occ. eigenvalues --   -0.55340  -0.54439  -0.53164  -0.52925  -0.51873
 Alpha  occ. eigenvalues --   -0.51589  -0.49189  -0.48939  -0.48853  -0.47125
 Alpha  occ. eigenvalues --   -0.45869  -0.45095  -0.44971  -0.44745  -0.43001
 Alpha  occ. eigenvalues --   -0.37415  -0.36433
 Alpha virt. eigenvalues --    0.04927   0.11223   0.16405   0.21347   0.23604
 Alpha virt. eigenvalues --    0.25168   0.27270   0.27407   0.28103   0.28297
 Alpha virt. eigenvalues --    0.28946   0.30910   0.32225   0.32371   0.32583

 Mulliken charges:
               1
     1  C   -0.297790
     2  C   -0.299179
     3  C   -0.475290
     4  H    0.147430
     5  H    0.149755
     6  H    0.149972
     7  H    0.152587
     8  H    0.155180
     9  H    0.154018
    10  H    0.158438
    11  C   -0.298555
    12  C   -0.298504
    13  C   -0.486735
    14  H    0.145550
    15  H    0.154932
    16  H    0.146449
    17  H    0.152559
    18  H    0.183336
    19  H    0.145714
    20  H    0.155816
    21  C   -0.170570
    22  C   -0.218610
    23  C   -0.170672
    24  C    0.158261
    25  C   -0.170482
    26  C   -0.218601
    27  H    0.225903
    28  H    0.223715
    29  H    0.275780
    30  H    0.276055
    31  H    0.223787
    32  N    0.489632
    33  O   -0.460954
    34  O   -0.458928
 Sum of Mulliken charges =  -0.00000

 Dipole moment (field-independent basis, Debye):
    X=             -4.3197    Y=              2.8638    Z=              1.4668  Tot=              5.3864
 Quadrupole moment (field-independent basis, Debye-Ang):
   XX=            -67.9707   YY=            -92.1344   ZZ=            -96.3937
   XY=             -6.8618   XZ=             -4.0693   YZ=             -0.4339

 Normal termination of Gaussian 16 at Wed May  5 20:26:41 2021.
