 Gaussian 16, Revision A.03,
 Gaussian 16:  EM64L-G16RevA.03 25-Dec-2016

 -------------
 #p 6-31g* mp2
 -------------

 ------------------------------------------------------
 Input file generated by CHIRIPA (05-May-2021 14:55:23)
 ------------------------------------------------------
 Symbolic Z-matrix:
 Charge =  0 Multiplicity = 1

                         Standard orientation:
 ---------------------------------------------------------------------
 Center     Atomic      Atomic             Coordinates (Angstroms)
 Number     Number       Type             X           Y           Z
 ---------------------------------------------------------------------
      1          6           0        1.898515    2.805122    0.119571
      2          6           0        2.452804    2.262623   -1.044465
      3          6           0        2.869836    0.928624   -1.077353
      4          6           0        2.717118    0.162325    0.077096
      5          6           0        2.168560    0.673967    1.252085
      6          6           0        1.758410    2.010463    1.262116
      7          1           0        1.577228    3.842374    0.136242
      8          1           0        2.562826    2.877412   -1.933269
      9          1           0        3.302207    0.483171   -1.965071
     10          1           0        2.071677    0.036322    2.122396
     11          1           0        1.328283    2.429106    2.167531
     12          7           0        3.154969   -1.251242    0.054378
     13          8           0        3.009624   -1.905421    1.084698
     14          8           0        3.635210   -1.678249   -0.993320
     15          6           0       -2.666334   -0.521849   -0.360223
     16          6           0       -1.858644   -1.706261    0.171559
     17          6           0       -0.421842   -1.724243   -0.351002
     18          1           0       -2.674413   -0.555202   -1.458298
     19          1           0       -2.161403    0.412866   -0.079607
     20          1           0       -2.365682   -2.638428   -0.108786
     21          1           0       -1.852648   -1.670192    1.268501
     22          1           0        0.105750   -0.810472   -0.058991
     23          1           0       -0.410198   -1.784208   -1.444103
     24          1           0        0.137484   -2.579136    0.041644
     25          6           0       -4.104751   -0.490113    0.153271
     26          6           0       -4.912441    0.694298   -0.378512
     27          6           0       -6.349243    0.712280    0.144049
     28          1           0       -4.609683   -1.424829   -0.127346
     29          1           0       -4.096672   -0.456761    1.251346
     30          1           0       -4.918437    0.658230   -1.475453
     31          1           0       -4.405404    1.626465   -0.098166
     32          1           0       -6.360887    0.772245    1.237150
     33          1           0       -6.876835   -0.201492   -0.147962
     34          1           0       -6.908570    1.567173   -0.248596
 ---------------------------------------------------------------------

 SCF Done:  E(RHF) =  -669.534384809     A.U. after   15 cycles
 E2 =    -0.2093687360D+01 EUMP2 =    -0.67162807216921D+03

 The electronic state is 1-A.
 Alpha  occ. eigenvalues --  -20.60783 -20.60775 -15.85812 -11.31177 -11.27770
 Alpha  occ. eigenvalues --  -11.27759 -11.27540 -11.26825 -11.26804 -11.21709
 Alpha  occ. eigenvalues --  -11.21419 -11.21397 -11.21316 -11.21177 -11.20587
 Alpha  occ. eigenvalues --   -1.59842  -1.39398  -1.19402  -1.08786  -1.08398
 Alpha  occ. eigenvalues --   -1.04804  -1.03451  -0.95899  -0.95612  -0.86929
 Alpha  occ. eigenvalues --   -0.86194  -0.82447  -0.79548  -0.78219  -0.77487
 Alpha  occ. eigenvalues --   -0.72048  -0.71161  -0.70498  -0.65062  -0.65025
 Alpha  occ. eigenvalues --   -0.64802  -0.62145  -0.60876  -0.59254  -0.57516
 Alpha  occ. eigenvalues --   -0.55347  -0.55246  -0.53276  -0.52889  -0.52545
 Alpha  occ. eigenvalues --   -0.52184  -0.49823  -0.48808  -0.48801  -0.47825
 Alpha  occ. eigenvalues --   -0.46585  -0.45747  -0.45690  -0.44788  -0.43670
 Alpha  occ. eigenvalues --   -0.37297  -0.36395
 Alpha virt. eigenvalues --    0.05015   0.11204   0.16512   0.21370   0.22879
 Alpha virt. eigenvalues --    0.24454   0.26646   0.27306   0.27496   0.27979
 Alpha virt. eigenvalues --    0.28413   0.30927   0.31507   0.31844   0.32345

 Mulliken charges:
               1
     1  C   -0.171321
     2  C   -0.217699
     3  C   -0.170987
     4  C    0.159267
     5  C   -0.174951
     6  C   -0.216877
     7  H    0.225786
     8  H    0.223718
     9  H    0.275886
    10  H    0.275815
    11  H    0.223601
    12  N    0.493014
    13  O   -0.460698
    14  O   -0.460040
    15  C   -0.297607
    16  C   -0.298675
    17  C   -0.489728
    18  H    0.149442
    19  H    0.145978
    20  H    0.153075
    21  H    0.149883
    22  H    0.154697
    23  H    0.154771
    24  H    0.175512
    25  C   -0.298049
    26  C   -0.299022
    27  C   -0.475559
    28  H    0.150764
    29  H    0.148540
    30  H    0.152020
    31  H    0.148977
    32  H    0.154737
    33  H    0.156195
    34  H    0.159534
 Sum of Mulliken charges =  -0.00000

 Dipole moment (field-independent basis, Debye):
    X=             -1.4342    Y=              4.9167    Z=              0.0637  Tot=              5.1220
 Quadrupole moment (field-independent basis, Debye-Ang):
   XX=           -104.7595   YY=            -93.2041   ZZ=            -89.7222
   XY=             13.9316   XZ=             -0.9765   YZ=              0.2164

 Normal termination of Gaussian 16 at Wed May  5 22:20:12 2021.
