 Gaussian 16, Revision A.03,
 Gaussian 16:  EM64L-G16RevA.03 25-Dec-2016

 -------------
 #p 6-31g* mp2
 -------------

 ------------------------------------------------------
 Input file generated by CHIRIPA (05-May-2021 14:55:23)
 ------------------------------------------------------
 Symbolic Z-matrix:
 Charge =  0 Multiplicity = 1

                         Standard orientation:
 ---------------------------------------------------------------------
 Center     Atomic      Atomic             Coordinates (Angstroms)
 Number     Number       Type             X           Y           Z
 ---------------------------------------------------------------------
      1          6           0        1.888373    1.793348    1.197208
      2          6           0        2.631843    0.925177    2.003467
      3          6           0        3.389322   -0.101277    1.431483
      4          6           0        3.380439   -0.231286    0.043568
      5          6           0        2.650059    0.617729   -0.786498
      6          6           0        1.899833    1.637128   -0.192751
      7          1           0        1.302762    2.587982    1.649992
      8          1           0        2.624820    1.044129    3.083211
      9          1           0        3.974030   -0.787472    2.032041
     10          1           0        2.676844    0.474168   -1.859853
     11          1           0        1.323403    2.309884   -0.821378
     12          7           0        4.178508   -1.314213   -0.573486
     13          8           0        4.153979   -1.407658   -1.798763
     14          8           0        4.813453   -2.049060    0.179828
     15          6           0       -3.974150    0.782733   -0.380835
     16          6           0       -2.474313    0.983799   -0.600032
     17          6           0       -2.121026    2.419553   -0.989381
     18          1           0       -4.512497    1.058491   -1.297942
     19          1           0       -4.318670    1.471509    0.402931
     20          1           0       -2.132455    0.293879   -1.382182
     21          1           0       -1.939460    0.707348    0.317640
     22          1           0       -2.434473    3.118941   -0.207582
     23          1           0       -2.628565    2.703122   -1.917063
     24          1           0       -1.043950    2.540891   -1.141185
     25          6           0       -4.343053   -0.647548    0.008955
     26          6           0       -5.842890   -0.848613    0.228152
     27          6           0       -6.196178   -2.284367    0.617501
     28          1           0       -3.998534   -1.336323   -0.774811
     29          1           0       -3.804707   -0.923305    0.926062
     30          1           0       -6.377745   -0.572163   -0.689520
     31          1           0       -6.184749   -0.158693    1.010302
     32          1           0       -5.688639   -2.567937    1.545183
     33          1           0       -5.882731   -2.983755   -0.164298
     34          1           0       -7.273254   -2.405706    0.769305
 ---------------------------------------------------------------------

 SCF Done:  E(RHF) =  -669.535465337     A.U. after   15 cycles
 E2 =    -0.2091127099D+01 EUMP2 =    -0.67162659243591D+03

 The electronic state is 1-A.
 Alpha  occ. eigenvalues --  -20.60762 -20.60757 -15.85816 -11.31187 -11.27761
 Alpha  occ. eigenvalues --  -11.27755 -11.27505 -11.26775 -11.26762 -11.22220
 Alpha  occ. eigenvalues --  -11.21972 -11.21897 -11.21872 -11.21726 -11.21293
 Alpha  occ. eigenvalues --   -1.59838  -1.39391  -1.19362  -1.08886  -1.08755
 Alpha  occ. eigenvalues --   -1.04769  -1.04021  -0.96490  -0.95588  -0.87511
 Alpha  occ. eigenvalues --   -0.86165  -0.82422  -0.80080  -0.78663  -0.77471
 Alpha  occ. eigenvalues --   -0.72035  -0.71161  -0.70467  -0.65512  -0.65015
 Alpha  occ. eigenvalues --   -0.64812  -0.62158  -0.61412  -0.59872  -0.58084
 Alpha  occ. eigenvalues --   -0.55765  -0.55267  -0.53341  -0.53080  -0.52979
 Alpha  occ. eigenvalues --   -0.52653  -0.50414  -0.48796  -0.48789  -0.48391
 Alpha  occ. eigenvalues --   -0.47100  -0.46214  -0.46120  -0.44796  -0.44273
 Alpha  occ. eigenvalues --   -0.37337  -0.36362
 Alpha virt. eigenvalues --    0.05067   0.11196   0.16531   0.20103   0.22620
 Alpha virt. eigenvalues --    0.23917   0.25880   0.26227   0.27093   0.27972
 Alpha virt. eigenvalues --    0.28709   0.29822   0.30944   0.31610   0.32017

 Mulliken charges:
               1
     1  C   -0.172155
     2  C   -0.218728
     3  C   -0.170853
     4  C    0.158693
     5  C   -0.171749
     6  C   -0.220077
     7  H    0.226184
     8  H    0.223351
     9  H    0.275618
    10  H    0.275794
    11  H    0.227992
    12  N    0.488061
    13  O   -0.460395
    14  O   -0.460466
    15  C   -0.298927
    16  C   -0.299432
    17  C   -0.478337
    18  H    0.150956
    19  H    0.148959
    20  H    0.154897
    21  H    0.152221
    22  H    0.155084
    23  H    0.159701
    24  H    0.149895
    25  C   -0.298695
    26  C   -0.299993
    27  C   -0.475979
    28  H    0.151566
    29  H    0.149835
    30  H    0.152555
    31  H    0.151545
    32  H    0.155396
    33  H    0.156450
    34  H    0.161034
 Sum of Mulliken charges =  -0.00000

 Dipole moment (field-independent basis, Debye):
    X=             -2.9300    Y=              3.7509    Z=              2.1797  Tot=              5.2350
 Quadrupole moment (field-independent basis, Debye-Ang):
   XX=           -113.8142   YY=            -97.8346   ZZ=            -89.6002
   XY=             12.8280   XZ=              9.2014   YZ=             -1.2692

 Normal termination of Gaussian 16 at Thu May  6 14:16:03 2021.
