 Gaussian 16, Revision A.03,
 Gaussian 16:  EM64L-G16RevA.03 25-Dec-2016

 -------------
 #p 6-31g* mp2
 -------------

 ------------------------------------------------------
 Input file generated by CHIRIPA (05-May-2021 14:55:19)
 ------------------------------------------------------
 Symbolic Z-matrix:
 Charge =  0 Multiplicity = 1

                         Standard orientation:
 ---------------------------------------------------------------------
 Center     Atomic      Atomic             Coordinates (Angstroms)
 Number     Number       Type             X           Y           Z
 ---------------------------------------------------------------------
      1          6           0       -5.083180   -0.820426   -1.317669
      2          6           0       -4.673391   -1.674039   -0.288136
      3          6           0       -3.614535   -1.316234    0.551712
      4          6           0       -2.985058   -0.091881    0.332602
      5          6           0       -3.370142    0.780180   -0.684507
      6          6           0       -4.431396    0.401805   -1.512226
      7          1           0       -5.906657   -1.106367   -1.965373
      8          1           0       -5.177733   -2.623851   -0.134704
      9          1           0       -3.276820   -1.958027    1.356366
     10          1           0       -2.847983    1.720553   -0.812830
     11          1           0       -4.747498    1.066728   -2.310976
     12          7           0       -1.862825    0.297800    1.215292
     13          8           0       -1.324638    1.381899    1.001465
     14          8           0       -1.542654   -0.488246    2.104257
     15          6           0        4.770243   -0.066014   -0.309777
     16          6           0        4.863825   -1.587856   -0.194771
     17          6           0        6.295780   -2.104531   -0.337410
     18          1           0        5.179946    0.247926   -1.279586
     19          1           0        5.405024    0.392691    0.460962
     20          1           0        4.227975   -2.043553   -0.964610
     21          1           0        4.453676   -1.898226    0.774798
     22          1           0        6.938637   -1.677213    0.438951
     23          1           0        6.711655   -1.823365   -1.310340
     24          1           0        6.339574   -3.194783   -0.252002
     25          6           0        3.344998    0.465643   -0.169261
     26          6           0        3.251415    1.987484   -0.284267
     27          6           0        1.819460    2.504160   -0.141629
     28          1           0        2.710217    0.006938   -0.939999
     29          1           0        2.935294    0.151703    0.800548
     30          1           0        3.661565    2.297855   -1.253836
     31          1           0        3.887264    2.443181    0.485572
     32          1           0        1.403585    2.222994    0.831302
     33          1           0        1.176603    2.076841   -0.917989
     34          1           0        1.775666    3.594410   -0.227037
 ---------------------------------------------------------------------

 SCF Done:  E(RHF) =  -669.535789086     A.U. after   15 cycles
 E2 =    -0.2091036950D+01 EUMP2 =    -0.67162682603633D+03

 The electronic state is 1-A.
 Alpha  occ. eigenvalues --  -20.60895 -20.60865 -15.85910 -11.31254 -11.27820
 Alpha  occ. eigenvalues --  -11.27815 -11.27562 -11.26833 -11.26823 -11.20993
 Alpha  occ. eigenvalues --  -11.20658 -11.20584 -11.20541 -11.20420 -11.19566
 Alpha  occ. eigenvalues --   -1.59945  -1.39500  -1.19425  -1.08827  -1.07591
 Alpha  occ. eigenvalues --   -1.04824  -1.02640  -0.95669  -0.95061  -0.86225
 Alpha  occ. eigenvalues --   -0.86072  -0.82498  -0.78726  -0.77552  -0.77364
 Alpha  occ. eigenvalues --   -0.72135  -0.71259  -0.70534  -0.65080  -0.64828
 Alpha  occ. eigenvalues --   -0.64230  -0.62171  -0.60041  -0.58496  -0.56673
 Alpha  occ. eigenvalues --   -0.55330  -0.54346  -0.53157  -0.52916  -0.51777
 Alpha  occ. eigenvalues --   -0.51472  -0.49135  -0.48892  -0.48764  -0.47013
 Alpha  occ. eigenvalues --   -0.45763  -0.45050  -0.44836  -0.44695  -0.42911
 Alpha  occ. eigenvalues --   -0.37405  -0.36427
 Alpha virt. eigenvalues --    0.04973   0.11227   0.16458   0.21344   0.23653
 Alpha virt. eigenvalues --    0.25212   0.27211   0.27499   0.28034   0.28359
 Alpha virt. eigenvalues --    0.29081   0.30908   0.32084   0.32486   0.32683

 Mulliken charges:
               1
     1  C   -0.170685
     2  C   -0.218593
     3  C   -0.170707
     4  C    0.158034
     5  C   -0.171142
     6  C   -0.218580
     7  H    0.225828
     8  H    0.223660
     9  H    0.275750
    10  H    0.276243
    11  H    0.223727
    12  N    0.489667
    13  O   -0.459384
    14  O   -0.460317
    15  C   -0.297569
    16  C   -0.299142
    17  C   -0.475195
    18  H    0.146746
    19  H    0.148708
    20  H    0.149871
    21  H    0.153647
    22  H    0.154826
    23  H    0.153577
    24  H    0.158331
    25  C   -0.297911
    26  C   -0.300391
    27  C   -0.475931
    28  H    0.145743
    29  H    0.156587
    30  H    0.145334
    31  H    0.149180
    32  H    0.179253
    33  H    0.148847
    34  H    0.151990
 Sum of Mulliken charges =  -0.00000

 Dipole moment (field-independent basis, Debye):
    X=             -4.2313    Y=             -1.3800    Z=             -2.9561  Tot=              5.3429
 Quadrupole moment (field-independent basis, Debye-Ang):
   XX=            -73.7826   YY=            -91.6495   ZZ=            -95.1508
   XY=              5.5186   XZ=              8.5981   YZ=             -2.4293

 Normal termination of Gaussian 16 at Thu May  6 14:03:37 2021.
