 Gaussian 16, Revision A.03,
 Gaussian 16:  EM64L-G16RevA.03 25-Dec-2016

 -------------
 #p 6-31g* mp2
 -------------

 ------------------------------------------------------
 Input file generated by CHIRIPA (05-May-2021 14:57:22)
 ------------------------------------------------------
 Symbolic Z-matrix:
 Charge =  0 Multiplicity = 1

                         Standard orientation:
 ---------------------------------------------------------------------
 Center     Atomic      Atomic             Coordinates (Angstroms)
 Number     Number       Type             X           Y           Z
 ---------------------------------------------------------------------
      1          6           0        4.445109    1.838666   -0.415323
      2          6           0        3.093079    1.914896   -0.765643
      3          6           0        2.251521    0.811991   -0.592643
      4          6           0        2.797795   -0.356653   -0.064300
      5          6           0        4.140638   -0.463737    0.294303
      6          6           0        4.963659    0.651686    0.112601
      7          1           0        5.091652    2.700291   -0.553094
      8          1           0        2.687625    2.835428   -1.175854
      9          1           0        1.201102    0.843533   -0.855403
     10          1           0        4.515938   -1.394988    0.700923
     11          1           0        6.013274    0.589605    0.385549
     12          7           0        1.916687   -1.530876    0.123453
     13          8           0        2.422334   -2.548955    0.590865
     14          8           0        0.737112   -1.410918   -0.200352
     15          6           0       -2.958713    2.627082    0.638018
     16          6           0       -3.577804    2.163038   -0.527275
     17          6           0       -3.575283    0.799973   -0.838074
     18          6           0       -2.941494   -0.075078    0.042771
     19          6           0       -2.316031    0.356517    1.211451
     20          6           0       -2.330909    1.723933    1.502138
     21          1           0       -2.965471    3.687634    0.871642
     22          1           0       -4.066132    2.862143   -1.200204
     23          1           0       -4.046934    0.413598   -1.733438
     24          1           0       -1.837324   -0.364535    1.862865
     25          1           0       -1.849315    2.081473    2.407831
     26          7           0       -2.932285   -1.520398   -0.275611
     27          8           0       -2.367093   -2.270932    0.516787
     28          8           0       -3.490431   -1.875338   -1.311530
 ---------------------------------------------------------------------

 SCF Done:  E(RHF) =  -868.336272707     A.U. after   16 cycles
 E2 =    -0.2601207468D+01 EUMP2 =    -0.87093748017504D+03

 The electronic state is 1-A.
 Alpha  occ. eigenvalues --  -20.60558 -20.60553 -20.59762 -20.59612 -15.85622
 Alpha  occ. eigenvalues --  -15.84745 -11.31177 -11.30540 -11.27778 -11.27756
 Alpha  occ. eigenvalues --  -11.27550 -11.27206 -11.27125 -11.27062 -11.26842
 Alpha  occ. eigenvalues --  -11.26811 -11.26328 -11.26298  -1.59626  -1.58736
 Alpha  occ. eigenvalues --   -1.39180  -1.38280  -1.19371  -1.18775  -1.08728
 Alpha  occ. eigenvalues --   -1.08096  -1.04801  -1.04246  -0.95528  -0.94854
 Alpha  occ. eigenvalues --   -0.86190  -0.85616  -0.82364  -0.81691  -0.77386
 Alpha  occ. eigenvalues --   -0.76640  -0.71865  -0.71000  -0.70951  -0.70479
 Alpha  occ. eigenvalues --   -0.69990  -0.69891  -0.65018  -0.64804  -0.64420
 Alpha  occ. eigenvalues --   -0.64260  -0.62144  -0.61573  -0.55293  -0.54764
 Alpha  occ. eigenvalues --   -0.53125  -0.52901  -0.52558  -0.52341  -0.48588
 Alpha  occ. eigenvalues --   -0.48564  -0.47776  -0.47692  -0.44558  -0.43536
 Alpha  occ. eigenvalues --   -0.37366  -0.36797  -0.36418  -0.35872
 Alpha virt. eigenvalues --    0.05127   0.05944   0.11232   0.11776   0.16605
 Alpha virt. eigenvalues --    0.17308   0.21346   0.21833   0.27234   0.27720
 Alpha virt. eigenvalues --    0.28230   0.28789   0.30834   0.31352   0.32428

 Mulliken charges:
               1
     1  C   -0.171477
     2  C   -0.218983
     3  C   -0.172687
     4  C    0.158220
     5  C   -0.171121
     6  C   -0.218570
     7  H    0.224776
     8  H    0.221468
     9  H    0.275342
    10  H    0.276530
    11  H    0.223448
    12  N    0.487751
    13  O   -0.457367
    14  O   -0.457615
    15  C   -0.174267
    16  C   -0.220532
    17  C   -0.172833
    18  C    0.161699
    19  C   -0.165707
    20  C   -0.222970
    21  H    0.221210
    22  H    0.220048
    23  H    0.274696
    24  H    0.280921
    25  H    0.220303
    26  N    0.490026
    27  O   -0.445037
    28  O   -0.467270
 Sum of Mulliken charges =  -0.00000

 Dipole moment (field-independent basis, Debye):
    X=              3.1988    Y=              8.8110    Z=              0.5338  Tot=              9.3889
 Quadrupole moment (field-independent basis, Debye-Ang):
   XX=            -84.6135   YY=           -108.3637   ZZ=           -101.6083
   XY=             -6.8272   XZ=             -1.4171   YZ=             -2.1255

 Normal termination of Gaussian 16 at Thu May  6 12:52:48 2021.
