 Gaussian 16, Revision A.03,
 Gaussian 16:  EM64L-G16RevA.03 25-Dec-2016

 -------------
 #p 6-31g* mp2
 -------------

 ------------------------------------------------------
 Input file generated by CHIRIPA (05-May-2021 14:57:25)
 ------------------------------------------------------
 Symbolic Z-matrix:
 Charge =  0 Multiplicity = 1

                         Standard orientation:
 ---------------------------------------------------------------------
 Center     Atomic      Atomic             Coordinates (Angstroms)
 Number     Number       Type             X           Y           Z
 ---------------------------------------------------------------------
      1          6           0       -1.460187    1.003956    1.132805
      2          6           0       -1.424697   -0.243732    0.501508
      3          6           0       -2.592974   -0.811141   -0.015912
      4          6           0       -3.784737   -0.100099    0.116035
      5          6           0       -3.852450    1.144816    0.739648
      6          6           0       -2.671814    1.693033    1.249654
      7          1           0       -0.547841    1.437278    1.531870
      8          1           0       -0.485156   -0.781144    0.409325
      9          1           0       -2.594045   -1.775460   -0.509375
     10          1           0       -4.804049    1.656660    0.816407
     11          1           0       -2.702369    2.662171    1.739432
     12          7           0       -5.028081   -0.690630   -0.427810
     13          8           0       -6.065346   -0.044045   -0.298788
     14          8           0       -4.941807   -1.788893   -0.972800
     15          6           0        2.597822    2.185918   -1.002837
     16          6           0        1.845859    1.009240   -1.083472
     17          6           0        2.379818   -0.206067   -0.644763
     18          6           0        3.674755   -0.208287   -0.128600
     19          6           0        4.448934    0.947226   -0.035180
     20          6           0        3.894673    2.151217   -0.479871
     21          1           0        2.175145    3.125602   -1.345960
     22          1           0        0.838443    1.033197   -1.489163
     23          1           0        1.819714   -1.131871   -0.695645
     24          1           0        5.450397    0.891814    0.373990
     25          1           0        4.480968    3.063483   -0.416039
     26          7           0        4.250779   -1.488888    0.339008
     27          8           0        5.393966   -1.464222    0.789732
     28          8           0        3.548173   -2.493039    0.245942
 ---------------------------------------------------------------------

 SCF Done:  E(RHF) =  -868.337299097     A.U. after   16 cycles
 E2 =    -0.2601057590D+01 EUMP2 =    -0.87093835668681D+03

 The electronic state is 1-A.
 Alpha  occ. eigenvalues --  -20.61525 -20.61512 -20.61130 -20.61124 -15.86578
 Alpha  occ. eigenvalues --  -15.86189 -11.32090 -11.31664 -11.28713 -11.28597
 Alpha  occ. eigenvalues --  -11.28355 -11.28266 -11.28255 -11.28012 -11.27667
 Alpha  occ. eigenvalues --  -11.27638 -11.27304 -11.27269  -1.60593  -1.60204
 Alpha  occ. eigenvalues --   -1.40144  -1.39754  -1.20257  -1.19863  -1.09609
 Alpha  occ. eigenvalues --   -1.09233  -1.05687  -1.05278  -0.96429  -0.96041
 Alpha  occ. eigenvalues --   -0.87049  -0.86679  -0.83258  -0.82871  -0.78317
 Alpha  occ. eigenvalues --   -0.77887  -0.72788  -0.72402  -0.71922  -0.71532
 Alpha  occ. eigenvalues --   -0.71346  -0.70939  -0.65915  -0.65657  -0.65494
 Alpha  occ. eigenvalues --   -0.65305  -0.63086  -0.62516  -0.56129  -0.55752
 Alpha  occ. eigenvalues --   -0.54029  -0.53843  -0.53507  -0.53323  -0.49558
 Alpha  occ. eigenvalues --   -0.49540  -0.49171  -0.49151  -0.45518  -0.45135
 Alpha  occ. eigenvalues --   -0.38256  -0.37887  -0.37257  -0.36860
 Alpha virt. eigenvalues --    0.04195   0.04631   0.10207   0.10736   0.15642
 Alpha virt. eigenvalues --    0.16080   0.19598   0.21570   0.24868   0.27038
 Alpha virt. eigenvalues --    0.27884   0.28489   0.29796   0.30706   0.31795

 Mulliken charges:
               1
     1  C   -0.175055
     2  C   -0.227626
     3  C   -0.171924
     4  C    0.158690
     5  C   -0.170133
     6  C   -0.219345
     7  H    0.229068
     8  H    0.225915
     9  H    0.278285
    10  H    0.277099
    11  H    0.224179
    12  N    0.488010
    13  O   -0.459422
    14  O   -0.458655
    15  C   -0.173801
    16  C   -0.223021
    17  C   -0.180921
    18  C    0.160682
    19  C   -0.170722
    20  C   -0.217716
    21  H    0.228413
    22  H    0.229988
    23  H    0.272370
    24  H    0.278408
    25  H    0.226554
    26  N    0.488012
    27  O   -0.457012
    28  O   -0.460320
 Sum of Mulliken charges =  -0.00000

 Dipole moment (field-independent basis, Debye):
    X=              2.4420    Y=              6.6659    Z=              0.2796  Tot=              7.1046
 Quadrupole moment (field-independent basis, Debye-Ang):
   XX=           -147.2422   YY=           -103.2565   ZZ=           -104.5596
   XY=              8.9455   XZ=            -12.3863   YZ=              1.8686

 Normal termination of Gaussian 16 at Thu May  6 06:42:02 2021.
