 Gaussian 16, Revision A.03,
 Gaussian 16:  EM64L-G16RevA.03 25-Dec-2016

 -------------
 #p 6-31g* mp2
 -------------

 ------------------------------------------------------
 Input file generated by CHIRIPA (05-May-2021 14:53:13)
 ------------------------------------------------------
 Symbolic Z-matrix:
 Charge =  0 Multiplicity = 1

                         Standard orientation:
 ---------------------------------------------------------------------
 Center     Atomic      Atomic             Coordinates (Angstroms)
 Number     Number       Type             X           Y           Z
 ---------------------------------------------------------------------
      1          6           0        2.875091    0.603322    0.205250
      2          6           0        2.965186    1.692133    1.274997
      3          6           0        1.634749    2.411191    1.500140
      4          1           0        2.535055    1.052220   -0.738048
      5          1           0        2.107820   -0.126519    0.498547
      6          1           0        3.733028    2.418958    0.980446
      7          1           0        3.305230    1.240624    2.215808
      8          1           0        0.862928    1.702765    1.817986
      9          1           0        1.293156    2.887793    0.575604
     10          1           0        1.721892    3.185417    2.268801
     11          6           0        4.197222   -0.124551   -0.031177
     12          6           0        4.107128   -1.213362   -1.100924
     13          6           0        5.437564   -1.932420   -1.326066
     14          1           0        4.964493    0.605290   -0.324473
     15          1           0        4.537258   -0.573449    0.912121
     16          1           0        3.767083   -0.761854   -2.041735
     17          1           0        3.339286   -1.940187   -0.806372
     18          1           0        5.779157   -2.409023   -0.401531
     19          1           0        6.209385   -1.223994   -1.643913
     20          1           0        5.350421   -2.706646   -2.094728
     21          6           0       -2.614352   -2.024823    1.654332
     22          6           0       -1.776585   -0.908612    1.747814
     23          6           0       -1.850031    0.115696    0.799158
     24          6           0       -2.776956   -0.009348   -0.234506
     25          6           0       -3.625255   -1.108987   -0.354812
     26          6           0       -3.534391   -2.121279    0.605167
     27          1           0       -2.550533   -2.815864    2.395668
     28          1           0       -1.061122   -0.831027    2.561532
     29          1           0       -1.213469    0.990832    0.847558
     30          1           0       -4.328457   -1.158121   -1.177314
     31          1           0       -4.186271   -2.986990    0.530054
     32          7           0       -2.863930    1.068681   -1.244799
     33          8           0       -3.689001    0.934702   -2.145877
     34          8           0       -2.105380    2.027204   -1.116456
 ---------------------------------------------------------------------

 SCF Done:  E(RHF) =  -669.535594294     A.U. after   15 cycles
 E2 =    -0.2091464542D+01 EUMP2 =    -0.67162705883630D+03

 The electronic state is 1-A.
 Alpha  occ. eigenvalues --  -20.60736 -20.60730 -15.85787 -11.31137 -11.27728
 Alpha  occ. eigenvalues --  -11.27675 -11.27479 -11.26744 -11.26734 -11.21856
 Alpha  occ. eigenvalues --  -11.21700 -11.21575 -11.21506 -11.21437 -11.21162
 Alpha  occ. eigenvalues --   -1.59809  -1.39362  -1.19322  -1.08722  -1.08610
 Alpha  occ. eigenvalues --   -1.04729  -1.03727  -0.96184  -0.95555  -0.87203
 Alpha  occ. eigenvalues --   -0.86124  -0.82391  -0.79791  -0.78415  -0.77429
 Alpha  occ. eigenvalues --   -0.72008  -0.71131  -0.70441  -0.65249  -0.64976
 Alpha  occ. eigenvalues --   -0.64739  -0.62122  -0.61104  -0.59538  -0.57783
 Alpha  occ. eigenvalues --   -0.55502  -0.55215  -0.53056  -0.52917  -0.52863
 Alpha  occ. eigenvalues --   -0.52511  -0.50127  -0.48765  -0.48757  -0.48093
 Alpha  occ. eigenvalues --   -0.46815  -0.45954  -0.45871  -0.44770  -0.43968
 Alpha  occ. eigenvalues --   -0.37310  -0.36327
 Alpha virt. eigenvalues --    0.05089   0.11321   0.16551   0.19989   0.22836
 Alpha virt. eigenvalues --    0.23885   0.25608   0.26644   0.27504   0.27920
 Alpha virt. eigenvalues --    0.29249   0.30657   0.31547   0.31665   0.32340

 Mulliken charges:
               1
     1  C   -0.299260
     2  C   -0.300049
     3  C   -0.479169
     4  H    0.156530
     5  H    0.143921
     6  H    0.155384
     7  H    0.149621
     8  H    0.140003
     9  H    0.169661
    10  H    0.163152
    11  C   -0.298359
    12  C   -0.299857
    13  C   -0.475811
    14  H    0.151116
    15  H    0.147911
    16  H    0.154807
    17  H    0.150452
    18  H    0.154098
    19  H    0.156071
    20  H    0.160755
    21  C   -0.170585
    22  C   -0.221773
    23  C   -0.178370
    24  C    0.159044
    25  C   -0.170225
    26  C   -0.219074
    27  H    0.225367
    28  H    0.222843
    29  H    0.286342
    30  H    0.275461
    31  H    0.223315
    32  N    0.487782
    33  O   -0.460682
    34  O   -0.460423
 Sum of Mulliken charges =  -0.00000

 Dipole moment (field-independent basis, Debye):
    X=              0.4037    Y=             -3.6907    Z=              3.4560  Tot=              5.0723
 Quadrupole moment (field-independent basis, Debye-Ang):
   XX=            -94.7619   YY=            -93.4998   ZZ=            -95.6063
   XY=             13.8185   XZ=             -8.1761   YZ=              1.4328

 Normal termination of Gaussian 16 at Thu May  6 04:08:44 2021.
