 Gaussian 16, Revision A.03,
 Gaussian 16:  EM64L-G16RevA.03 25-Dec-2016

 -------------
 #p 6-31g* mp2
 -------------

 ------------------------------------------------------
 Input file generated by CHIRIPA (05-May-2021 14:51:14)
 ------------------------------------------------------
 Symbolic Z-matrix:
 Charge =  0 Multiplicity = 1

                         Standard orientation:
 ---------------------------------------------------------------------
 Center     Atomic      Atomic             Coordinates (Angstroms)
 Number     Number       Type             X           Y           Z
 ---------------------------------------------------------------------
      1          6           0        3.208027   -0.659228   -0.200323
      2          6           0        2.390592   -1.789359   -0.826892
      3          6           0        2.943227   -3.174930   -0.491358
      4          1           0        4.248702   -0.733669   -0.544413
      5          1           0        3.229102   -0.792378    0.890191
      6          1           0        2.369907   -1.653343   -1.915785
      7          1           0        1.351700   -1.712105   -0.481421
      8          1           0        2.948279   -3.335783    0.591555
      9          1           0        3.972272   -3.276687   -0.850958
     10          1           0        2.343831   -3.967924   -0.949337
     11          6           0        2.667964    0.732008   -0.526700
     12          6           0        3.485398    1.862140    0.099868
     13          6           0        2.932763    3.247710   -0.235665
     14          1           0        2.646888    0.865158   -1.617215
     15          1           0        1.627288    0.806449   -0.182610
     16          1           0        4.524291    1.784886   -0.245603
     17          1           0        3.506083    1.726123    1.188761
     18          1           0        1.903718    3.349467    0.123935
     19          1           0        2.927711    3.408564   -1.318579
     20          1           0        3.532160    4.040704    0.222313
     21          6           0       -3.376711    0.315509   -0.153332
     22          6           0       -4.806805   -0.223383   -0.202454
     23          6           0       -5.672229    0.490609   -1.241228
     24          1           0       -3.404436    1.391351    0.067441
     25          1           0       -2.918969    0.212009   -1.146889
     26          1           0       -5.261246   -0.120166    0.791249
     27          1           0       -4.775664   -1.298106   -0.422947
     28          1           0       -5.244711    0.376796   -2.242665
     29          1           0       -5.733051    1.561428   -1.021571
     30          1           0       -6.690443    0.089653   -1.259448
     31          6           0       -2.499279   -0.388290    0.880355
     32          6           0       -1.069186    0.150603    0.929478
     33          6           0       -0.203762   -0.563390    1.968251
     34          1           0       -2.957022   -0.284789    1.873912
     35          1           0       -2.471555   -1.464131    0.659582
     36          1           0       -1.100325    1.225325    1.149970
     37          1           0       -0.614744    0.047387   -0.064226
     38          1           0       -0.142940   -1.634208    1.748594
     39          1           0       -0.631280   -0.449576    2.969689
     40          1           0        0.814452   -0.162433    1.986472
 ---------------------------------------------------------------------

 SCF Done:  E(RHF) =  -470.732068836     A.U. after   11 cycles
 E2 =    -0.1585073025D+01 EUMP2 =    -0.47231714186079D+03

 The electronic state is 1-A.
 Alpha  occ. eigenvalues --  -11.21689 -11.21630 -11.21575 -11.21552 -11.21461
 Alpha  occ. eigenvalues --  -11.21395 -11.21343 -11.21257 -11.21167 -11.21091
 Alpha  occ. eigenvalues --  -11.21051 -11.21049  -1.08525  -1.08368  -1.03610
 Alpha  occ. eigenvalues --   -1.03495  -0.96077  -0.95927  -0.87070  -0.86960
 Alpha  occ. eigenvalues --   -0.79692  -0.79561  -0.78403  -0.78114  -0.65349
 Alpha  occ. eigenvalues --   -0.64924  -0.61151  -0.60751  -0.59416  -0.59312
 Alpha  occ. eigenvalues --   -0.57749  -0.57500  -0.55334  -0.55208  -0.52733
 Alpha  occ. eigenvalues --   -0.52643  -0.52479  -0.52345  -0.50064  -0.49820
 Alpha  occ. eigenvalues --   -0.48022  -0.47880  -0.46782  -0.46580  -0.46075
 Alpha  occ. eigenvalues --   -0.45800  -0.45716  -0.45250  -0.43836  -0.43743
 Alpha virt. eigenvalues --    0.20194   0.22782   0.23699   0.24537   0.26190
 Alpha virt. eigenvalues --    0.26222   0.26952   0.27412   0.27988   0.29787
 Alpha virt. eigenvalues --    0.30457   0.31488   0.31826   0.31982   0.32295

 Mulliken charges:
               1
     1  C   -0.298535
     2  C   -0.305868
     3  C   -0.475861
     4  H    0.149737
     5  H    0.149775
     6  H    0.151217
     7  H    0.159136
     8  H    0.155558
     9  H    0.155246
    10  H    0.159616
    11  C   -0.310059
    12  C   -0.299393
    13  C   -0.475650
    14  H    0.149048
    15  H    0.162683
    16  H    0.151953
    17  H    0.151054
    18  H    0.155142
    19  H    0.155187
    20  H    0.160073
    21  C   -0.298554
    22  C   -0.299725
    23  C   -0.475753
    24  H    0.149753
    25  H    0.149998
    26  H    0.151979
    27  H    0.152039
    28  H    0.155318
    29  H    0.155250
    30  H    0.160360
    31  C   -0.297540
    32  C   -0.306546
    33  C   -0.481794
    34  H    0.149773
    35  H    0.149768
    36  H    0.152027
    37  H    0.156514
    38  H    0.156051
    39  H    0.156580
    40  H    0.164442
 Sum of Mulliken charges =  -0.00000

 Dipole moment (field-independent basis, Debye):
    X=             -0.0528    Y=              0.0001    Z=              0.0094  Tot=              0.0536
 Quadrupole moment (field-independent basis, Debye-Ang):
   XX=            -85.1244   YY=            -85.6926   ZZ=            -84.1341
   XY=              0.4248   XZ=             -1.2275   YZ=              0.9004

 Normal termination of Gaussian 16 at Thu May  6 05:36:45 2021.
