 Gaussian 16, Revision A.03,
 Gaussian 16:  EM64L-G16RevA.03 25-Dec-2016

 -------------
 #p 6-31g* mp2
 -------------

 ------------------------------------------------------
 Input file generated by CHIRIPA (05-May-2021 14:53:17)
 ------------------------------------------------------
 Symbolic Z-matrix:
 Charge =  0 Multiplicity = 1

                         Standard orientation:
 ---------------------------------------------------------------------
 Center     Atomic      Atomic             Coordinates (Angstroms)
 Number     Number       Type             X           Y           Z
 ---------------------------------------------------------------------
      1          6           0       -5.000046    0.175715    0.180713
      2          6           0       -5.342211    1.390994   -0.681844
      3          6           0       -6.652995    2.060064   -0.267133
      4          1           0       -5.820490   -0.552317    0.119182
      5          1           0       -4.936962    0.487399    1.232506
      6          1           0       -5.403268    1.077377   -1.731860
      7          1           0       -4.520771    2.116133   -0.618404
      8          1           0       -6.599826    2.400465    0.772050
      9          1           0       -7.487337    1.355807   -0.347732
     10          1           0       -6.878287    2.926434   -0.896820
     11          6           0       -3.692404   -0.503922   -0.221650
     12          6           0       -3.350239   -1.719201    0.640908
     13          6           0       -2.039455   -2.388270    0.226197
     14          1           0       -3.755488   -0.815606   -1.273443
     15          1           0       -2.871960    0.224110   -0.160118
     16          1           0       -4.171679   -2.444340    0.577468
     17          1           0       -3.289182   -1.405583    1.690923
     18          1           0       -1.205113   -1.684014    0.306796
     19          1           0       -2.092625   -2.728672   -0.812986
     20          1           0       -1.814163   -3.254641    0.855883
     21          6           0        4.385986    2.441667    0.196925
     22          6           0        5.050368    1.450916   -0.533507
     23          6           0        4.510855    0.165604   -0.640499
     24          6           0        3.299730   -0.095451   -0.001501
     25          6           0        2.613871    0.870333    0.733447
     26          6           0        3.171998    2.148729    0.826959
     27          1           0        4.812321    3.437443    0.274802
     28          1           0        5.993314    1.675565   -1.023843
     29          1           0        5.004093   -0.620220   -1.199619
     30          1           0        1.675454    0.616369    1.211246
     31          1           0        2.653818    2.916188    1.394887
     32          7           0        2.718720   -1.452493   -0.107634
     33          8           0        1.650403   -1.657136    0.464605
     34          8           0        3.342643   -2.285803   -0.761050
 ---------------------------------------------------------------------

 SCF Done:  E(RHF) =  -669.535766129     A.U. after   15 cycles
 E2 =    -0.2090758795D+01 EUMP2 =    -0.67162652492457D+03

 The electronic state is 1-A.
 Alpha  occ. eigenvalues --  -20.60876 -20.60869 -15.85915 -11.31266 -11.27839
 Alpha  occ. eigenvalues --  -11.27828 -11.27574 -11.26849 -11.26838 -11.21361
 Alpha  occ. eigenvalues --  -11.21017 -11.20897 -11.20860 -11.20783 -11.19756
 Alpha  occ. eigenvalues --   -1.59939  -1.39495  -1.19438  -1.08835  -1.07945
 Alpha  occ. eigenvalues --   -1.04840  -1.02945  -0.95676  -0.95357  -0.86366
 Alpha  occ. eigenvalues --   -0.86238  -0.82508  -0.79030  -0.77737  -0.77550
 Alpha  occ. eigenvalues --   -0.72139  -0.71256  -0.70548  -0.65095  -0.64843
 Alpha  occ. eigenvalues --   -0.64587  -0.62189  -0.60345  -0.58795  -0.56971
 Alpha  occ. eigenvalues --   -0.55342  -0.54643  -0.53169  -0.52933  -0.52024
 Alpha  occ. eigenvalues --   -0.51776  -0.49323  -0.48894  -0.48869  -0.47325
 Alpha  occ. eigenvalues --   -0.46095  -0.45283  -0.45208  -0.44825  -0.43205
 Alpha  occ. eigenvalues --   -0.37417  -0.36443
 Alpha virt. eigenvalues --    0.04957   0.11212   0.16432   0.21263   0.23278
 Alpha virt. eigenvalues --    0.24851   0.26876   0.27298   0.27769   0.28090
 Alpha virt. eigenvalues --    0.28926   0.30714   0.31802   0.32188   0.32529

 Mulliken charges:
               1
     1  C   -0.297571
     2  C   -0.298851
     3  C   -0.475320
     4  H    0.149592
     5  H    0.147661
     6  H    0.152014
     7  H    0.149409
     8  H    0.154127
     9  H    0.155437
    10  H    0.158829
    11  C   -0.296606
    12  C   -0.300751
    13  C   -0.477530
    14  H    0.149422
    15  H    0.145803
    16  H    0.148791
    17  H    0.148110
    18  H    0.171035
    19  H    0.152016
    20  H    0.161544
    21  C   -0.170708
    22  C   -0.218504
    23  C   -0.170829
    24  C    0.158101
    25  C   -0.170683
    26  C   -0.218460
    27  H    0.225894
    28  H    0.223749
    29  H    0.275873
    30  H    0.274979
    31  H    0.223647
    32  N    0.492017
    33  O   -0.463062
    34  O   -0.459177
 Sum of Mulliken charges =  -0.00000

 Dipole moment (field-independent basis, Debye):
    X=              2.2992    Y=              4.7230    Z=              0.3621  Tot=              5.2654
 Quadrupole moment (field-independent basis, Debye-Ang):
   XX=            -79.8782   YY=            -95.7986   ZZ=            -93.4978
   XY=             15.4841   XZ=             -0.7933   YZ=              1.2572

 Normal termination of Gaussian 16 at Wed May  5 23:37:18 2021.
