 Gaussian 16, Revision A.03,
 Gaussian 16:  EM64L-G16RevA.03 25-Dec-2016

 -------------
 #p 6-31g* mp2
 -------------

 ------------------------------------------------------
 Input file generated by CHIRIPA (05-May-2021 14:51:11)
 ------------------------------------------------------
 Symbolic Z-matrix:
 Charge =  0 Multiplicity = 1

                         Standard orientation:
 ---------------------------------------------------------------------
 Center     Atomic      Atomic             Coordinates (Angstroms)
 Number     Number       Type             X           Y           Z
 ---------------------------------------------------------------------
      1          6           0        2.752464    1.258179   -0.344617
      2          6           0        2.285788    2.476889    0.452216
      3          6           0        2.201523    3.743530   -0.400024
      4          1           0        3.735819    1.471094   -0.785781
      5          1           0        2.062909    1.091446   -1.183729
      6          1           0        2.975236    2.640444    1.290385
      7          1           0        1.303516    2.260977    0.891693
      8          1           0        1.498740    3.604754   -1.227936
      9          1           0        3.179959    3.986377   -0.826978
     10          1           0        1.865964    4.602456    0.189472
     11          6           0        2.841727   -0.015812    0.493660
     12          6           0        3.308403   -1.234522   -0.303174
     13          6           0        3.392668   -2.501163    0.549067
     14          1           0        3.531282    0.150921    1.332772
     15          1           0        1.858373   -0.228727    0.934823
     16          1           0        4.290676   -1.018610   -0.742650
     17          1           0        2.618955   -1.398077   -1.141342
     18          1           0        2.414232   -2.744010    0.976021
     19          1           0        4.095451   -2.362387    1.376979
     20          1           0        3.728228   -3.360089   -0.040429
     21          6           0       -2.216321   -0.918449   -0.471719
     22          6           0       -1.596391   -2.149593    0.190062
     23          6           0       -0.435766   -2.732904   -0.616469
     24          1           0       -2.565901   -1.187762   -1.477805
     25          1           0       -1.439879   -0.152480   -0.605229
     26          1           0       -2.374075   -2.912487    0.323543
     27          1           0       -1.248420   -1.877366    1.194763
     28          1           0        0.359963   -1.990905   -0.738341
     29          1           0       -0.772088   -3.031907   -1.614511
     30          1           0       -0.007423   -3.612154   -0.125245
     31          6           0       -3.377870   -0.323918    0.322677
     32          6           0       -3.997800    0.907226   -0.339105
     33          6           0       -5.158425    1.490538    0.467427
     34          1           0       -4.154312   -1.089887    0.456187
     35          1           0       -3.028291   -0.054605    1.328763
     36          1           0       -4.345772    0.634998   -1.343805
     37          1           0       -3.220116    1.670120   -0.472585
     38          1           0       -4.822104    1.789541    1.465468
     39          1           0       -5.954155    0.748538    0.589298
     40          1           0       -5.586768    2.369788   -0.023798
 ---------------------------------------------------------------------

 SCF Done:  E(RHF) =  -470.732839070     A.U. after   11 cycles
 E2 =    -0.1583805322D+01 EUMP2 =    -0.47231664439186D+03

 The electronic state is 1-A.
 Alpha  occ. eigenvalues --  -11.21660 -11.21646 -11.21638 -11.21579 -11.21462
 Alpha  occ. eigenvalues --  -11.21441 -11.21400 -11.21381 -11.21104 -11.21097
 Alpha  occ. eigenvalues --  -11.21083 -11.21002  -1.08498  -1.08444  -1.03614
 Alpha  occ. eigenvalues --   -1.03505  -0.96057  -0.95955  -0.87049  -0.86999
 Alpha  occ. eigenvalues --   -0.79651  -0.79596  -0.78302  -0.78266  -0.65315
 Alpha  occ. eigenvalues --   -0.64943  -0.61262  -0.60686  -0.59397  -0.59354
 Alpha  occ. eigenvalues --   -0.57665  -0.57568  -0.55454  -0.55119  -0.52722
 Alpha  occ. eigenvalues --   -0.52668  -0.52458  -0.52397  -0.49980  -0.49901
 Alpha  occ. eigenvalues --   -0.48011  -0.47866  -0.46745  -0.46560  -0.45917
 Alpha  occ. eigenvalues --   -0.45795  -0.45757  -0.45620  -0.43823  -0.43799
 Alpha virt. eigenvalues --    0.19579   0.23132   0.23531   0.24914   0.25780
 Alpha virt. eigenvalues --    0.26650   0.26967   0.27856   0.28430   0.29302
 Alpha virt. eigenvalues --    0.31020   0.31204   0.31405   0.31780   0.32283

 Mulliken charges:
               1
     1  C   -0.298499
     2  C   -0.299596
     3  C   -0.475756
     4  H    0.150169
     5  H    0.149155
     6  H    0.152195
     7  H    0.151241
     8  H    0.155217
     9  H    0.155419
    10  H    0.160337
    11  C   -0.300527
    12  C   -0.303074
    13  C   -0.477684
    14  H    0.150128
    15  H    0.149896
    16  H    0.152837
    17  H    0.154068
    18  H    0.158979
    19  H    0.154453
    20  H    0.160156
    21  C   -0.298690
    22  C   -0.300117
    23  C   -0.483688
    24  H    0.150008
    25  H    0.148792
    26  H    0.152376
    27  H    0.151628
    28  H    0.163101
    29  H    0.155191
    30  H    0.161739
    31  C   -0.298324
    32  C   -0.299699
    33  C   -0.475741
    34  H    0.149814
    35  H    0.149671
    36  H    0.152034
    37  H    0.151844
    38  H    0.155266
    39  H    0.155265
    40  H    0.160419
 Sum of Mulliken charges =  -0.00000

 Dipole moment (field-independent basis, Debye):
    X=             -0.0036    Y=             -0.0127    Z=             -0.0076  Tot=              0.0153
 Quadrupole moment (field-independent basis, Debye-Ang):
   XX=            -84.1046   YY=            -85.5997   ZZ=            -84.9358
   XY=              1.2078   XZ=              0.8998   YZ=              0.6068

 Normal termination of Gaussian 16 at Thu May  6 05:25:52 2021.
