 Gaussian 16, Revision A.03,
 Gaussian 16:  EM64L-G16RevA.03 25-Dec-2016

 -------------
 #p 6-31g* mp2
 -------------

 ------------------------------------------------------
 Input file generated by CHIRIPA (05-May-2021 14:51:10)
 ------------------------------------------------------
 Symbolic Z-matrix:
 Charge =  0 Multiplicity = 1

                         Standard orientation:
 ---------------------------------------------------------------------
 Center     Atomic      Atomic             Coordinates (Angstroms)
 Number     Number       Type             X           Y           Z
 ---------------------------------------------------------------------
      1          6           0        4.133981   -0.539462   -0.316370
      2          6           0        5.165498    0.253926    0.486434
      3          6           0        6.546217    0.262641   -0.170327
      4          1           0        4.489553   -1.571623   -0.439481
      5          1           0        4.058109   -0.112486   -1.325989
      6          1           0        5.238395   -0.173557    1.494680
      7          1           0        4.807340    1.284269    0.607812
      8          1           0        6.494994    0.708421   -1.168955
      9          1           0        6.928498   -0.757688   -0.277048
     10          1           0        7.268087    0.835354    0.420235
     11          6           0        2.748724   -0.557409    0.327422
     12          6           0        1.717208   -1.350797   -0.475382
     13          6           0        0.336489   -1.359512    0.181379
     14          1           0        2.824597   -0.984384    1.337041
     15          1           0        2.393152    0.474753    0.450533
     16          1           0        2.075366   -2.381139   -0.596760
     17          1           0        1.644311   -0.923313   -1.483628
     18          1           0       -0.045792   -0.339183    0.288100
     19          1           0        0.387712   -1.805292    1.180007
     20          1           0       -0.385381   -1.932225   -0.409183
     21          6           0       -2.729256    0.818815    0.051444
     22          6           0       -2.639548    2.334176   -0.131900
     23          6           0       -1.208605    2.860078   -0.015179
     24          1           0       -2.317146    0.549669    1.033621
     25          1           0       -2.094681    0.327470   -0.699082
     26          1           0       -3.275185    2.822473    0.617866
     27          1           0       -3.052096    2.599765   -1.113675
     28          1           0       -0.566039    2.399856   -0.772744
     29          1           0       -0.790397    2.623828    0.968635
     30          1           0       -1.167591    3.945498   -0.149499
     31          6           0       -4.153450    0.278056   -0.062496
     32          6           0       -4.243158   -1.237306    0.120848
     33          6           0       -5.674101   -1.763208    0.004127
     34          1           0       -4.788025    0.769401    0.688030
     35          1           0       -4.565560    0.547202   -1.044672
     36          1           0       -3.830611   -1.502895    1.102624
     37          1           0       -3.607521   -1.725601   -0.628917
     38          1           0       -6.092310   -1.526957   -0.979686
     39          1           0       -6.316667   -1.302985    0.761693
     40          1           0       -5.715114   -2.848627    0.138447
 ---------------------------------------------------------------------

 SCF Done:  E(RHF) =  -470.732124511     A.U. after   11 cycles
 E2 =    -0.1583768117D+01 EUMP2 =    -0.47231589262787D+03

 The electronic state is 1-A.
 Alpha  occ. eigenvalues --  -11.21609 -11.21569 -11.21567 -11.21520 -11.21357
 Alpha  occ. eigenvalues --  -11.21354 -11.21295 -11.21273 -11.21147 -11.21049
 Alpha  occ. eigenvalues --  -11.21045 -11.20872  -1.08429  -1.08362  -1.03545
 Alpha  occ. eigenvalues --   -1.03457  -0.96005  -0.95896  -0.87040  -0.86905
 Alpha  occ. eigenvalues --   -0.79669  -0.79502  -0.78302  -0.78091  -0.65073
 Alpha  occ. eigenvalues --   -0.64983  -0.60958  -0.60858  -0.59382  -0.59267
 Alpha  occ. eigenvalues --   -0.57608  -0.57519  -0.55303  -0.55192  -0.52747
 Alpha  occ. eigenvalues --   -0.52608  -0.52464  -0.52249  -0.49971  -0.49866
 Alpha  occ. eigenvalues --   -0.48054  -0.47729  -0.46694  -0.46607  -0.45889
 Alpha  occ. eigenvalues --   -0.45711  -0.45651  -0.45279  -0.43785  -0.43682
 Alpha virt. eigenvalues --    0.21402   0.22929   0.23575   0.24461   0.26267
 Alpha virt. eigenvalues --    0.26306   0.26570   0.27472   0.28218   0.29714
 Alpha virt. eigenvalues --    0.30420   0.31334   0.31596   0.31726   0.32366

 Mulliken charges:
               1
     1  C   -0.298115
     2  C   -0.299657
     3  C   -0.475666
     4  H    0.149526
     5  H    0.149304
     6  H    0.151797
     7  H    0.152075
     8  H    0.155121
     9  H    0.155089
    10  H    0.160148
    11  C   -0.298885
    12  C   -0.299769
    13  C   -0.482187
    14  H    0.149257
    15  H    0.150387
    16  H    0.151294
    17  H    0.150561
    18  H    0.165697
    19  H    0.153512
    20  H    0.159320
    21  C   -0.302761
    22  C   -0.299041
    23  C   -0.478007
    24  H    0.151297
    25  H    0.155026
    26  H    0.151826
    27  H    0.151727
    28  H    0.154976
    29  H    0.155529
    30  H    0.160918
    31  C   -0.297778
    32  C   -0.300012
    33  C   -0.475723
    34  H    0.149088
    35  H    0.149126
    36  H    0.152601
    37  H    0.152064
    38  H    0.154997
    39  H    0.155146
    40  H    0.160194
 Sum of Mulliken charges =  -0.00000

 Dipole moment (field-independent basis, Debye):
    X=             -0.0402    Y=              0.0260    Z=              0.0122  Tot=              0.0494
 Quadrupole moment (field-independent basis, Debye-Ang):
   XX=            -86.9545   YY=            -84.4205   ZZ=            -83.6276
   XY=             -0.8113   XZ=              0.3101   YZ=             -0.3190

 Normal termination of Gaussian 16 at Wed May  5 23:03:34 2021.
