 Gaussian 16, Revision A.03,
 Gaussian 16:  EM64L-G16RevA.03 25-Dec-2016

 -------------
 #p 6-31g* mp2
 -------------

 ------------------------------------------------------
 Input file generated by CHIRIPA (05-May-2021 14:57:24)
 ------------------------------------------------------
 Symbolic Z-matrix:
 Charge =  0 Multiplicity = 1

                         Standard orientation:
 ---------------------------------------------------------------------
 Center     Atomic      Atomic             Coordinates (Angstroms)
 Number     Number       Type             X           Y           Z
 ---------------------------------------------------------------------
      1          6           0        1.319115   -0.992740   -0.514819
      2          6           0        1.620485    0.372536   -0.473369
      3          6           0        2.919573    0.804599   -0.190103
      4          6           0        3.897225   -0.160223    0.047816
      5          6           0        3.628215   -1.527614    0.013669
      6          6           0        2.322174   -1.936793   -0.271596
      7          1           0        0.307252   -1.319488   -0.735643
      8          1           0        0.843505    1.107943   -0.661851
      9          1           0        3.180460    1.855257   -0.151705
     10          1           0        4.423916   -2.237081    0.205855
     11          1           0        2.091017   -2.997744   -0.303125
     12          7           0        5.276192    0.285070    0.348755
     13          8           0        6.119632   -0.584883    0.554734
     14          8           0        5.487475    1.495611    0.372955
     15          6           0       -4.799799   -1.986747    0.401002
     16          6           0       -3.969903   -1.813650   -0.711576
     17          6           0       -3.338756   -0.587770   -0.942706
     18          6           0       -3.560725    0.448268   -0.036813
     19          6           0       -4.381856    0.306841    1.080789
     20          6           0       -5.002769   -0.927816    1.292063
     21          1           0       -5.286114   -2.942449    0.572837
     22          1           0       -3.810448   -2.634273   -1.405260
     23          1           0       -2.691236   -0.426381   -1.795987
     24          1           0       -4.521566    1.143395    1.754641
     25          1           0       -5.646747   -1.059376    2.156949
     26          7           0       -2.897975    1.750699   -0.270989
     27          8           0       -3.109777    2.647818    0.542002
     28          8           0       -2.179259    1.849763   -1.263093
 ---------------------------------------------------------------------

 SCF Done:  E(RHF) =  -868.339292875     A.U. after   16 cycles
 E2 =    -0.2599228439D+01 EUMP2 =    -0.87093852131398D+03

 The electronic state is 1-A.
 Alpha  occ. eigenvalues --  -20.61935 -20.61869 -20.60418 -20.60404 -15.86926
 Alpha  occ. eigenvalues --  -15.85461 -11.32183 -11.30779 -11.28777 -11.28671
 Alpha  occ. eigenvalues --  -11.28399 -11.27736 -11.27656 -11.27369 -11.27241
 Alpha  occ. eigenvalues --  -11.27090 -11.26433 -11.26154  -1.60961  -1.59489
 Alpha  occ. eigenvalues --   -1.40519  -1.39044  -1.20330  -1.18933  -1.09736
 Alpha  occ. eigenvalues --   -1.08350  -1.05714  -1.04306  -0.96592  -0.95197
 Alpha  occ. eigenvalues --   -0.87111  -0.85711  -0.83427  -0.82013  -0.78501
 Alpha  occ. eigenvalues --   -0.77056  -0.73138  -0.72274  -0.71681  -0.71417
 Alpha  occ. eigenvalues --   -0.70811  -0.70081  -0.65978  -0.65699  -0.64581
 Alpha  occ. eigenvalues --   -0.64276  -0.63060  -0.61631  -0.56188  -0.54877
 Alpha  occ. eigenvalues --   -0.54036  -0.53790  -0.52669  -0.52372  -0.49916
 Alpha  occ. eigenvalues --   -0.49883  -0.48440  -0.48434  -0.45932  -0.44459
 Alpha  occ. eigenvalues --   -0.38283  -0.37318  -0.36944  -0.35906
 Alpha virt. eigenvalues --    0.03969   0.05440   0.10281   0.11737   0.15487
 Alpha virt. eigenvalues --    0.16948   0.20168   0.21870   0.25941   0.27021
 Alpha virt. eigenvalues --    0.28042   0.28744   0.30426   0.31129   0.32104

 Mulliken charges:
               1
     1  C   -0.172681
     2  C   -0.225951
     3  C   -0.171934
     4  C    0.158786
     5  C   -0.172483
     6  C   -0.218406
     7  H    0.218479
     8  H    0.243080
     9  H    0.277738
    10  H    0.273535
    11  H    0.218998
    12  N    0.487968
    13  O   -0.462403
    14  O   -0.459615
    15  C   -0.170068
    16  C   -0.219097
    17  C   -0.177472
    18  C    0.158891
    19  C   -0.169863
    20  C   -0.217697
    21  H    0.228873
    22  H    0.224755
    23  H    0.273081
    24  H    0.278452
    25  H    0.227283
    26  N    0.487934
    27  O   -0.453219
    28  O   -0.466963
 Sum of Mulliken charges =  -0.00000

 Dipole moment (field-independent basis, Debye):
    X=             -7.6070    Y=             -5.9980    Z=             -0.1101  Tot=              9.6879
 Quadrupole moment (field-independent basis, Debye-Ang):
   XX=           -125.0587   YY=           -103.6366   ZZ=           -102.5964
   XY=              8.1265   XZ=             -9.7551   YZ=              1.9316

 Normal termination of Gaussian 16 at Wed May  5 22:43:04 2021.
