 Gaussian 16, Revision A.03,
 Gaussian 16:  EM64L-G16RevA.03 25-Dec-2016

 -------------
 #p 6-31g* mp2
 -------------

 ------------------------------------------------------
 Input file generated by CHIRIPA (05-May-2021 14:57:23)
 ------------------------------------------------------
 Symbolic Z-matrix:
 Charge =  0 Multiplicity = 1

                         Standard orientation:
 ---------------------------------------------------------------------
 Center     Atomic      Atomic             Coordinates (Angstroms)
 Number     Number       Type             X           Y           Z
 ---------------------------------------------------------------------
      1          6           0        2.416934    2.571111   -0.305947
      2          6           0        1.509539    1.549446   -0.007022
      3          6           0        1.933956    0.218864    0.055994
      4          6           0        3.279038   -0.055445   -0.186492
      5          6           0        4.207244    0.940333   -0.486742
      6          6           0        3.760521    2.263835   -0.544433
      7          1           0        2.078573    3.601989   -0.352832
      8          1           0        0.465497    1.785136    0.178641
      9          1           0        1.252787   -0.591603    0.285275
     10          1           0        5.241728    0.674359   -0.667066
     11          1           0        4.467449    3.055227   -0.776807
     12          7           0        3.740156   -1.460325   -0.122599
     13          8           0        4.930467   -1.675797   -0.340243
     14          8           0        2.902538   -2.319396    0.143915
     15          6           0       -1.313910   -0.350842    1.860326
     16          6           0       -1.453474   -1.314152    0.855798
     17          6           0       -2.496403   -1.227354   -0.071195
     18          6           0       -3.385674   -0.159202    0.036221
     19          6           0       -3.273131    0.816281    1.025694
     20          6           0       -2.222582    0.709431    1.941924
     21          1           0       -0.500779   -0.426057    2.576255
     22          1           0       -0.749273   -2.138662    0.790012
     23          1           0       -2.627839   -1.959251   -0.858894
     24          1           0       -3.990767    1.626718    1.065819
     25          1           0       -2.116646    1.459004    2.721002
     26          7           0       -4.493809   -0.056699   -0.939448
     27          8           0       -5.264044    0.894033   -0.823325
     28          8           0       -4.571148   -0.929030   -1.801825
 ---------------------------------------------------------------------

 SCF Done:  E(RHF) =  -868.338144871     A.U. after   16 cycles
 E2 =    -0.2602068903D+01 EUMP2 =    -0.87094021377470D+03

 The electronic state is 1-A.
 Alpha  occ. eigenvalues --  -20.61382 -20.61344 -20.61275 -20.61261 -15.86408
 Alpha  occ. eigenvalues --  -15.86329 -11.31859 -11.31653 -11.28484 -11.28401
 Alpha  occ. eigenvalues --  -11.28219 -11.28184 -11.28172 -11.27897 -11.27531
 Alpha  occ. eigenvalues --  -11.27388 -11.27184 -11.27130  -1.60432  -1.60344
 Alpha  occ. eigenvalues --   -1.39994  -1.39891  -1.20075  -1.19805  -1.09443
 Alpha  occ. eigenvalues --   -1.09220  -1.05479  -1.05182  -0.96240  -0.96071
 Alpha  occ. eigenvalues --   -0.86895  -0.86564  -0.83043  -0.82903  -0.78096
 Alpha  occ. eigenvalues --   -0.77952  -0.72637  -0.72540  -0.71749  -0.71672
 Alpha  occ. eigenvalues --   -0.71188  -0.70883  -0.65722  -0.65501  -0.65454
 Alpha  occ. eigenvalues --   -0.65105  -0.62838  -0.62492  -0.55948  -0.55714
 Alpha  occ. eigenvalues --   -0.53770  -0.53542  -0.53524  -0.53244  -0.49404
 Alpha  occ. eigenvalues --   -0.49362  -0.49311  -0.49287  -0.45424  -0.45259
 Alpha  occ. eigenvalues --   -0.38091  -0.37781  -0.37106  -0.36755
 Alpha virt. eigenvalues --    0.04307   0.04665   0.10342   0.10844   0.15728
 Alpha virt. eigenvalues --    0.16206   0.20145   0.21685   0.25826   0.27086
 Alpha virt. eigenvalues --    0.27699   0.28766   0.30143   0.30849   0.31471

 Mulliken charges:
               1
     1  C   -0.170696
     2  C   -0.225831
     3  C   -0.177921
     4  C    0.159700
     5  C   -0.170131
     6  C   -0.218422
     7  H    0.227063
     8  H    0.228241
     9  H    0.273445
    10  H    0.276542
    11  H    0.225069
    12  N    0.488456
    13  O   -0.456771
    14  O   -0.467524
    15  C   -0.178227
    16  C   -0.233016
    17  C   -0.169847
    18  C    0.158330
    19  C   -0.171988
    20  C   -0.224362
    21  H    0.232576
    22  H    0.239952
    23  H    0.281110
    24  H    0.277408
    25  H    0.225440
    26  N    0.487961
    27  O   -0.459637
    28  O   -0.456922
 Sum of Mulliken charges =  -0.00000

 Dipole moment (field-independent basis, Debye):
    X=              2.1225    Y=              4.5541    Z=              3.1579  Tot=              5.9343
 Quadrupole moment (field-independent basis, Debye-Ang):
   XX=           -136.9124   YY=           -101.8075   ZZ=           -104.4337
   XY=             17.5259   XZ=            -14.1007   YZ=              0.2386

 Normal termination of Gaussian 16 at Wed May  5 19:23:51 2021.
