 Gaussian 16, Revision A.03,
 Gaussian 16:  EM64L-G16RevA.03 25-Dec-2016

 -------------
 #p 6-31g* mp2
 -------------

 ------------------------------------------------------
 Input file generated by CHIRIPA (05-May-2021 14:53:16)
 ------------------------------------------------------
 Symbolic Z-matrix:
 Charge =  0 Multiplicity = 1

                         Standard orientation:
 ---------------------------------------------------------------------
 Center     Atomic      Atomic             Coordinates (Angstroms)
 Number     Number       Type             X           Y           Z
 ---------------------------------------------------------------------
      1          6           0       -3.204698    1.108362    0.211018
      2          6           0       -2.061356    2.123590    0.202931
      3          6           0       -2.452884    3.459897    0.834425
      4          1           0       -4.065452    1.530769   -0.325285
      5          1           0       -3.532070    0.943514    1.246898
      6          1           0       -1.735313    2.285433   -0.832501
      7          1           0       -1.203158    1.698642    0.739150
      8          1           0       -2.758344    3.318850    1.876251
      9          1           0       -3.293523    3.908975    0.295670
     10          1           0       -1.620845    4.170744    0.818101
     11          6           0       -2.828675   -0.232535   -0.416940
     12          6           0       -3.972017   -1.247763   -0.408853
     13          6           0       -3.580489   -2.584070   -1.040347
     14          1           0       -2.501303   -0.067687   -1.452820
     15          1           0       -1.967921   -0.654942    0.119363
     16          1           0       -4.830215   -0.822814   -0.945072
     17          1           0       -4.298060   -1.409606    0.626579
     18          1           0       -2.739850   -3.033148   -0.501592
     19          1           0       -3.275030   -2.443022   -2.082173
     20          1           0       -4.412528   -3.294917   -1.024023
     21          6           0        3.560137    0.864643   -1.780097
     22          6           0        4.079455    0.885395   -0.481483
     23          6           0        3.421150    0.220269    0.557166
     24          6           0        2.240451   -0.458786    0.260308
     25          6           0        1.697894   -0.497888   -1.023200
     26          6           0        2.373107    0.174284   -2.046343
     27          1           0        4.078091    1.384066   -2.580921
     28          1           0        5.001136    1.420725   -0.271793
     29          1           0        3.800998    0.220076    1.571627
     30          1           0        0.777199   -1.040075   -1.201442
     31          1           0        1.967472    0.156464   -3.053907
     32          7           0        1.534583   -1.166654    1.351671
     33          8           0        0.496005   -1.757690    1.064146
     34          8           0        2.033268   -1.117044    2.473940
 ---------------------------------------------------------------------

 SCF Done:  E(RHF) =  -669.536605767     A.U. after   15 cycles
 E2 =    -0.2091942437D+01 EUMP2 =    -0.67162854820442D+03

 The electronic state is 1-A.
 Alpha  occ. eigenvalues --  -20.60981 -20.60967 -15.86001 -11.31264 -11.27830
 Alpha  occ. eigenvalues --  -11.27808 -11.27561 -11.26825 -11.26809 -11.21342
 Alpha  occ. eigenvalues --  -11.21063 -11.20962 -11.20856 -11.20763 -11.20528
 Alpha  occ. eigenvalues --   -1.60033  -1.39590  -1.19430  -1.08848  -1.07978
 Alpha  occ. eigenvalues --   -1.04817  -1.03117  -0.95699  -0.95558  -0.86582
 Alpha  occ. eigenvalues --   -0.86222  -0.82534  -0.79196  -0.77851  -0.77535
 Alpha  occ. eigenvalues --   -0.72227  -0.71341  -0.70540  -0.65095  -0.64824
 Alpha  occ. eigenvalues --   -0.64580  -0.62165  -0.60504  -0.58944  -0.57180
 Alpha  occ. eigenvalues --   -0.55330  -0.54831  -0.53152  -0.52912  -0.52284
 Alpha  occ. eigenvalues --   -0.51993  -0.49501  -0.48992  -0.48974  -0.47515
 Alpha  occ. eigenvalues --   -0.46222  -0.45489  -0.45331  -0.44694  -0.43355
 Alpha  occ. eigenvalues --   -0.37409  -0.36411
 Alpha virt. eigenvalues --    0.04894   0.11214   0.16367   0.21119   0.23285
 Alpha virt. eigenvalues --    0.24513   0.26460   0.26978   0.27661   0.28400
 Alpha virt. eigenvalues --    0.28948   0.31017   0.31716   0.31977   0.32328

 Mulliken charges:
               1
     1  C   -0.297062
     2  C   -0.299050
     3  C   -0.475364
     4  H    0.146698
     5  H    0.152638
     6  H    0.146269
     7  H    0.153071
     8  H    0.157326
     9  H    0.153947
    10  H    0.157702
    11  C   -0.313245
    12  C   -0.297643
    13  C   -0.478737
    14  H    0.138015
    15  H    0.175472
    16  H    0.147968
    17  H    0.154816
    18  H    0.165916
    19  H    0.148195
    20  H    0.158649
    21  C   -0.170305
    22  C   -0.218700
    23  C   -0.170786
    24  C    0.157402
    25  C   -0.170344
    26  C   -0.218937
    27  H    0.225904
    28  H    0.223661
    29  H    0.275568
    30  H    0.278476
    31  H    0.223947
    32  N    0.489413
    33  O   -0.462286
    34  O   -0.458598
 Sum of Mulliken charges =  -0.00000

 Dipole moment (field-independent basis, Debye):
    X=              2.6440    Y=              2.3910    Z=             -3.6843  Tot=              5.1266
 Quadrupole moment (field-independent basis, Debye-Ang):
   XX=            -81.7203   YY=            -98.4876   ZZ=            -94.4797
   XY=              5.9943   XZ=             -5.6854   YZ=              2.5971

 Normal termination of Gaussian 16 at Thu May  6 04:19:09 2021.
