 Gaussian 16, Revision A.03,
 Gaussian 16:  EM64L-G16RevA.03 25-Dec-2016

 -------------
 #p 6-31g* mp2
 -------------

 ------------------------------------------------------
 Input file generated by CHIRIPA (05-May-2021 14:55:22)
 ------------------------------------------------------
 Symbolic Z-matrix:
 Charge =  0 Multiplicity = 1

                         Standard orientation:
 ---------------------------------------------------------------------
 Center     Atomic      Atomic             Coordinates (Angstroms)
 Number     Number       Type             X           Y           Z
 ---------------------------------------------------------------------
      1          6           0        3.493565   -2.488743    0.302488
      2          6           0        4.157046   -1.620984   -0.571188
      3          6           0        3.719466   -0.302828   -0.730990
      4          6           0        2.610088    0.116131    0.001842
      5          6           0        1.927921   -0.724513    0.880053
      6          6           0        2.383078   -2.038531    1.024048
      7          1           0        3.840315   -3.511111    0.420487
      8          1           0        5.019740   -1.967887   -1.132849
      9          1           0        4.214470    0.390073   -1.400526
     10          1           0        1.070841   -0.349858    1.426375
     11          1           0        1.865857   -2.710231    1.703273
     12          7           0        2.137538    1.509414   -0.158966
     13          8           0        1.157728    1.854165    0.498116
     14          8           0        2.755910    2.230336   -0.939046
     15          6           0       -3.694032   -0.523350    0.232311
     16          6           0       -4.320572   -1.410818   -0.843716
     17          6           0       -4.822844   -2.744965   -0.290934
     18          1           0       -2.861693   -1.062842    0.704650
     19          1           0       -4.435000   -0.338335    1.022332
     20          1           0       -3.579084   -1.592964   -1.632153
     21          1           0       -5.151394   -0.869076   -1.313680
     22          1           0       -5.581602   -2.580943    0.481065
     23          1           0       -4.000358   -3.308944    0.160782
     24          1           0       -5.266890   -3.363601   -1.077046
     25          6           0       -3.187170    0.813906   -0.304874
     26          6           0       -2.560631    1.701375    0.771152
     27          6           0       -2.058359    3.035522    0.218371
     28          1           0       -2.446204    0.628892   -1.094894
     29          1           0       -4.019509    1.353398   -0.777213
     30          1           0       -1.729810    1.159633    1.241117
     31          1           0       -3.302119    1.883521    1.559590
     32          1           0       -2.880845    3.599501   -0.233345
     33          1           0       -1.299600    2.871499   -0.553628
     34          1           0       -1.614312    3.654157    1.004483
 ---------------------------------------------------------------------

 SCF Done:  E(RHF) =  -669.535753165     A.U. after   15 cycles
 E2 =    -0.2091900704D+01 EUMP2 =    -0.67162765386816D+03

 The electronic state is 1-A.
 Alpha  occ. eigenvalues --  -20.60973 -20.60966 -15.86000 -11.31322 -11.27888
 Alpha  occ. eigenvalues --  -11.27880 -11.27618 -11.26890 -11.26880 -11.21390
 Alpha  occ. eigenvalues --  -11.21060 -11.20993 -11.20730 -11.20588 -11.19540
 Alpha  occ. eigenvalues --   -1.60036  -1.39592  -1.19490  -1.08894  -1.07893
 Alpha  occ. eigenvalues --   -1.04885  -1.02852  -0.95745  -0.95281  -0.86320
 Alpha  occ. eigenvalues --   -0.86275  -0.82569  -0.78993  -0.77676  -0.77595
 Alpha  occ. eigenvalues --   -0.72234  -0.71354  -0.70597  -0.65152  -0.64888
 Alpha  occ. eigenvalues --   -0.64523  -0.62234  -0.60223  -0.58759  -0.56886
 Alpha  occ. eigenvalues --   -0.55389  -0.54572  -0.53215  -0.52978  -0.51956
 Alpha  occ. eigenvalues --   -0.51725  -0.49400  -0.48981  -0.48832  -0.47284
 Alpha  occ. eigenvalues --   -0.46042  -0.45232  -0.45071  -0.44898  -0.43127
 Alpha  occ. eigenvalues --   -0.37467  -0.36486
 Alpha virt. eigenvalues --    0.04876   0.11162   0.16359   0.20740   0.23100
 Alpha virt. eigenvalues --    0.24536   0.26055   0.27446   0.27705   0.28743
 Alpha virt. eigenvalues --    0.28951   0.30453   0.31557   0.32189   0.33101

 Mulliken charges:
               1
     1  C   -0.170455
     2  C   -0.218604
     3  C   -0.170579
     4  C    0.157483
     5  C   -0.171820
     6  C   -0.218950
     7  H    0.226171
     8  H    0.223948
     9  H    0.275920
    10  H    0.277169
    11  H    0.224158
    12  N    0.490706
    13  O   -0.461771
    14  O   -0.458855
    15  C   -0.295910
    16  C   -0.299088
    17  C   -0.474861
    18  H    0.142169
    19  H    0.148889
    20  H    0.150884
    21  H    0.152775
    22  H    0.155209
    23  H    0.151541
    24  H    0.159379
    25  C   -0.298281
    26  C   -0.300232
    27  C   -0.469710
    28  H    0.149200
    29  H    0.148505
    30  H    0.153659
    31  H    0.145440
    32  H    0.143914
    33  H    0.169204
    34  H    0.162795
 Sum of Mulliken charges =  -0.00000

 Dipole moment (field-independent basis, Debye):
    X=              1.9507    Y=             -4.8077    Z=              0.5318  Tot=              5.2156
 Quadrupole moment (field-independent basis, Debye-Ang):
   XX=            -83.7554   YY=            -97.1982   ZZ=            -93.2013
   XY=            -12.9096   XZ=             -1.3326   YZ=             -0.3477

 Normal termination of Gaussian 16 at Thu May  6 03:03:36 2021.
