 Gaussian 16, Revision A.03,
 Gaussian 16:  EM64L-G16RevA.03 25-Dec-2016

 -------------
 #p 6-31g* mp2
 -------------

 ------------------------------------------------------
 Input file generated by CHIRIPA (05-May-2021 14:55:24)
 ------------------------------------------------------
 Symbolic Z-matrix:
 Charge =  0 Multiplicity = 1

                         Standard orientation:
 ---------------------------------------------------------------------
 Center     Atomic      Atomic             Coordinates (Angstroms)
 Number     Number       Type             X           Y           Z
 ---------------------------------------------------------------------
      1          6           0        4.209025    1.364006    0.628607
      2          6           0        4.416162    0.062614    1.097642
      3          6           0        3.562558   -0.975318    0.712148
      4          6           0        2.507016   -0.674919   -0.147434
      5          6           0        2.274490    0.611414   -0.631756
      6          6           0        3.140733    1.633777   -0.233076
      7          1           0        4.877034    2.164249    0.933190
      8          1           0        5.244996   -0.149818    1.766935
      9          1           0        3.699844   -1.991879    1.060249
     10          1           0        1.439670    0.792362   -1.297902
     11          1           0        2.977449    2.643504   -0.598908
     12          7           0        1.596653   -1.765490   -0.562519
     13          8           0        0.673978   -1.474823   -1.320688
     14          8           0        1.823023   -2.890297   -0.121833
     15          6           0       -3.962644    0.312520    0.507081
     16          6           0       -4.465701   -1.002651   -0.088943
     17          6           0       -5.589169   -1.633330    0.734379
     18          1           0       -3.611198    0.132414    1.532261
     19          1           0       -4.802286    1.017159    0.583757
     20          1           0       -3.625076   -1.704125   -0.165756
     21          1           0       -4.815813   -0.819432   -1.112890
     22          1           0       -6.445822   -0.954829    0.800593
     23          1           0       -5.248319   -1.844549    1.753108
     24          1           0       -5.933742   -2.572463    0.290356
     25          6           0       -2.839415    0.955141   -0.304783
     26          6           0       -2.336358    2.270313    0.291241
     27          6           0       -1.212890    2.900990   -0.532081
     28          1           0       -1.999773    0.250503   -0.381459
     29          1           0       -3.190861    1.135247   -1.329962
     30          1           0       -1.986246    2.087093    1.315189
     31          1           0       -3.176983    2.971787    0.368054
     32          1           0       -1.553740    3.112210   -1.550810
     33          1           0       -0.356238    2.222489   -0.598294
     34          1           0       -0.868317    3.840124   -0.088058
 ---------------------------------------------------------------------

 SCF Done:  E(RHF) =  -669.535842928     A.U. after   15 cycles
 E2 =    -0.2091854754D+01 EUMP2 =    -0.67162769768273D+03

 The electronic state is 1-A.
 Alpha  occ. eigenvalues --  -20.60902 -20.60896 -15.85935 -11.31259 -11.27824
 Alpha  occ. eigenvalues --  -11.27799 -11.27554 -11.26836 -11.26817 -11.21496
 Alpha  occ. eigenvalues --  -11.21305 -11.20973 -11.20913 -11.20856 -11.20545
 Alpha  occ. eigenvalues --   -1.59964  -1.39518  -1.19430  -1.08831  -1.08031
 Alpha  occ. eigenvalues --   -1.04827  -1.03229  -0.95715  -0.95661  -0.86739
 Alpha  occ. eigenvalues --   -0.86222  -0.82502  -0.79298  -0.77799  -0.77543
 Alpha  occ. eigenvalues --   -0.72153  -0.71279  -0.70545  -0.65082  -0.64850
 Alpha  occ. eigenvalues --   -0.64642  -0.62210  -0.60613  -0.59089  -0.57288
 Alpha  occ. eigenvalues --   -0.55356  -0.54982  -0.53156  -0.52930  -0.52434
 Alpha  occ. eigenvalues --   -0.52108  -0.49659  -0.48911  -0.48909  -0.47607
 Alpha  occ. eigenvalues --   -0.46301  -0.45371  -0.45277  -0.44833  -0.43444
 Alpha  occ. eigenvalues --   -0.37407  -0.36409
 Alpha virt. eigenvalues --    0.04910   0.11178   0.16395   0.20716   0.23270
 Alpha virt. eigenvalues --    0.24350   0.26009   0.27234   0.27700   0.28304
 Alpha virt. eigenvalues --    0.29388   0.30748   0.31514   0.31821   0.32282

 Mulliken charges:
               1
     1  C   -0.170817
     2  C   -0.218306
     3  C   -0.171076
     4  C    0.158373
     5  C   -0.174051
     6  C   -0.218771
     7  H    0.225985
     8  H    0.223734
     9  H    0.275663
    10  H    0.279586
    11  H    0.225189
    12  N    0.488103
    13  O   -0.461009
    14  O   -0.459375
    15  C   -0.297977
    16  C   -0.301430
    17  C   -0.475588
    18  H    0.148365
    19  H    0.146473
    20  H    0.161628
    21  H    0.151223
    22  H    0.152508
    23  H    0.154406
    24  H    0.160665
    25  C   -0.304606
    26  C   -0.298410
    27  C   -0.478851
    28  H    0.164204
    29  H    0.149016
    30  H    0.151259
    31  H    0.151534
    32  H    0.156971
    33  H    0.148537
    34  H    0.156845
 Sum of Mulliken charges =  -0.00000

 Dipole moment (field-independent basis, Debye):
    X=              3.2844    Y=              3.7078    Z=              1.4392  Tot=              5.1581
 Quadrupole moment (field-independent basis, Debye-Ang):
   XX=            -78.0828   YY=            -98.5428   ZZ=            -94.2743
   XY=              5.0722   XZ=              5.9804   YZ=             -3.5943

 Normal termination of Gaussian 16 at Thu May  6 14:21:09 2021.
