 Gaussian 16, Revision A.03,
 Gaussian 16:  EM64L-G16RevA.03 25-Dec-2016

 -------------
 #p 6-31g* mp2
 -------------

 ------------------------------------------------------
 Input file generated by CHIRIPA (05-May-2021 14:51:11)
 ------------------------------------------------------
 Symbolic Z-matrix:
 Charge =  0 Multiplicity = 1

                         Standard orientation:
 ---------------------------------------------------------------------
 Center     Atomic      Atomic             Coordinates (Angstroms)
 Number     Number       Type             X           Y           Z
 ---------------------------------------------------------------------
      1          6           0       -2.407553   -1.328561    0.498747
      2          6           0       -0.936762   -1.710055    0.669696
      3          6           0       -0.748885   -2.989597    1.485336
      4          1           0       -2.864992   -1.203846    1.489777
      5          1           0       -2.939683   -2.156939    0.010873
      6          1           0       -0.407276   -0.880650    1.155852
      7          1           0       -0.482722   -1.833688   -0.321857
      8          1           0       -1.251782   -3.832702    1.000703
      9          1           0       -1.175907   -2.874249    2.486809
     10          1           0        0.309965   -3.243805    1.595225
     11          6           0       -2.611608   -0.051531   -0.314446
     12          6           0       -4.082398    0.329963   -0.485395
     13          6           0       -4.270276    1.609505   -1.301034
     14          1           0       -2.079477    0.776847    0.173428
     15          1           0       -2.154168   -0.176245   -1.305476
     16          1           0       -4.536438    0.453597    0.506159
     17          1           0       -4.611884   -0.499442   -0.971551
     18          1           0       -3.843254    1.494157   -2.302507
     19          1           0       -3.767379    2.452611   -0.816402
     20          1           0       -5.329125    1.863713   -1.410923
     21          6           0        3.021116    0.305585   -0.509228
     22          6           0        2.759257   -1.200242   -0.552809
     23          6           0        3.791015   -1.955669   -1.391021
     24          1           0        3.023172    0.700780   -1.534294
     25          1           0        4.026454    0.484282   -0.103324
     26          1           0        1.754179   -1.375989   -0.957219
     27          1           0        2.757634   -1.591865    0.472493
     28          1           0        4.797668   -1.809826   -0.986077
     29          1           0        3.788512   -1.592723   -2.423912
     30          1           0        3.584810   -3.030394   -1.408571
     31          6           0        1.998044    1.074507    0.324926
     32          6           0        2.259903    2.580334    0.368507
     33          6           0        1.228146    3.335761    1.206720
     34          1           0        0.992706    0.895810   -0.080978
     35          1           0        1.995988    0.679312    1.349992
     36          1           0        2.261526    2.971958   -0.656795
     37          1           0        3.264981    2.756081    0.772917
     38          1           0        1.230649    2.972815    2.239611
     39          1           0        0.221492    3.189918    0.801776
     40          1           0        1.434350    4.410486    1.224270
 ---------------------------------------------------------------------

 SCF Done:  E(RHF) =  -470.732450878     A.U. after   11 cycles
 E2 =    -0.1584688027D+01 EUMP2 =    -0.47231713890476D+03

 The electronic state is 1-A.
 Alpha  occ. eigenvalues --  -11.21623 -11.21593 -11.21535 -11.21486 -11.21422
 Alpha  occ. eigenvalues --  -11.21372 -11.21332 -11.21309 -11.21099 -11.21095
 Alpha  occ. eigenvalues --  -11.21048 -11.21022  -1.08469  -1.08369  -1.03547
 Alpha  occ. eigenvalues --   -1.03484  -0.95973  -0.95968  -0.86992  -0.86982
 Alpha  occ. eigenvalues --   -0.79689  -0.79526  -0.78508  -0.77937  -0.65080
 Alpha  occ. eigenvalues --   -0.65028  -0.61009  -0.60835  -0.59452  -0.59237
 Alpha  occ. eigenvalues --   -0.57612  -0.57548  -0.55277  -0.55243  -0.52700
 Alpha  occ. eigenvalues --   -0.52629  -0.52436  -0.52362  -0.49971  -0.49866
 Alpha  occ. eigenvalues --   -0.48086  -0.47878  -0.46776  -0.46467  -0.46333
 Alpha  occ. eigenvalues --   -0.45789  -0.45518  -0.45025  -0.43776  -0.43744
 Alpha virt. eigenvalues --    0.21079   0.22468   0.23523   0.24330   0.24850
 Alpha virt. eigenvalues --    0.26052   0.26667   0.27503   0.28355   0.29849
 Alpha virt. eigenvalues --    0.30289   0.31035   0.31328   0.31868   0.32236

 Mulliken charges:
               1
     1  C   -0.297693
     2  C   -0.306278
     3  C   -0.476829
     4  H    0.149408
     5  H    0.149097
     6  H    0.159031
     7  H    0.153967
     8  H    0.154572
     9  H    0.154742
    10  H    0.161141
    11  C   -0.300411
    12  C   -0.299543
    13  C   -0.475743
    14  H    0.150687
    15  H    0.148641
    16  H    0.152278
    17  H    0.152161
    18  H    0.154979
    19  H    0.155036
    20  H    0.160478
    21  C   -0.297879
    22  C   -0.304889
    23  C   -0.475415
    24  H    0.149238
    25  H    0.149123
    26  H    0.158355
    27  H    0.151865
    28  H    0.154951
    29  H    0.154815
    30  H    0.159923
    31  C   -0.303471
    32  C   -0.299147
    33  C   -0.476525
    34  H    0.156150
    35  H    0.148957
    36  H    0.151993
    37  H    0.151811
    38  H    0.154828
    39  H    0.155032
    40  H    0.160563
 Sum of Mulliken charges =  -0.00000

 Dipole moment (field-independent basis, Debye):
    X=             -0.0053    Y=              0.0036    Z=             -0.0005  Tot=              0.0064
 Quadrupole moment (field-independent basis, Debye-Ang):
   XX=            -85.1186   YY=            -85.8688   ZZ=            -84.0079
   XY=              0.6674   XZ=              0.7489   YZ=              0.5024

 Normal termination of Gaussian 16 at Wed May  5 15:15:44 2021.
