 Gaussian 16, Revision A.03,
 Gaussian 16:  EM64L-G16RevA.03 25-Dec-2016

 -------------
 #p 6-31g* mp2
 -------------

 ------------------------------------------------------
 Input file generated by CHIRIPA (05-May-2021 14:55:19)
 ------------------------------------------------------
 Symbolic Z-matrix:
 Charge =  0 Multiplicity = 1

                         Standard orientation:
 ---------------------------------------------------------------------
 Center     Atomic      Atomic             Coordinates (Angstroms)
 Number     Number       Type             X           Y           Z
 ---------------------------------------------------------------------
      1          6           0       -2.973996    2.641465    0.279820
      2          6           0       -4.147702    1.914774    0.505327
      3          6           0       -4.199503    0.545582    0.227519
      4          6           0       -3.053900   -0.067706   -0.277221
      5          6           0       -1.869659    0.629043   -0.512600
      6          6           0       -1.840718    1.997416   -0.227529
      7          1           0       -2.942634    3.704769    0.498449
      8          1           0       -5.029345    2.412325    0.899273
      9          1           0       -5.095046   -0.041062    0.392657
     10          1           0       -1.006864    0.105387   -0.906030
     11          1           0       -0.927829    2.559252   -0.403651
     12          7           0       -3.096640   -1.516775   -0.575168
     13          8           0       -2.073794   -2.033719   -1.019231
     14          8           0       -4.152175   -2.108172   -0.358994
     15          6           0        3.144007   -0.153518    0.379450
     16          6           0        2.537921   -1.249185    1.257038
     17          6           0        1.024823   -1.104555    1.422603
     18          1           0        2.913722    0.827408    0.817284
     19          1           0        2.662373   -0.175941   -0.607931
     20          1           0        3.021526   -1.225599    2.242018
     21          1           0        2.769839   -2.227625    0.817169
     22          1           0        0.524746   -1.150022    0.449744
     23          1           0        0.777862   -0.142302    1.882689
     24          1           0        0.612330   -1.898072    2.053507
     25          6           0        4.655946   -0.284544    0.204525
     26          6           0        5.262032    0.811122   -0.673063
     27          6           0        6.775129    0.666493   -0.838628
     28          1           0        5.137580   -0.262121    1.191906
     29          1           0        4.886231   -1.265471   -0.233308
     30          1           0        5.030114    1.789563   -0.233193
     31          1           0        4.778426    0.787537   -1.658043
     32          1           0        7.022090   -0.295760   -1.298714
     33          1           0        7.275208    0.711960    0.134231
     34          1           0        7.187623    1.460010   -1.469532
 ---------------------------------------------------------------------

 SCF Done:  E(RHF) =  -669.535488265     A.U. after   15 cycles
 E2 =    -0.2091767380D+01 EUMP2 =    -0.67162725564497D+03

 The electronic state is 1-A.
 Alpha  occ. eigenvalues --  -20.60793 -20.60786 -15.85830 -11.31155 -11.27736
 Alpha  occ. eigenvalues --  -11.27716 -11.27478 -11.26743 -11.26727 -11.21760
 Alpha  occ. eigenvalues --  -11.21596 -11.21540 -11.21477 -11.21185 -11.20953
 Alpha  occ. eigenvalues --   -1.59855  -1.39412  -1.19335  -1.08737  -1.08534
 Alpha  occ. eigenvalues --   -1.04736  -1.03585  -0.96040  -0.95575  -0.87060
 Alpha  occ. eigenvalues --   -0.86134  -0.82411  -0.79661  -0.78375  -0.77458
 Alpha  occ. eigenvalues --   -0.72055  -0.71169  -0.70459  -0.65168  -0.64990
 Alpha  occ. eigenvalues --   -0.64745  -0.62123  -0.60957  -0.59403  -0.57655
 Alpha  occ. eigenvalues --   -0.55371  -0.55201  -0.53104  -0.52884  -0.52695
 Alpha  occ. eigenvalues --   -0.52379  -0.49978  -0.48809  -0.48807  -0.47962
 Alpha  occ. eigenvalues --   -0.46680  -0.45905  -0.45830  -0.44794  -0.43849
 Alpha  occ. eigenvalues --   -0.37316  -0.36314
 Alpha virt. eigenvalues --    0.05046   0.11279   0.16545   0.20814   0.22844
 Alpha virt. eigenvalues --    0.24043   0.25840   0.26843   0.27701   0.27853
 Alpha virt. eigenvalues --    0.29206   0.30074   0.31570   0.31799   0.32003

 Mulliken charges:
               1
     1  C   -0.170635
     2  C   -0.218721
     3  C   -0.170807
     4  C    0.157414
     5  C   -0.167056
     6  C   -0.220524
     7  H    0.225438
     8  H    0.223243
     9  H    0.275422
    10  H    0.277211
    11  H    0.224001
    12  N    0.488816
    13  O   -0.462023
    14  O   -0.459905
    15  C   -0.298303
    16  C   -0.299613
    17  C   -0.483022
    18  H    0.144909
    19  H    0.146442
    20  H    0.151434
    21  H    0.156511
    22  H    0.162816
    23  H    0.149004
    24  H    0.166063
    25  C   -0.298162
    26  C   -0.299648
    27  C   -0.475766
    28  H    0.150125
    29  H    0.152179
    30  H    0.149732
    31  H    0.151498
    32  H    0.156515
    33  H    0.155435
    34  H    0.159972
 Sum of Mulliken charges =  -0.00000

 Dipole moment (field-independent basis, Debye):
    X=              0.1435    Y=              5.0053    Z=              1.0577  Tot=              5.1179
 Quadrupole moment (field-independent basis, Debye-Ang):
   XX=            -92.2319   YY=            -95.5847   ZZ=            -95.1140
   XY=            -15.7632   XZ=             -4.6615   YZ=             -1.1070

 Normal termination of Gaussian 16 at Thu May  6 14:04:14 2021.
