 Gaussian 16, Revision A.03,
 Gaussian 16:  EM64L-G16RevA.03 25-Dec-2016

 -------------
 #p 6-31g* mp2
 -------------

 ------------------------------------------------------
 Input file generated by CHIRIPA (05-May-2021 14:53:15)
 ------------------------------------------------------
 Symbolic Z-matrix:
 Charge =  0 Multiplicity = 1

                         Standard orientation:
 ---------------------------------------------------------------------
 Center     Atomic      Atomic             Coordinates (Angstroms)
 Number     Number       Type             X           Y           Z
 ---------------------------------------------------------------------
      1          6           0        4.732603    0.352416    0.481673
      2          6           0        5.517833    1.315141   -0.409706
      3          6           0        6.396955    2.277272    0.389820
      4          1           0        4.107926    0.931800    1.175242
      5          1           0        5.437064   -0.220961    1.100033
      6          1           0        4.812172    1.885551   -1.027194
      7          1           0        6.140569    0.733396   -1.101363
      8          1           0        7.123257    1.723888    0.993852
      9          1           0        5.787312    2.882590    1.068442
     10          1           0        6.949326    2.956423   -0.267067
     11          6           0        3.849088   -0.615730   -0.303071
     12          6           0        3.063858   -1.578456    0.588309
     13          6           0        2.184736   -2.540587   -0.211218
     14          1           0        3.144627   -0.042354   -0.921430
     15          1           0        4.473765   -1.195115   -0.996640
     16          1           0        2.441123   -0.996711    1.279966
     17          1           0        3.769519   -2.148866    1.205797
     18          1           0        2.794379   -3.145905   -0.889839
     19          1           0        1.458435   -1.987203   -0.815249
     20          1           0        1.632366   -3.219738    0.445670
     21          6           0       -4.964272    2.021069    0.226351
     22          6           0       -5.259782    0.767691    0.772464
     23          6           0       -4.373929   -0.302308    0.614615
     24          6           0       -3.196376   -0.082589   -0.098394
     25          6           0       -2.873700    1.154369   -0.654370
     26          6           0       -3.774273    2.210075   -0.484071
     27          1           0       -5.658141    2.846718    0.353808
     28          1           0       -6.183204    0.618002    1.324667
     29          1           0       -4.577774   -1.283057    1.026922
     30          1           0       -1.945320    1.272975   -1.199769
     31          1           0       -3.542163    3.182371   -0.909287
     32          7           0       -2.250772   -1.207783   -0.272093
     33          8           0       -1.219989   -0.988366   -0.904532
     34          8           0       -2.558296   -2.287821    0.227491
 ---------------------------------------------------------------------

 SCF Done:  E(RHF) =  -669.536055969     A.U. after   15 cycles
 E2 =    -0.2090868499D+01 EUMP2 =    -0.67162692446877D+03

 The electronic state is 1-A.
 Alpha  occ. eigenvalues --  -20.60953 -20.60946 -15.85989 -11.31310 -11.27875
 Alpha  occ. eigenvalues --  -11.27868 -11.27609 -11.26880 -11.26870 -11.21130
 Alpha  occ. eigenvalues --  -11.20750 -11.20716 -11.20508 -11.20431 -11.19343
 Alpha  occ. eigenvalues --   -1.60010  -1.39568  -1.19477  -1.08881  -1.07646
 Alpha  occ. eigenvalues --   -1.04874  -1.02642  -0.95725  -0.95062  -0.86275
 Alpha  occ. eigenvalues --   -0.86075  -0.82559  -0.78755  -0.77611  -0.77411
 Alpha  occ. eigenvalues --   -0.72214  -0.71326  -0.70586  -0.65134  -0.64877
 Alpha  occ. eigenvalues --   -0.64285  -0.62222  -0.60034  -0.58521  -0.56669
 Alpha  occ. eigenvalues --   -0.55379  -0.54344  -0.53205  -0.52966  -0.51739
 Alpha  occ. eigenvalues --   -0.51494  -0.49241  -0.48958  -0.48720  -0.47036
 Alpha  occ. eigenvalues --   -0.45798  -0.45011  -0.44942  -0.44794  -0.42904
 Alpha  occ. eigenvalues --   -0.37456  -0.36476
 Alpha virt. eigenvalues --    0.04916   0.11180   0.16410   0.21310   0.23577
 Alpha virt. eigenvalues --    0.25281   0.27231   0.27382   0.28133   0.28273
 Alpha virt. eigenvalues --    0.29056   0.30884   0.32228   0.32413   0.32546

 Mulliken charges:
               1
     1  C   -0.297356
     2  C   -0.298782
     3  C   -0.475118
     4  H    0.147409
     5  H    0.148255
     6  H    0.150185
     7  H    0.151583
     8  H    0.154842
     9  H    0.153605
    10  H    0.158335
    11  C   -0.297745
    12  C   -0.298463
    13  C   -0.482979
    14  H    0.150167
    15  H    0.147789
    16  H    0.149532
    17  H    0.146337
    18  H    0.146186
    19  H    0.180938
    20  H    0.161432
    21  C   -0.170599
    22  C   -0.218570
    23  C   -0.170540
    24  C    0.157758
    25  C   -0.170837
    26  C   -0.218516
    27  H    0.226050
    28  H    0.223891
    29  H    0.275958
    30  H    0.275378
    31  H    0.223834
    32  N    0.490869
    33  O   -0.462239
    34  O   -0.458588
 Sum of Mulliken charges =  -0.00000

 Dipole moment (field-independent basis, Debye):
    X=             -3.6808    Y=              3.9364    Z=              0.5576  Tot=              5.4179
 Quadrupole moment (field-independent basis, Debye-Ang):
   XX=            -72.9299   YY=            -94.3685   ZZ=            -94.4819
   XY=            -11.5516   XZ=             -4.0802   YZ=             -2.5067

 Normal termination of Gaussian 16 at Wed May  5 15:37:05 2021.
