 Gaussian 16, Revision A.03,
 Gaussian 16:  EM64L-G16RevA.03 25-Dec-2016

 -------------
 #p 6-31g* mp2
 -------------

 ------------------------------------------------------
 Input file generated by CHIRIPA (05-May-2021 14:55:22)
 ------------------------------------------------------
 Symbolic Z-matrix:
 Charge =  0 Multiplicity = 1

                         Standard orientation:
 ---------------------------------------------------------------------
 Center     Atomic      Atomic             Coordinates (Angstroms)
 Number     Number       Type             X           Y           Z
 ---------------------------------------------------------------------
      1          6           0        1.561367   -2.092800   -0.975415
      2          6           0        0.839836   -1.108246   -0.292358
      3          6           0        1.487639    0.019772    0.219967
      4          6           0        2.864150    0.131562    0.030200
      5          6           0        3.610692   -0.832252   -0.645838
      6          6           0        2.942058   -1.951910   -1.149668
      7          1           0        1.050048   -2.965824   -1.370102
      8          1           0       -0.232509   -1.215020   -0.155537
      9          1           0        0.953463    0.797089    0.752745
     10          1           0        4.678787   -0.697959   -0.766484
     11          1           0        3.504967   -2.714944   -1.679722
     12          7           0        3.560976    1.321318    0.568079
     13          8           0        4.774419    1.396287    0.387602
     14          8           0        2.880510    2.156351    1.159960
     15          6           0       -3.424004   -0.660271   -0.075330
     16          6           0       -3.284411   -1.519896    1.181469
     17          6           0       -3.094799   -3.003653    0.864755
     18          1           0       -4.276201   -1.022263   -0.666656
     19          1           0       -2.530777   -0.791208   -0.701746
     20          1           0       -4.177017   -1.386310    1.805987
     21          1           0       -2.432564   -1.155694    1.769967
     22          1           0       -2.194128   -3.156761    0.261471
     23          1           0       -3.948494   -3.388686    0.297697
     24          1           0       -2.997155   -3.599700    1.777472
     25          6           0       -3.614215    0.825453    0.224958
     26          6           0       -3.753808    1.685079   -1.031839
     27          6           0       -3.943420    3.168835   -0.715126
     28          1           0       -4.507441    0.956391    0.851375
     29          1           0       -2.762017    1.187446    0.816284
     30          1           0       -4.605656    1.320877   -1.620337
     31          1           0       -2.861201    1.551492   -1.656358
     32          1           0       -3.089725    3.553869   -0.148068
     33          1           0       -4.844090    3.321943   -0.111842
     34          1           0       -4.041064    3.764883   -1.627844
 ---------------------------------------------------------------------

 SCF Done:  E(RHF) =  -669.535353636     A.U. after   15 cycles
 E2 =    -0.2091905564D+01 EUMP2 =    -0.67162725920015D+03

 The electronic state is 1-A.
 Alpha  occ. eigenvalues --  -20.60767 -20.60762 -15.85820 -11.31187 -11.27758
 Alpha  occ. eigenvalues --  -11.27754 -11.27495 -11.26769 -11.26735 -11.22551
 Alpha  occ. eigenvalues --  -11.22348 -11.22132 -11.22084 -11.22068 -11.21393
 Alpha  occ. eigenvalues --   -1.59842  -1.39396  -1.19358  -1.09242  -1.08752
 Alpha  occ. eigenvalues --   -1.04764  -1.04258  -0.96709  -0.95588  -0.87721
 Alpha  occ. eigenvalues --   -0.86164  -0.82422  -0.80332  -0.79020  -0.77472
 Alpha  occ. eigenvalues --   -0.72039  -0.71165  -0.70469  -0.66035  -0.65010
 Alpha  occ. eigenvalues --   -0.64695  -0.62174  -0.61566  -0.60083  -0.58301
 Alpha  occ. eigenvalues --   -0.56026  -0.55259  -0.53369  -0.53134  -0.53075
 Alpha  occ. eigenvalues --   -0.52860  -0.50662  -0.48809  -0.48794  -0.48618
 Alpha  occ. eigenvalues --   -0.47392  -0.46536  -0.46476  -0.44801  -0.44523
 Alpha  occ. eigenvalues --   -0.37337  -0.36363
 Alpha virt. eigenvalues --    0.05065   0.11245   0.16530   0.18131   0.22845
 Alpha virt. eigenvalues --    0.23611   0.25288   0.25732   0.27005   0.28574
 Alpha virt. eigenvalues --    0.29481   0.30475   0.30985   0.31540   0.31987

 Mulliken charges:
               1
     1  C   -0.172983
     2  C   -0.228626
     3  C   -0.173748
     4  C    0.159063
     5  C   -0.171105
     6  C   -0.218412
     7  H    0.225850
     8  H    0.238373
     9  H    0.275283
    10  H    0.275630
    11  H    0.223469
    12  N    0.488066
    13  O   -0.460425
    14  O   -0.460575
    15  C   -0.303122
    16  C   -0.303348
    17  C   -0.474715
    18  H    0.154723
    19  H    0.141244
    20  H    0.158575
    21  H    0.150141
    22  H    0.144383
    23  H    0.159309
    24  H    0.165313
    25  C   -0.298387
    26  C   -0.300431
    27  C   -0.476554
    28  H    0.153560
    29  H    0.147849
    30  H    0.152998
    31  H    0.151732
    32  H    0.158126
    33  H    0.156162
    34  H    0.162580
 Sum of Mulliken charges =  -0.00000

 Dipole moment (field-independent basis, Debye):
    X=             -2.6709    Y=             -4.1423    Z=             -1.8609  Tot=              5.2684
 Quadrupole moment (field-independent basis, Debye-Ang):
   XX=           -103.1102   YY=            -96.7377   ZZ=            -94.9151
   XY=            -13.9398   XZ=             -7.5501   YZ=              0.1785

 Normal termination of Gaussian 16 at Thu May  6 09:23:06 2021.
