 Gaussian 16, Revision A.03,
 Gaussian 16:  EM64L-G16RevA.03 25-Dec-2016

 -------------
 #p 6-31g* mp2
 -------------

 ------------------------------------------------------
 Input file generated by CHIRIPA (05-May-2021 14:55:20)
 ------------------------------------------------------
 Symbolic Z-matrix:
 Charge =  0 Multiplicity = 1

                         Standard orientation:
 ---------------------------------------------------------------------
 Center     Atomic      Atomic             Coordinates (Angstroms)
 Number     Number       Type             X           Y           Z
 ---------------------------------------------------------------------
      1          6           0        2.121906    2.749400   -0.657842
      2          6           0        2.544157    1.766320   -1.558830
      3          6           0        2.772857    0.457006   -1.125310
      4          6           0        2.568495    0.164386    0.222244
      5          6           0        2.148183    1.121766    1.144226
      6          6           0        1.925613    2.424558    0.688437
      7          1           0        1.946628    3.763973   -1.003261
      8          1           0        2.697414    2.015727   -2.604944
      9          1           0        3.100090   -0.323550   -1.801378
     10          1           0        2.003975    0.842905    2.180980
     11          1           0        1.597723    3.185987    1.390404
     12          7           0        2.807365   -1.218274    0.692980
     13          8           0        2.620091   -1.450542    1.885296
     14          8           0        3.177342   -2.043554   -0.139286
     15          6           0       -2.483021   -0.587923   -0.269760
     16          6           0       -2.081238   -1.984363   -0.745692
     17          6           0       -0.569174   -2.140531   -0.910211
     18          1           0       -2.111765    0.157615   -0.986200
     19          1           0       -1.985433   -0.376938    0.686946
     20          1           0       -2.580525   -2.193198   -1.700530
     21          1           0       -2.453660   -2.726678   -0.028135
     22          1           0       -0.057409   -1.958587    0.040365
     23          1           0       -0.184996   -1.422076   -1.641532
     24          1           0       -0.304178   -3.146223   -1.251121
     25          6           0       -3.991544   -0.416276   -0.100571
     26          6           0       -4.393326    0.980165    0.375361
     27          6           0       -5.905390    1.136332    0.539880
     28          1           0       -4.489132   -0.627261   -1.057277
     29          1           0       -4.362800   -1.161815    0.615868
     30          1           0       -4.020905    1.722480   -0.342196
     31          1           0       -3.894038    1.189000    1.330198
     32          1           0       -6.289569    0.417877    1.271201
     33          1           0       -6.417155    0.954389   -0.410696
     34          1           0       -6.170387    2.142024    0.880790
 ---------------------------------------------------------------------

 SCF Done:  E(RHF) =  -669.535839861     A.U. after   15 cycles
 E2 =    -0.2092078562D+01 EUMP2 =    -0.67162791842355D+03

 The electronic state is 1-A.
 Alpha  occ. eigenvalues --  -20.60787 -20.60773 -15.85813 -11.31173 -11.27747
 Alpha  occ. eigenvalues --  -11.27740 -11.27492 -11.26771 -11.26760 -11.21677
 Alpha  occ. eigenvalues --  -11.21362 -11.21342 -11.21258 -11.21144 -11.20674
 Alpha  occ. eigenvalues --   -1.59848  -1.39401  -1.19349  -1.08748  -1.08349
 Alpha  occ. eigenvalues --   -1.04755  -1.03416  -0.95855  -0.95585  -0.86872
 Alpha  occ. eigenvalues --   -0.86152  -0.82420  -0.79496  -0.78166  -0.77466
 Alpha  occ. eigenvalues --   -0.72043  -0.71173  -0.70462  -0.65007  -0.64980
 Alpha  occ. eigenvalues --   -0.64762  -0.62105  -0.60811  -0.59228  -0.57470
 Alpha  occ. eigenvalues --   -0.55260  -0.55144  -0.53098  -0.52850  -0.52519
 Alpha  occ. eigenvalues --   -0.52271  -0.49806  -0.48805  -0.48796  -0.47806
 Alpha  occ. eigenvalues --   -0.46535  -0.45704  -0.45628  -0.44801  -0.43655
 Alpha  occ. eigenvalues --   -0.37314  -0.36350
 Alpha virt. eigenvalues --    0.05063   0.11253   0.16553   0.21403   0.22921
 Alpha virt. eigenvalues --    0.24363   0.26654   0.27239   0.27433   0.27876
 Alpha virt. eigenvalues --    0.28449   0.30897   0.31250   0.31864   0.32270

 Mulliken charges:
               1
     1  C   -0.170724
     2  C   -0.219186
     3  C   -0.170591
     4  C    0.159103
     5  C   -0.171600
     6  C   -0.217982
     7  H    0.225491
     8  H    0.223296
     9  H    0.275930
    10  H    0.275311
    11  H    0.223431
    12  N    0.489571
    13  O   -0.461304
    14  O   -0.458309
    15  C   -0.297764
    16  C   -0.300431
    17  C   -0.476360
    18  H    0.146765
    19  H    0.149256
    20  H    0.150122
    21  H    0.154107
    22  H    0.157539
    23  H    0.149143
    24  H    0.167028
    25  C   -0.298132
    26  C   -0.299027
    27  C   -0.475545
    28  H    0.149169
    29  H    0.151009
    30  H    0.149449
    31  H    0.150756
    32  H    0.156207
    33  H    0.155281
    34  H    0.158989
 Sum of Mulliken charges =  -0.00000

 Dipole moment (field-independent basis, Debye):
    X=             -0.7754    Y=              4.7898    Z=             -1.6536  Tot=              5.1262
 Quadrupole moment (field-independent basis, Debye-Ang):
   XX=           -100.8950   YY=            -93.0947   ZZ=            -90.4344
   XY=             12.4202   XZ=             -5.7307   YZ=              1.9043

 Normal termination of Gaussian 16 at Wed May  5 23:46:51 2021.
