 Gaussian 16, Revision A.03,
 Gaussian 16:  EM64L-G16RevA.03 25-Dec-2016

 -------------
 #p 6-31g* mp2
 -------------

 ------------------------------------------------------
 Input file generated by CHIRIPA (05-May-2021 14:55:20)
 ------------------------------------------------------
 Symbolic Z-matrix:
 Charge =  0 Multiplicity = 1

                         Standard orientation:
 ---------------------------------------------------------------------
 Center     Atomic      Atomic             Coordinates (Angstroms)
 Number     Number       Type             X           Y           Z
 ---------------------------------------------------------------------
      1          6           0       -6.088502    0.828788    0.326870
      2          6           0       -5.857349   -0.484234   -0.096287
      3          6           0       -4.560127   -0.920040   -0.382356
      4          6           0       -3.512720   -0.012204   -0.233815
      5          6           0       -3.710849    1.302299    0.185848
      6          6           0       -5.016405    1.716299    0.466342
      7          1           0       -7.099452    1.158863    0.546930
      8          1           0       -6.688035   -1.175668   -0.205489
      9          1           0       -4.352786   -1.930973   -0.711661
     10          1           0       -2.862557    1.968568    0.285368
     11          1           0       -5.192945    2.736593    0.794792
     12          7           0       -2.134998   -0.462030   -0.533712
     13          8           0       -1.229306    0.357181   -0.394964
     14          8           0       -1.986920   -1.625297   -0.901841
     15          6           0        5.531832    0.034398    0.361017
     16          6           0        6.260957    0.646579   -0.835478
     17          6           0        7.750361    0.867971   -0.570040
     18          1           0        5.656722    0.690507    1.233296
     19          1           0        6.005404   -0.922830    0.619546
     20          1           0        5.785280    1.601704   -1.092543
     21          1           0        6.134156   -0.010967   -1.705058
     22          1           0        8.244899   -0.080110   -0.335146
     23          1           0        7.894041    1.541724    0.280849
     24          1           0        8.252088    1.306314   -1.438364
     25          6           0        4.042019   -0.192947    0.111019
     26          6           0        3.312894   -0.805127    1.307512
     27          6           0        1.823491   -1.026518    1.042075
     28          1           0        3.568447    0.764283   -0.147511
     29          1           0        3.917130   -0.849054   -0.761260
     30          1           0        3.439695   -0.147581    2.177094
     31          1           0        3.788571   -1.760253    1.564578
     32          1           0        1.679810   -1.700272    0.191186
     33          1           0        1.328952   -0.078438    0.807182
     34          1           0        1.321764   -1.464861    1.910399
 ---------------------------------------------------------------------

 SCF Done:  E(RHF) =  -669.535888799     A.U. after   15 cycles
 E2 =    -0.2090953732D+01 EUMP2 =    -0.67162684253113D+03

 The electronic state is 1-A.
 Alpha  occ. eigenvalues --  -20.60884 -20.60876 -15.85917 -11.31264 -11.27830
 Alpha  occ. eigenvalues --  -11.27825 -11.27570 -11.26842 -11.26832 -11.20908
 Alpha  occ. eigenvalues --  -11.20553 -11.20511 -11.20351 -11.20276 -11.19244
 Alpha  occ. eigenvalues --   -1.59937  -1.39495  -1.19433  -1.08832  -1.07461
 Alpha  occ. eigenvalues --   -1.04834  -1.02483  -0.95673  -0.94897  -0.86233
 Alpha  occ. eigenvalues --   -0.85902  -0.82505  -0.78574  -0.77554  -0.77226
 Alpha  occ. eigenvalues --   -0.72140  -0.71252  -0.70542  -0.65089  -0.64837
 Alpha  occ. eigenvalues --   -0.64104  -0.62181  -0.59885  -0.58355  -0.56510
 Alpha  occ. eigenvalues --   -0.55337  -0.54178  -0.53164  -0.52926  -0.51609
 Alpha  occ. eigenvalues --   -0.51319  -0.49005  -0.48887  -0.48711  -0.46823
 Alpha  occ. eigenvalues --   -0.45641  -0.44938  -0.44736  -0.44609  -0.42755
 Alpha  occ. eigenvalues --   -0.37413  -0.36436
 Alpha virt. eigenvalues --    0.04966   0.11219   0.16452   0.21350   0.23764
 Alpha virt. eigenvalues --    0.25403   0.27266   0.27597   0.28199   0.28433
 Alpha virt. eigenvalues --    0.29211   0.30916   0.32356   0.32571   0.32675

 Mulliken charges:
               1
     1  C   -0.170685
     2  C   -0.218566
     3  C   -0.170691
     4  C    0.158164
     5  C   -0.170775
     6  C   -0.218532
     7  H    0.225853
     8  H    0.223706
     9  H    0.275833
    10  H    0.275450
    11  H    0.223659
    12  N    0.489857
    13  O   -0.460252
    14  O   -0.459219
    15  C   -0.297402
    16  C   -0.298940
    17  C   -0.475129
    18  H    0.147161
    19  H    0.147638
    20  H    0.151299
    21  H    0.151837
    22  H    0.154219
    23  H    0.153810
    24  H    0.158300
    25  C   -0.297102
    26  C   -0.300649
    27  C   -0.477258
    28  H    0.150605
    29  H    0.150582
    30  H    0.145781
    31  H    0.146521
    32  H    0.161264
    33  H    0.172994
    34  H    0.150665
 Sum of Mulliken charges =  -0.00000

 Dipole moment (field-independent basis, Debye):
    X=             -5.2061    Y=              1.6050    Z=              0.9492  Tot=              5.5299
 Quadrupole moment (field-independent basis, Debye-Ang):
   XX=            -63.1687   YY=            -90.0182   ZZ=            -96.0470
   XY=             -4.1843   XZ=             -2.6350   YZ=              1.4067

 Normal termination of Gaussian 16 at Thu May  6 17:27:04 2021.
