 Gaussian 16, Revision A.03,
 Gaussian 16:  EM64L-G16RevA.03 25-Dec-2016

 -------------
 #p 6-31g* mp2
 -------------

 ------------------------------------------------------
 Input file generated by CHIRIPA (05-May-2021 14:57:25)
 ------------------------------------------------------
 Symbolic Z-matrix:
 Charge =  0 Multiplicity = 1

                         Standard orientation:
 ---------------------------------------------------------------------
 Center     Atomic      Atomic             Coordinates (Angstroms)
 Number     Number       Type             X           Y           Z
 ---------------------------------------------------------------------
      1          6           0       -2.450306    2.258559   -0.157292
      2          6           0       -2.079449    1.027447   -0.708064
      3          6           0       -2.931420   -0.077171   -0.615800
      4          6           0       -4.152294    0.085602    0.037088
      5          6           0       -4.550161    1.299121    0.595982
      6          6           0       -3.682306    2.390235    0.491829
      7          1           0       -1.782305    3.111407   -0.233583
      8          1           0       -1.123272    0.922265   -1.212749
      9          1           0       -2.669351   -1.041787   -1.033236
     10          1           0       -5.509757    1.373194    1.093081
     11          1           0       -3.972943    3.345124    0.920504
     12          7           0       -5.062645   -1.076659    0.141057
     13          8           0       -6.132807   -0.907272    0.721315
     14          8           0       -4.688779   -2.135019   -0.359679
     15          6           0        6.130805    1.008538    0.406889
     16          6           0        5.077201    1.610219   -0.289114
     17          6           0        3.893215    0.907331   -0.531344
     18          6           0        3.796477   -0.401453   -0.061218
     19          6           0        4.828517   -1.028426    0.635263
     20          6           0        6.003326   -0.306545    0.866047
     21          1           0        7.046990    1.561936    0.590612
     22          1           0        5.173404    2.631393   -0.646873
     23          1           0        3.061940    1.348861   -1.067486
     24          1           0        4.703116   -2.047813    0.979562
     25          1           0        6.819933   -0.776361    1.406852
     26          7           0        2.547902   -1.155622   -0.311597
     27          8           0        2.487584   -2.307455    0.112998
     28          8           0        1.653230   -0.580627   -0.927696
 ---------------------------------------------------------------------

 SCF Done:  E(RHF) =  -868.339143528     A.U. after   16 cycles
 E2 =    -0.2598509212D+01 EUMP2 =    -0.87093765273959D+03

 The electronic state is 1-A.
 Alpha  occ. eigenvalues --  -20.61546 -20.61480 -20.60031 -20.60010 -15.86563
 Alpha  occ. eigenvalues --  -15.85069 -11.31783 -11.30347 -11.28375 -11.28298
 Alpha  occ. eigenvalues --  -11.28033 -11.27331 -11.27283 -11.26956 -11.26780
 Alpha  occ. eigenvalues --  -11.26669 -11.26007 -11.25740  -1.60573  -1.59100
 Alpha  occ. eigenvalues --   -1.40137  -1.38654  -1.19937  -1.18507  -1.09354
 Alpha  occ. eigenvalues --   -1.07938  -1.05322  -1.03868  -0.96217  -0.94785
 Alpha  occ. eigenvalues --   -0.86726  -0.85286  -0.83061  -0.81595  -0.78128
 Alpha  occ. eigenvalues --   -0.76641  -0.72796  -0.71880  -0.71292  -0.71044
 Alpha  occ. eigenvalues --   -0.70421  -0.69654  -0.65597  -0.65322  -0.64156
 Alpha  occ. eigenvalues --   -0.63850  -0.62677  -0.61192  -0.55818  -0.54442
 Alpha  occ. eigenvalues --   -0.53653  -0.53414  -0.52242  -0.51937  -0.49559
 Alpha  occ. eigenvalues --   -0.49507  -0.48052  -0.48039  -0.45570  -0.44078
 Alpha  occ. eigenvalues --   -0.37900  -0.36918  -0.36530  -0.35464
 Alpha virt. eigenvalues --    0.04403   0.05851   0.10739   0.12171   0.15920
 Alpha virt. eigenvalues --    0.17361   0.20814   0.22287   0.26722   0.27373
 Alpha virt. eigenvalues --    0.28540   0.29078   0.30416   0.31532   0.32312

 Mulliken charges:
               1
     1  C   -0.172826
     2  C   -0.221976
     3  C   -0.171421
     4  C    0.157896
     5  C   -0.172901
     6  C   -0.218688
     7  H    0.220021
     8  H    0.240123
     9  H    0.281369
    10  H    0.272589
    11  H    0.219112
    12  N    0.487967
    13  O   -0.463905
    14  O   -0.458947
    15  C   -0.170193
    16  C   -0.218239
    17  C   -0.170438
    18  C    0.158637
    19  C   -0.170188
    20  C   -0.218305
    21  H    0.227451
    22  H    0.223746
    23  H    0.270468
    24  H    0.277625
    25  H    0.225737
    26  N    0.492419
    27  O   -0.453932
    28  O   -0.473201
 Sum of Mulliken charges =  -0.00000

 Dipole moment (field-independent basis, Debye):
    X=              8.0649    Y=              6.5523    Z=              0.4999  Tot=             10.4032
 Quadrupole moment (field-independent basis, Debye-Ang):
   XX=            -96.1106   YY=           -102.3716   ZZ=           -103.9452
   XY=            -11.9230   XZ=              4.5113   YZ=             -1.0632

 Normal termination of Gaussian 16 at Fri May  7 12:39:37 2021.
