 Gaussian 16, Revision A.03,
 Gaussian 16:  EM64L-G16RevA.03 25-Dec-2016

 -------------
 #p 6-31g* mp2
 -------------

 ------------------------------------------------------
 Input file generated by CHIRIPA (05-May-2021 14:51:14)
 ------------------------------------------------------
 Symbolic Z-matrix:
 Charge =  0 Multiplicity = 1

                         Standard orientation:
 ---------------------------------------------------------------------
 Center     Atomic      Atomic             Coordinates (Angstroms)
 Number     Number       Type             X           Y           Z
 ---------------------------------------------------------------------
      1          6           0       -2.585580    0.507495   -0.288981
      2          6           0       -2.586033    1.634380    0.744515
      3          6           0       -2.920078    2.995964    0.134352
      4          1           0       -1.860766    0.744232   -1.079895
      5          1           0       -3.571503    0.461957   -0.771968
      6          1           0       -1.600837    1.676880    1.226386
      7          1           0       -3.310792    1.394841    1.533160
      8          1           0       -3.911235    2.977196   -0.330250
      9          1           0       -2.191565    3.260837   -0.638767
     10          1           0       -2.914858    3.787012    0.890709
     11          6           0       -2.253350   -0.859847    0.305769
     12          6           0       -2.252897   -1.986732   -0.727727
     13          6           0       -1.918852   -3.348316   -0.117565
     14          1           0       -1.267427   -0.814310    0.788755
     15          1           0       -2.978164   -1.096584    1.096683
     16          1           0       -1.528138   -1.747194   -1.516373
     17          1           0       -3.238093   -2.029232   -1.209598
     18          1           0       -2.647365   -3.613189    0.655555
     19          1           0       -0.927695   -3.329548    0.347037
     20          1           0       -1.924072   -4.139364   -0.873921
     21          6           0        2.306758   -0.525652   -0.287976
     22          6           0        2.665483   -1.636574    0.699522
     23          6           0        2.434615   -3.034859    0.125681
     24          1           0        1.254264   -0.632827   -0.584145
     25          1           0        2.903076   -0.650796   -1.202382
     26          1           0        2.069666   -1.508562    1.612337
     27          1           0        3.717193   -1.526627    0.993522
     28          1           0        3.040741   -3.187291   -0.773194
     29          1           0        1.383855   -3.169123   -0.150862
     30          1           0        2.697462   -3.813771    0.848223
     31          6           0        2.532173    0.878004    0.271189
     32          6           0        2.173446    1.988926   -0.716310
     33          6           0        2.404315    3.387211   -0.142468
     34          1           0        1.935853    1.003149    1.185594
     35          1           0        3.584666    0.985179    0.567357
     36          1           0        1.121738    1.878980   -1.010310
     37          1           0        2.769263    1.860915   -1.629125
     38          1           0        3.455076    3.521476    0.134076
     39          1           0        1.798189    3.539643    0.756406
     40          1           0        2.141467    4.166124   -0.865010
 ---------------------------------------------------------------------

 SCF Done:  E(RHF) =  -470.733342846     A.U. after   11 cycles
 E2 =    -0.1584310303D+01 EUMP2 =    -0.47231765314935D+03

 The electronic state is 1-A.
 Alpha  occ. eigenvalues --  -11.21671 -11.21664 -11.21663 -11.21656 -11.21477
 Alpha  occ. eigenvalues --  -11.21473 -11.21418 -11.21414 -11.21114 -11.21110
 Alpha  occ. eigenvalues --  -11.21103 -11.21082  -1.08527  -1.08465  -1.03619
 Alpha  occ. eigenvalues --   -1.03553  -0.96074  -0.95992  -0.87102  -0.86995
 Alpha  occ. eigenvalues --   -0.79675  -0.79620  -0.78312  -0.78306  -0.65422
 Alpha  occ. eigenvalues --   -0.64848  -0.61270  -0.60721  -0.59400  -0.59392
 Alpha  occ. eigenvalues --   -0.57680  -0.57616  -0.55632  -0.55044  -0.52729
 Alpha  occ. eigenvalues --   -0.52712  -0.52521  -0.52392  -0.50257  -0.49665
 Alpha  occ. eigenvalues --   -0.48074  -0.47861  -0.46757  -0.46597  -0.46045
 Alpha  occ. eigenvalues --   -0.45834  -0.45719  -0.45596  -0.43848  -0.43835
 Alpha virt. eigenvalues --    0.17945   0.21212   0.23696   0.25497   0.25722
 Alpha virt. eigenvalues --    0.26038   0.26162   0.28443   0.29052   0.29908
 Alpha virt. eigenvalues --    0.30652   0.31559   0.31672   0.31789   0.31969

 Mulliken charges:
               1
     1  C   -0.299965
     2  C   -0.299920
     3  C   -0.476028
     4  H    0.150518
     5  H    0.150117
     6  H    0.151589
     7  H    0.152252
     8  H    0.155381
     9  H    0.155597
    10  H    0.160531
    11  C   -0.300394
    12  C   -0.301249
    13  C   -0.481276
    14  H    0.150609
    15  H    0.150242
    16  H    0.152793
    17  H    0.152585
    18  H    0.155658
    19  H    0.160257
    20  H    0.160772
    21  C   -0.302259
    22  C   -0.299965
    23  C   -0.482436
    24  H    0.152456
    25  H    0.150001
    26  H    0.151757
    27  H    0.152491
    28  H    0.155496
    29  H    0.161644
    30  H    0.160583
    31  C   -0.298490
    32  C   -0.301254
    33  C   -0.475779
    34  H    0.149401
    35  H    0.150230
    36  H    0.152385
    37  H    0.152271
    38  H    0.155426
    39  H    0.155472
    40  H    0.160502
 Sum of Mulliken charges =  -0.00000

 Dipole moment (field-independent basis, Debye):
    X=             -0.0064    Y=             -0.0042    Z=             -0.0046  Tot=              0.0089
 Quadrupole moment (field-independent basis, Debye-Ang):
   XX=            -82.7765   YY=            -86.9244   ZZ=            -84.7905
   XY=              0.2902   XZ=             -0.6351   YZ=             -0.0058

 Normal termination of Gaussian 16 at Thu May  6 00:50:30 2021.
