 Gaussian 16, Revision A.03,
 Gaussian 16:  EM64L-G16RevA.03 25-Dec-2016

 -------------
 #p 6-31g* mp2
 -------------

 ------------------------------------------------------
 Input file generated by CHIRIPA (05-May-2021 14:55:22)
 ------------------------------------------------------
 Symbolic Z-matrix:
 Charge =  0 Multiplicity = 1

                         Standard orientation:
 ---------------------------------------------------------------------
 Center     Atomic      Atomic             Coordinates (Angstroms)
 Number     Number       Type             X           Y           Z
 ---------------------------------------------------------------------
      1          6           0       -5.777460    0.164347    0.190806
      2          6           0       -5.321628   -1.154601    0.095336
      3          6           0       -3.956029   -1.426539   -0.030119
      4          6           0       -3.070098   -0.350574   -0.056857
      5          6           0       -3.493328    0.974384    0.036164
      6          6           0       -4.863466    1.222764    0.160968
      7          1           0       -6.840053    0.366445    0.288009
      8          1           0       -6.029163   -1.978564    0.118232
      9          1           0       -3.575851   -2.438044   -0.105880
     10          1           0       -2.763948    1.774859    0.010426
     11          1           0       -5.214611    2.248081    0.234918
     12          7           0       -1.621997   -0.625992   -0.189325
     13          8           0       -0.861815    0.339573   -0.210421
     14          8           0       -1.274577   -1.802215   -0.269550
     15          6           0        4.604495   -0.197469    0.362953
     16          6           0        5.898044   -0.566133   -0.364235
     17          6           0        6.625440   -1.744445    0.284047
     18          1           0        4.835616    0.043422    1.409614
     19          1           0        3.940954   -1.073089    0.382918
     20          1           0        6.558382    0.310326   -0.384035
     21          1           0        5.663842   -0.805988   -1.409335
     22          1           0        5.987981   -2.634506    0.290115
     23          1           0        6.887602   -1.511849    1.321242
     24          1           0        7.547356   -1.991070   -0.251776
     25          6           0        3.865936    0.978734   -0.273291
     26          6           0        2.572387    1.347397    0.453896
     27          6           0        1.844992    2.525710   -0.194386
     28          1           0        4.529478    1.854353   -0.293256
     29          1           0        3.634815    0.737842   -1.319953
     30          1           0        2.806589    1.587253    1.498997
     31          1           0        1.912050    0.470938    0.473696
     32          1           0        1.582830    2.293114   -1.231580
     33          1           0        2.482451    3.415771   -0.200453
     34          1           0        0.923076    2.772335    0.341437
 ---------------------------------------------------------------------

 SCF Done:  E(RHF) =  -669.536154366     A.U. after   15 cycles
 E2 =    -0.2091535747D+01 EUMP2 =    -0.67162769011267D+03

 The electronic state is 1-A.
 Alpha  occ. eigenvalues --  -20.61025 -20.61009 -15.86039 -11.31335 -11.27894
 Alpha  occ. eigenvalues --  -11.27890 -11.27627 -11.26895 -11.26885 -11.20707
 Alpha  occ. eigenvalues --  -11.20312 -11.20270 -11.20083 -11.19877 -11.19556
 Alpha  occ. eigenvalues --   -1.60078  -1.39634  -1.19500  -1.08912  -1.07213
 Alpha  occ. eigenvalues --   -1.04892  -1.02287  -0.95761  -0.94780  -0.86294
 Alpha  occ. eigenvalues --   -0.85818  -0.82590  -0.78399  -0.77647  -0.76982
 Alpha  occ. eigenvalues --   -0.72274  -0.71386  -0.70609  -0.65160  -0.64896
 Alpha  occ. eigenvalues --   -0.63832  -0.62239  -0.59660  -0.58186  -0.56368
 Alpha  occ. eigenvalues --   -0.55398  -0.54073  -0.53226  -0.52982  -0.51503
 Alpha  occ. eigenvalues --   -0.51218  -0.49062  -0.49012  -0.48733  -0.46704
 Alpha  occ. eigenvalues --   -0.45434  -0.45045  -0.44556  -0.44324  -0.42564
 Alpha  occ. eigenvalues --   -0.37478  -0.36491
 Alpha virt. eigenvalues --    0.04872   0.11164   0.16372   0.21223   0.24035
 Alpha virt. eigenvalues --    0.25356   0.27133   0.27797   0.27965   0.28782
 Alpha virt. eigenvalues --    0.29196   0.30781   0.31919   0.32575   0.32921

 Mulliken charges:
               1
     1  C   -0.170479
     2  C   -0.218616
     3  C   -0.170505
     4  C    0.157300
     5  C   -0.170727
     6  C   -0.218579
     7  H    0.226161
     8  H    0.223936
     9  H    0.275877
    10  H    0.276136
    11  H    0.224084
    12  N    0.492841
    13  O   -0.462354
    14  O   -0.459414
    15  C   -0.298464
    16  C   -0.298694
    17  C   -0.475184
    18  H    0.146270
    19  H    0.154033
    20  H    0.149183
    21  H    0.151439
    22  H    0.155691
    23  H    0.153400
    24  H    0.157202
    25  C   -0.297509
    26  C   -0.305892
    27  C   -0.467477
    28  H    0.143092
    29  H    0.149647
    30  H    0.142192
    31  H    0.177921
    32  H    0.156593
    33  H    0.143125
    34  H    0.157775
 Sum of Mulliken charges =  -0.00000

 Dipole moment (field-independent basis, Debye):
    X=             -5.5263    Y=              0.8065    Z=              0.4349  Tot=              5.6018
 Quadrupole moment (field-independent basis, Debye-Ang):
   XX=            -65.4573   YY=            -91.5530   ZZ=            -95.6368
   XY=              0.2339   XZ=             -1.1828   YZ=              0.5849

 Normal termination of Gaussian 16 at Wed May  5 23:51:52 2021.
