 Gaussian 16, Revision A.03,
 Gaussian 16:  EM64L-G16RevA.03 25-Dec-2016

 -------------
 #p 6-31g* mp2
 -------------

 ------------------------------------------------------
 Input file generated by CHIRIPA (05-May-2021 14:57:22)
 ------------------------------------------------------
 Symbolic Z-matrix:
 Charge =  0 Multiplicity = 1

                         Standard orientation:
 ---------------------------------------------------------------------
 Center     Atomic      Atomic             Coordinates (Angstroms)
 Number     Number       Type             X           Y           Z
 ---------------------------------------------------------------------
      1          6           0       -4.899017    1.802308    0.844999
      2          6           0       -5.177259    0.453928    1.091929
      3          6           0       -4.409013   -0.550366    0.495489
      4          6           0       -3.365395   -0.168781   -0.346262
      5          6           0       -3.063369    1.165936   -0.611971
      6          6           0       -3.844819    2.153389   -0.004665
      7          1           0       -5.500937    2.575926    1.312549
      8          1           0       -5.995343    0.178333    1.751346
      9          1           0       -4.602531   -1.601919    0.669283
     10          1           0       -2.241327    1.409678   -1.273979
     11          1           0       -3.626438    3.199753   -0.198254
     12          7           0       -2.545099   -1.223068   -0.983438
     13          8           0       -1.631188   -0.860732   -1.721080
     14          8           0       -2.831594   -2.391791   -0.733149
     15          6           0        5.640618    0.892186   -0.749358
     16          6           0        4.470808    0.867675   -1.515820
     17          6           0        3.279342    0.372793   -0.977259
     18          6           0        3.293700   -0.091712    0.337015
     19          6           0        4.442925   -0.080449    1.125967
     20          6           0        5.622974    0.418880    0.566769
     21          1           0        6.561743    1.278349   -1.175741
     22          1           0        4.481557    1.234598   -2.538218
     23          1           0        2.359344    0.342210   -1.548299
     24          1           0        4.401085   -0.453096    2.142235
     25          1           0        6.529958    0.436698    1.164354
     26          7           0        2.038391   -0.617975    0.918090
     27          8           0        2.077319   -1.021397    2.078422
     28          8           0        1.039323   -0.617074    0.202200
 ---------------------------------------------------------------------

 SCF Done:  E(RHF) =  -868.337051332     A.U. after   16 cycles
 E2 =    -0.2599949694D+01 EUMP2 =    -0.87093700102613D+03

 The electronic state is 1-A.
 Alpha  occ. eigenvalues --  -20.60193 -20.60125 -20.59706 -20.59641 -15.85205
 Alpha  occ. eigenvalues --  -15.84732 -11.30726 -11.30309 -11.27344 -11.27272
 Alpha  occ. eigenvalues --  -11.27116 -11.26927 -11.26913 -11.26739 -11.26392
 Alpha  occ. eigenvalues --  -11.26358 -11.26018 -11.25998  -1.59244  -1.58712
 Alpha  occ. eigenvalues --   -1.38787  -1.38271  -1.18923  -1.18509  -1.08297
 Alpha  occ. eigenvalues --   -1.07868  -1.04345  -1.03963  -0.95101  -0.94671
 Alpha  occ. eigenvalues --   -0.85736  -0.85352  -0.81926  -0.81515  -0.76942
 Alpha  occ. eigenvalues --   -0.76514  -0.71471  -0.70955  -0.70576  -0.70051
 Alpha  occ. eigenvalues --   -0.69936  -0.69649  -0.64568  -0.64353  -0.64177
 Alpha  occ. eigenvalues --   -0.63992  -0.61681  -0.61320  -0.54856  -0.54482
 Alpha  occ. eigenvalues --   -0.52675  -0.52438  -0.52258  -0.52078  -0.48225
 Alpha  occ. eigenvalues --   -0.48172  -0.47739  -0.47702  -0.44158  -0.43605
 Alpha  occ. eigenvalues --   -0.36926  -0.36499  -0.35959  -0.35570
 Alpha virt. eigenvalues --    0.05587   0.06064   0.11693   0.12085   0.17044
 Alpha virt. eigenvalues --    0.17490   0.21796   0.22109   0.27697   0.27974
 Alpha virt. eigenvalues --    0.28664   0.29076   0.31285   0.31643   0.32900

 Mulliken charges:
               1
     1  C   -0.171556
     2  C   -0.218503
     3  C   -0.170143
     4  C    0.163472
     5  C   -0.167120
     6  C   -0.218769
     7  H    0.222256
     8  H    0.220878
     9  H    0.274963
    10  H    0.272997
    11  H    0.219401
    12  N    0.492393
    13  O   -0.456826
    14  O   -0.462729
    15  C   -0.171375
    16  C   -0.219079
    17  C   -0.172321
    18  C    0.157766
    19  C   -0.171491
    20  C   -0.218869
    21  H    0.223859
    22  H    0.222610
    23  H    0.281996
    24  H    0.274483
    25  H    0.221683
    26  N    0.487997
    27  O   -0.465000
    28  O   -0.452974
 Sum of Mulliken charges =  -0.00000

 Dipole moment (field-independent basis, Debye):
    X=              1.5586    Y=              5.4385    Z=              0.0969  Tot=              5.6583
 Quadrupole moment (field-independent basis, Debye-Ang):
   XX=            -56.2893   YY=           -105.2157   ZZ=           -104.0986
   XY=             -4.3793   XZ=            -11.3019   YZ=             -3.6181

 Normal termination of Gaussian 16 at Wed May  5 17:48:19 2021.
