 Gaussian 16, Revision A.03,
 Gaussian 16:  EM64L-G16RevA.03 25-Dec-2016

 -------------
 #p 6-31g* mp2
 -------------

 ------------------------------------------------------
 Input file generated by CHIRIPA (05-May-2021 14:51:08)
 ------------------------------------------------------
 Symbolic Z-matrix:
 Charge =  0 Multiplicity = 1

                         Standard orientation:
 ---------------------------------------------------------------------
 Center     Atomic      Atomic             Coordinates (Angstroms)
 Number     Number       Type             X           Y           Z
 ---------------------------------------------------------------------
      1          6           0       -3.406942    1.045992    0.402475
      2          6           0       -3.181622    2.130670   -0.651417
      3          6           0       -3.338685    3.543561   -0.088510
      4          1           0       -4.412263    1.162250    0.829980
      5          1           0       -2.697162    1.193722    1.228177
      6          1           0       -3.890692    1.980114   -1.475534
      7          1           0       -2.176792    2.011699   -1.076598
      8          1           0       -2.621249    3.718157    0.719824
      9          1           0       -4.344887    3.686393    0.318621
     10          1           0       -3.173386    4.303282   -0.858809
     11          6           0       -3.253371   -0.371884   -0.145038
     12          6           0       -3.478692   -1.456562    0.908854
     13          6           0       -3.321629   -2.869453    0.345948
     14          1           0       -3.963151   -0.519614   -0.970740
     15          1           0       -2.248051   -0.488142   -0.572542
     16          1           0       -4.483521   -1.337591    1.334035
     17          1           0       -2.769622   -1.306006    1.732971
     18          1           0       -2.315427   -3.012285   -0.061184
     19          1           0       -4.039064   -3.044049   -0.462387
     20          1           0       -3.486927   -3.629174    1.116247
     21          6           0        2.623564   -0.405468   -0.410637
     22          6           0        2.073032   -1.829576   -0.328090
     23          6           0        0.658577   -1.950406   -0.895989
     24          1           0        1.950293    0.273075    0.130871
     25          1           0        2.619452   -0.078453   -1.459656
     26          1           0        2.079474   -2.154315    0.720298
     27          1           0        2.747794   -2.504836   -0.869697
     28          1           0        0.639588   -1.652415   -1.949290
     29          1           0       -0.032529   -1.299903   -0.350261
     30          1           0        0.284557   -2.976663   -0.826958
     31          6           0        4.036750   -0.268641    0.153200
     32          6           0        4.587281    1.155468    0.070654
     33          6           0        6.001737    1.276297    0.638551
     34          1           0        4.040862   -0.595655    1.202218
     35          1           0        4.710021   -0.947182   -0.388309
     36          1           0        3.912519    1.830728    0.612259
     37          1           0        4.580839    1.480207   -0.977736
     38          1           0        6.692843    0.625794    0.092823
     39          1           0        6.020726    0.978307    1.691852
     40          1           0        6.375757    2.302555    0.569520
 ---------------------------------------------------------------------

 SCF Done:  E(RHF) =  -470.732969238     A.U. after   11 cycles
 E2 =    -0.1583200720D+01 EUMP2 =    -0.47231616995787D+03

 The electronic state is 1-A.
 Alpha  occ. eigenvalues --  -11.21679 -11.21642 -11.21574 -11.21545 -11.21468
 Alpha  occ. eigenvalues --  -11.21405 -11.21356 -11.21273 -11.21172 -11.21102
 Alpha  occ. eigenvalues --  -11.21054 -11.20959  -1.08495  -1.08383  -1.03603
 Alpha  occ. eigenvalues --   -1.03475  -0.96053  -0.95926  -0.87075  -0.86945
 Alpha  occ. eigenvalues --   -0.79694  -0.79521  -0.78320  -0.78177  -0.65177
 Alpha  occ. eigenvalues --   -0.64988  -0.61078  -0.60809  -0.59431  -0.59291
 Alpha  occ. eigenvalues --   -0.57699  -0.57509  -0.55341  -0.55220  -0.52771
 Alpha  occ. eigenvalues --   -0.52627  -0.52527  -0.52286  -0.50031  -0.49852
 Alpha  occ. eigenvalues --   -0.48005  -0.47846  -0.46782  -0.46527  -0.45944
 Alpha  occ. eigenvalues --   -0.45780  -0.45707  -0.45442  -0.43833  -0.43733
 Alpha virt. eigenvalues --    0.21049   0.23044   0.23789   0.24841   0.25911
 Alpha virt. eigenvalues --    0.26581   0.26942   0.27309   0.27958   0.29225
 Alpha virt. eigenvalues --    0.30383   0.31451   0.31636   0.31822   0.32066

 Mulliken charges:
               1
     1  C   -0.297869
     2  C   -0.299681
     3  C   -0.475614
     4  H    0.149623
     5  H    0.148510
     6  H    0.152014
     7  H    0.152018
     8  H    0.154901
     9  H    0.155151
    10  H    0.160204
    11  C   -0.305887
    12  C   -0.298824
    13  C   -0.480883
    14  H    0.149565
    15  H    0.157158
    16  H    0.151748
    17  H    0.150789
    18  H    0.161376
    19  H    0.154704
    20  H    0.159393
    21  C   -0.298553
    22  C   -0.299764
    23  C   -0.482712
    24  H    0.149192
    25  H    0.149748
    26  H    0.152257
    27  H    0.152392
    28  H    0.156006
    29  H    0.159998
    30  H    0.162404
    31  C   -0.298339
    32  C   -0.299696
    33  C   -0.475748
    34  H    0.149649
    35  H    0.149884
    36  H    0.151922
    37  H    0.152038
    38  H    0.155272
    39  H    0.155245
    40  H    0.160412
 Sum of Mulliken charges =  -0.00000

 Dipole moment (field-independent basis, Debye):
    X=              0.0568    Y=             -0.0130    Z=             -0.0294  Tot=              0.0653
 Quadrupole moment (field-independent basis, Debye-Ang):
   XX=            -84.7736   YY=            -86.0103   ZZ=            -84.0818
   XY=             -0.2837   XZ=             -0.4372   YZ=             -0.1336

 Normal termination of Gaussian 16 at Wed May  5 21:18:46 2021.
