 Gaussian 16, Revision A.03,
 Gaussian 16:  EM64L-G16RevA.03 25-Dec-2016

 -------------
 #p 6-31g* mp2
 -------------

 ------------------------------------------------------
 Input file generated by CHIRIPA (05-May-2021 14:57:25)
 ------------------------------------------------------
 Symbolic Z-matrix:
 Charge =  0 Multiplicity = 1

                         Standard orientation:
 ---------------------------------------------------------------------
 Center     Atomic      Atomic             Coordinates (Angstroms)
 Number     Number       Type             X           Y           Z
 ---------------------------------------------------------------------
      1          6           0       -3.722613   -1.991421   -0.210214
      2          6           0       -2.383281   -1.756992    0.118045
      3          6           0       -1.895037   -0.450832    0.218604
      4          6           0       -2.777833    0.602074   -0.016660
      5          6           0       -4.117484    0.400879   -0.345518
      6          6           0       -4.583921   -0.913638   -0.440541
      7          1           0       -4.093422   -3.009324   -0.286180
      8          1           0       -1.712097   -2.592079    0.297455
      9          1           0       -0.862795   -0.240780    0.471138
     10          1           0       -4.762526    1.253720   -0.518727
     11          1           0       -5.624549   -1.092704   -0.695638
     12          7           0       -2.272494    1.989271    0.086867
     13          8           0       -3.070524    2.899672   -0.125158
     14          8           0       -1.087948    2.139887    0.378077
     15          6           0        1.391967   -2.378824    0.464972
     16          6           0        1.588805   -1.426174    1.470077
     17          6           0        2.400752   -0.311099    1.242273
     18          6           0        3.003152   -0.179575   -0.007969
     19          6           0        2.826453   -1.111512   -1.029518
     20          6           0        2.010329   -2.218734   -0.779423
     21          1           0        0.759604   -3.241992    0.650594
     22          1           0        1.109842   -1.547915    2.437455
     23          1           0        2.570270    0.441597    2.002622
     24          1           0        3.317247   -0.962888   -1.983692
     25          1           0        1.859257   -2.956982   -1.561864
     26          7           0        3.864934    0.996750   -0.260934
     27          8           0        4.384385    1.089602   -1.370973
     28          8           0        4.004632    1.803625    0.655621
 ---------------------------------------------------------------------

 SCF Done:  E(RHF) =  -868.336121571     A.U. after   16 cycles
 E2 =    -0.2602789859D+01 EUMP2 =    -0.87093891142982D+03

 The electronic state is 1-A.
 Alpha  occ. eigenvalues --  -20.60917 -20.60911 -20.60764 -20.60737 -15.85974
 Alpha  occ. eigenvalues --  -15.85819 -11.31520 -11.31426 -11.28126 -11.28113
 Alpha  occ. eigenvalues --  -11.28091 -11.28043 -11.27950 -11.27871 -11.27274
 Alpha  occ. eigenvalues --  -11.27264 -11.27162 -11.27070  -1.59989  -1.59815
 Alpha  occ. eigenvalues --   -1.39540  -1.39360  -1.19773  -1.19640  -1.09137
 Alpha  occ. eigenvalues --   -1.09033  -1.05210  -1.05061  -0.95897  -0.95833
 Alpha  occ. eigenvalues --   -0.86598  -0.86468  -0.82749  -0.82632  -0.77727
 Alpha  occ. eigenvalues --   -0.77628  -0.72190  -0.72041  -0.71318  -0.71129
 Alpha  occ. eigenvalues --   -0.70948  -0.70765  -0.65418  -0.65308  -0.65206
 Alpha  occ. eigenvalues --   -0.65101  -0.62523  -0.62436  -0.55842  -0.55600
 Alpha  occ. eigenvalues --   -0.53593  -0.53395  -0.53274  -0.53023  -0.48955
 Alpha  occ. eigenvalues --   -0.48936  -0.48824  -0.48765  -0.44925  -0.44692
 Alpha  occ. eigenvalues --   -0.37821  -0.37657  -0.36864  -0.36595
 Alpha virt. eigenvalues --    0.04734   0.04927   0.10773   0.10985   0.16038
 Alpha virt. eigenvalues --    0.16336   0.19329   0.22046   0.25399   0.26877
 Alpha virt. eigenvalues --    0.28155   0.28996   0.30061   0.31857   0.32340

 Mulliken charges:
               1
     1  C   -0.170793
     2  C   -0.222808
     3  C   -0.177959
     4  C    0.158144
     5  C   -0.169233
     6  C   -0.219340
     7  H    0.224495
     8  H    0.211568
     9  H    0.286294
    10  H    0.276913
    11  H    0.224198
    12  N    0.487598
    13  O   -0.459063
    14  O   -0.459057
    15  C   -0.178214
    16  C   -0.232827
    17  C   -0.162299
    18  C    0.162592
    19  C   -0.168812
    20  C   -0.217258
    21  H    0.219623
    22  H    0.226312
    23  H    0.282721
    24  H    0.278481
    25  H    0.224052
    26  N    0.488848
    27  O   -0.459618
    28  O   -0.454559
 Sum of Mulliken charges =  -0.00000

 Dipole moment (field-independent basis, Debye):
    X=             -4.4864    Y=             -8.6799    Z=              0.4960  Tot=              9.7834
 Quadrupole moment (field-independent basis, Debye-Ang):
   XX=           -108.6977   YY=           -109.7478   ZZ=           -100.9828
   XY=             -1.4248   XZ=              4.2224   YZ=              1.2341

 Normal termination of Gaussian 16 at Thu May  6 08:18:06 2021.
