 Gaussian 16, Revision A.03,
 Gaussian 16:  EM64L-G16RevA.03 25-Dec-2016

 -------------
 #p 6-31g* mp2
 -------------

 ------------------------------------------------------
 Input file generated by CHIRIPA (05-May-2021 14:57:24)
 ------------------------------------------------------
 Symbolic Z-matrix:
 Charge =  0 Multiplicity = 1

                         Standard orientation:
 ---------------------------------------------------------------------
 Center     Atomic      Atomic             Coordinates (Angstroms)
 Number     Number       Type             X           Y           Z
 ---------------------------------------------------------------------
      1          6           0       -2.179421   -2.434297    0.693476
      2          6           0       -3.056512   -1.982856   -0.298206
      3          6           0       -3.108434   -0.627395   -0.636702
      4          6           0       -2.265413    0.252985    0.039712
      5          6           0       -1.380810   -0.166086    1.032257
      6          6           0       -1.345839   -1.526073    1.354378
      7          1           0       -2.145671   -3.489009    0.950067
      8          1           0       -3.705039   -2.685928   -0.813130
      9          1           0       -3.777975   -0.250806   -1.400451
     10          1           0       -0.746511    0.558653    1.528074
     11          1           0       -0.663686   -1.873828    2.124948
     12          7           0       -2.311408    1.690346   -0.309971
     13          8           0       -1.558418    2.445799    0.300713
     14          8           0       -3.099577    2.034280   -1.188114
     15          6           0        2.241616    2.396155    0.642069
     16          6           0        2.389771    2.080184   -0.712454
     17          6           0        2.400180    0.747095   -1.133541
     18          6           0        2.259400   -0.249297   -0.168827
     19          6           0        2.110020    0.033535    1.188001
     20          6           0        2.102459    1.373625    1.586308
     21          1           0        2.234635    3.434450    0.960332
     22          1           0        2.498040    2.872224   -1.447977
     23          1           0        2.513317    0.474264   -2.175741
     24          1           0        2.004173   -0.777821    1.897872
     25          1           0        1.987235    1.616055    2.638923
     26          7           0        2.268913   -1.664285   -0.602556
     27          8           0        2.143129   -2.523695    0.267059
     28          8           0        2.401971   -1.887150   -1.803915
 ---------------------------------------------------------------------

 SCF Done:  E(RHF) =  -868.338276064     A.U. after   16 cycles
 E2 =    -0.2603695960D+01 EUMP2 =    -0.87094197202415D+03

 The electronic state is 1-A.
 Alpha  occ. eigenvalues --  -20.61049 -20.61022 -20.60832 -20.60813 -15.86077
 Alpha  occ. eigenvalues --  -15.85867 -11.31272 -11.30979 -11.27946 -11.27789
 Alpha  occ. eigenvalues --  -11.27544 -11.27491 -11.27457 -11.27187 -11.26823
 Alpha  occ. eigenvalues --  -11.26674 -11.26474 -11.26464  -1.60102  -1.59901
 Alpha  occ. eigenvalues --   -1.39667  -1.39461  -1.19451  -1.19136  -1.08814
 Alpha  occ. eigenvalues --   -1.08561  -1.04887  -1.04494  -0.95699  -0.95443
 Alpha  occ. eigenvalues --   -0.86223  -0.85911  -0.82565  -0.82299  -0.77687
 Alpha  occ. eigenvalues --   -0.77365  -0.72311  -0.72107  -0.71422  -0.71212
 Alpha  occ. eigenvalues --   -0.70506  -0.70224  -0.65092  -0.64862  -0.64768
 Alpha  occ. eigenvalues --   -0.64500  -0.62271  -0.61851  -0.55242  -0.55001
 Alpha  occ. eigenvalues --   -0.53376  -0.52947  -0.52744  -0.52388  -0.49081
 Alpha  occ. eigenvalues --   -0.49039  -0.48864  -0.48830  -0.45117  -0.44919
 Alpha  occ. eigenvalues --   -0.37437  -0.37020  -0.36656  -0.35750
 Alpha virt. eigenvalues --    0.04881   0.05117   0.11150   0.11552   0.16365
 Alpha virt. eigenvalues --    0.16722   0.20500   0.22313   0.25865   0.27631
 Alpha virt. eigenvalues --    0.28754   0.29560   0.30040   0.31674   0.32474

 Mulliken charges:
               1
     1  C   -0.166337
     2  C   -0.218835
     3  C   -0.170527
     4  C    0.154001
     5  C   -0.172839
     6  C   -0.218548
     7  H    0.229988
     8  H    0.224059
     9  H    0.274362
    10  H    0.274527
    11  H    0.223764
    12  N    0.488356
    13  O   -0.466793
    14  O   -0.460974
    15  C   -0.155160
    16  C   -0.215046
    17  C   -0.171264
    18  C    0.163642
    19  C   -0.181554
    20  C   -0.225359
    21  H    0.231943
    22  H    0.227966
    23  H    0.276414
    24  H    0.267950
    25  H    0.223090
    26  N    0.489846
    27  O   -0.468160
    28  O   -0.458510
 Sum of Mulliken charges =  -0.00000

 Dipole moment (field-independent basis, Debye):
    X=              0.2334    Y=              0.0603    Z=              2.5799  Tot=              2.5911
 Quadrupole moment (field-independent basis, Debye-Ang):
   XX=           -104.3500   YY=           -109.5551   ZZ=            -99.0248
   XY=             25.1093   XZ=              2.5641   YZ=             -1.9919

 Normal termination of Gaussian 16 at Thu May  6 01:56:10 2021.
