 Gaussian 16, Revision A.03,
 Gaussian 16:  EM64L-G16RevA.03 25-Dec-2016

 -------------
 #p 6-31g* mp2
 -------------

 ------------------------------------------------------
 Input file generated by CHIRIPA (05-May-2021 14:51:07)
 ------------------------------------------------------
 Symbolic Z-matrix:
 Charge =  0 Multiplicity = 1

                         Standard orientation:
 ---------------------------------------------------------------------
 Center     Atomic      Atomic             Coordinates (Angstroms)
 Number     Number       Type             X           Y           Z
 ---------------------------------------------------------------------
      1          6           0       -5.083372    0.044551   -0.257840
      2          6           0       -6.187781    0.969812    0.254173
      3          6           0       -7.376409    1.057920   -0.703529
      4          1           0       -4.740210    0.401401   -1.238576
      5          1           0       -5.500815   -0.959035   -0.418933
      6          1           0       -5.768055    1.971011    0.415567
      7          1           0       -6.528219    0.610828    1.233891
      8          1           0       -7.821860    0.069620   -0.856627
      9          1           0       -7.057376    1.437531   -1.679600
     10          1           0       -8.154100    1.724532   -0.317934
     11          6           0       -3.888305   -0.053898    0.688654
     12          6           0       -2.783896   -0.979159    0.176641
     13          6           0       -1.595267   -1.067267    1.134343
     14          1           0       -3.470862    0.949688    0.849747
     15          1           0       -4.231466   -0.410748    1.669390
     16          1           0       -2.443457   -0.620175   -0.803077
     17          1           0       -3.203621   -1.980358    0.015247
     18          1           0       -1.914300   -1.446878    2.110414
     19          1           0       -1.149817   -0.078967    1.287441
     20          1           0       -0.817576   -1.733879    0.748747
     21          6           0        3.744227    0.107790   -0.366439
     22          6           0        2.972112   -1.201131   -0.535409
     23          6           0        1.489840   -0.978376   -0.837142
     24          1           0        3.287739    0.693474    0.443214
     25          1           0        3.641418    0.706826   -1.281853
     26          1           0        3.077492   -1.798126    0.379526
     27          1           0        3.430608   -1.783852   -1.344627
     28          1           0        1.366850   -0.403913   -1.760975
     29          1           0        1.011727   -0.418268   -0.027026
     30          1           0        0.956954   -1.927168   -0.954136
     31          6           0        5.227450   -0.098443   -0.064374
     32          6           0        5.999564    1.210478    0.104595
     33          6           0        7.481836    0.987723    0.406329
     34          1           0        5.330259   -0.697480    0.851039
     35          1           0        5.683937   -0.684127   -0.874028
     36          1           0        5.541069    1.793199    0.913813
     37          1           0        5.894185    1.807473   -0.810340
     38          1           0        7.959949    0.427615   -0.403788
     39          1           0        7.604826    0.413260    1.330162
     40          1           0        8.014723    1.936514    0.523322
 ---------------------------------------------------------------------

 SCF Done:  E(RHF) =  -470.731699421     A.U. after   11 cycles
 E2 =    -0.1583035167D+01 EUMP2 =    -0.47231473458738D+03

 The electronic state is 1-A.
 Alpha  occ. eigenvalues --  -11.21593 -11.21574 -11.21564 -11.21530 -11.21391
 Alpha  occ. eigenvalues --  -11.21361 -11.21332 -11.21301 -11.21064 -11.21050
 Alpha  occ. eigenvalues --  -11.20965 -11.20909  -1.08417  -1.08378  -1.03549
 Alpha  occ. eigenvalues --   -1.03441  -0.96065  -0.95835  -0.87134  -0.86808
 Alpha  occ. eigenvalues --   -0.79661  -0.79464  -0.78228  -0.78195  -0.65070
 Alpha  occ. eigenvalues --   -0.64996  -0.61049  -0.60795  -0.59553  -0.59126
 Alpha  occ. eigenvalues --   -0.57631  -0.57488  -0.55466  -0.55039  -0.52962
 Alpha  occ. eigenvalues --   -0.52509  -0.52330  -0.52184  -0.50084  -0.49632
 Alpha  occ. eigenvalues --   -0.47912  -0.47823  -0.46701  -0.46451  -0.45772
 Alpha  occ. eigenvalues --   -0.45728  -0.45703  -0.45640  -0.43880  -0.43556
 Alpha virt. eigenvalues --    0.22303   0.22994   0.23608   0.24922   0.26355
 Alpha virt. eigenvalues --    0.26686   0.27127   0.27369   0.27636   0.29103
 Alpha virt. eigenvalues --    0.29577   0.31349   0.31537   0.32059   0.32249

 Mulliken charges:
               1
     1  C   -0.298240
     2  C   -0.299605
     3  C   -0.475672
     4  H    0.149623
     5  H    0.149398
     6  H    0.151844
     7  H    0.151852
     8  H    0.155129
     9  H    0.155142
    10  H    0.160139
    11  C   -0.298312
    12  C   -0.300335
    13  C   -0.479361
    14  H    0.149388
    15  H    0.149497
    16  H    0.153011
    17  H    0.151387
    18  H    0.153576
    19  H    0.153243
    20  H    0.167839
    21  C   -0.298546
    22  C   -0.299841
    23  C   -0.480190
    24  H    0.149658
    25  H    0.149385
    26  H    0.151844
    27  H    0.151533
    28  H    0.154084
    29  H    0.163207
    30  H    0.159385
    31  C   -0.298266
    32  C   -0.299643
    33  C   -0.475695
    34  H    0.149576
    35  H    0.149640
    36  H    0.151907
    37  H    0.151850
    38  H    0.155161
    39  H    0.155201
    40  H    0.160206
 Sum of Mulliken charges =  -0.00000

 Dipole moment (field-independent basis, Debye):
    X=              0.0150    Y=             -0.0044    Z=             -0.0027  Tot=              0.0158
 Quadrupole moment (field-independent basis, Debye-Ang):
   XX=            -86.8785   YY=            -84.2056   ZZ=            -84.0176
   XY=              0.5235   XZ=             -1.1224   YZ=             -0.2992

 Normal termination of Gaussian 16 at Wed May  5 21:15:29 2021.
