 Gaussian 16, Revision A.03,
 Gaussian 16:  EM64L-G16RevA.03 25-Dec-2016

 -------------
 #p 6-31g* mp2
 -------------

 ------------------------------------------------------
 Input file generated by CHIRIPA (05-May-2021 14:55:23)
 ------------------------------------------------------
 Symbolic Z-matrix:
 Charge =  0 Multiplicity = 1

                         Standard orientation:
 ---------------------------------------------------------------------
 Center     Atomic      Atomic             Coordinates (Angstroms)
 Number     Number       Type             X           Y           Z
 ---------------------------------------------------------------------
      1          6           0       -4.646565   -1.126789   -0.009940
      2          6           0       -3.808430   -1.116713    1.109859
      3          6           0       -2.733322   -0.226102    1.184044
      4          6           0       -2.524560    0.644548    0.115552
      5          6           0       -3.341907    0.658658   -1.013623
      6          6           0       -4.411044   -0.240634   -1.066245
      7          1           0       -5.479416   -1.822009   -0.059193
      8          1           0       -3.988944   -1.803779    1.931686
      9          1           0       -2.068841   -0.196993    2.039051
     10          1           0       -3.136726    1.355496   -1.817199
     11          1           0       -5.060312   -0.246226   -1.937143
     12          7           0       -1.389552    1.591993    0.182674
     13          8           0       -1.226938    2.348960   -0.771891
     14          8           0       -0.684038    1.559693    1.188579
     15          6           0        4.015674   -0.296964    0.289248
     16          6           0        5.248950    0.108350   -0.518671
     17          6           0        6.330011    0.763551    0.341453
     18          1           0        3.602473    0.591460    0.786153
     19          1           0        4.319712   -0.988421    1.087273
     20          1           0        4.942469    0.797754   -1.315795
     21          1           0        5.659150   -0.781108   -1.013866
     22          1           0        6.664037    0.079028    1.127873
     23          1           0        5.943282    1.666862    0.824229
     24          1           0        7.202536    1.045325   -0.256179
     25          6           0        2.926082   -0.953335   -0.556740
     26          6           0        1.692805   -1.358648    0.251178
     27          6           0        0.611744   -2.013850   -0.608945
     28          1           0        2.622044   -0.261878   -1.354765
     29          1           0        3.339281   -1.841758   -1.053646
     30          1           0        1.282605   -0.469191    0.746374
     31          1           0        1.999287   -2.048053    1.048303
     32          1           0        0.998473   -2.917161   -1.091721
     33          1           0        0.277718   -1.329327   -1.395365
     34          1           0       -0.260782   -2.295623   -0.011314
 ---------------------------------------------------------------------

 SCF Done:  E(RHF) =  -669.536555626     A.U. after   15 cycles
 E2 =    -0.2092284318D+01 EUMP2 =    -0.67162883994418D+03

 The electronic state is 1-A.
 Alpha  occ. eigenvalues --  -20.60987 -20.60981 -15.86001 -11.31282 -11.27845
 Alpha  occ. eigenvalues --  -11.27840 -11.27575 -11.26850 -11.26837 -11.20952
 Alpha  occ. eigenvalues --  -11.20823 -11.20689 -11.20671 -11.20602 -11.20483
 Alpha  occ. eigenvalues --   -1.60037  -1.39596  -1.19448  -1.08860  -1.07730
 Alpha  occ. eigenvalues --   -1.04842  -1.02913  -0.95710  -0.95394  -0.86413
 Alpha  occ. eigenvalues --   -0.86242  -0.82548  -0.78963  -0.77621  -0.77515
 Alpha  occ. eigenvalues --   -0.72229  -0.71351  -0.70560  -0.65110  -0.64847
 Alpha  occ. eigenvalues --   -0.64340  -0.62192  -0.60299  -0.58771  -0.57005
 Alpha  occ. eigenvalues --   -0.55349  -0.54688  -0.53189  -0.52935  -0.52088
 Alpha  occ. eigenvalues --   -0.51819  -0.49329  -0.48997  -0.48983  -0.47300
 Alpha  occ. eigenvalues --   -0.46054  -0.45243  -0.45067  -0.44619  -0.43150
 Alpha  occ. eigenvalues --   -0.37406  -0.36428
 Alpha virt. eigenvalues --    0.04878   0.11183   0.16353   0.21292   0.23480
 Alpha virt. eigenvalues --    0.24641   0.27140   0.27360   0.27955   0.28454
 Alpha virt. eigenvalues --    0.28612   0.30869   0.31814   0.31978   0.32308

 Mulliken charges:
               1
     1  C   -0.170149
     2  C   -0.219192
     3  C   -0.170377
     4  C    0.160916
     5  C   -0.170962
     6  C   -0.218231
     7  H    0.226061
     8  H    0.223955
     9  H    0.276187
    10  H    0.275656
    11  H    0.223840
    12  N    0.488035
    13  O   -0.458937
    14  O   -0.459565
    15  C   -0.299821
    16  C   -0.299454
    17  C   -0.475649
    18  H    0.158354
    19  H    0.146135
    20  H    0.153436
    21  H    0.148977
    22  H    0.153286
    23  H    0.157302
    24  H    0.158237
    25  C   -0.297211
    26  C   -0.311463
    27  C   -0.477638
    28  H    0.152775
    29  H    0.144947
    30  H    0.172948
    31  H    0.146639
    32  H    0.152811
    33  H    0.153987
    34  H    0.154164
 Sum of Mulliken charges =  -0.00000

 Dipole moment (field-independent basis, Debye):
    X=             -4.1718    Y=             -3.1430    Z=             -0.1965  Tot=              5.2269
 Quadrupole moment (field-independent basis, Debye-Ang):
   XX=            -75.7806   YY=            -98.8284   ZZ=            -91.1536
   XY=              5.0998   XZ=              1.2174   YZ=             -2.9079

 Normal termination of Gaussian 16 at Thu May  6 19:15:53 2021.
