 Gaussian 16, Revision A.03,
 Gaussian 16:  EM64L-G16RevA.03 25-Dec-2016

 -------------
 #p 6-31g* mp2
 -------------

 ------------------------------------------------------
 Input file generated by CHIRIPA (05-May-2021 14:57:22)
 ------------------------------------------------------
 Symbolic Z-matrix:
 Charge =  0 Multiplicity = 1

                         Standard orientation:
 ---------------------------------------------------------------------
 Center     Atomic      Atomic             Coordinates (Angstroms)
 Number     Number       Type             X           Y           Z
 ---------------------------------------------------------------------
      1          6           0       -3.294000    2.355849   -0.073978
      2          6           0       -4.540689    1.723222   -0.119509
      3          6           0       -4.628912    0.327999   -0.130264
      4          6           0       -3.444915   -0.406957   -0.094474
      5          6           0       -2.187942    0.194059   -0.048773
      6          6           0       -2.123669    1.590597   -0.038818
      7          1           0       -3.234769    3.440202   -0.065934
      8          1           0       -5.451245    2.314985   -0.146885
      9          1           0       -5.580939   -0.187599   -0.165214
     10          1           0       -1.297765   -0.422623   -0.022222
     11          1           0       -1.154100    2.079194   -0.003427
     12          7           0       -3.525636   -1.884713   -0.105436
     13          8           0       -2.467749   -2.509597   -0.073281
     14          8           0       -4.645263   -2.390114   -0.145977
     15          6           0        1.870639    2.114711    0.441510
     16          6           0        1.659358    0.917048    1.132512
     17          6           0        2.517886   -0.170646    0.947030
     18          6           0        3.582521   -0.025241    0.058942
     19          6           0        3.819365    1.154952   -0.644152
     20          6           0        2.948069    2.229638   -0.443057
     21          1           0        1.198755    2.954606    0.591661
     22          1           0        0.823430    0.824936    1.820105
     23          1           0        2.377561   -1.109369    1.469069
     24          1           0        4.661270    1.216658   -1.322980
     25          1           0        3.114588    3.158551   -0.981051
     26          7           0        4.498164   -1.169848   -0.145684
     27          8           0        5.428840   -1.016321   -0.933662
     28          8           0        4.267831   -2.198845    0.485782
 ---------------------------------------------------------------------

 SCF Done:  E(RHF) =  -868.336614944     A.U. after   16 cycles
 E2 =    -0.2601223393D+01 EUMP2 =    -0.87093783833679D+03

 The electronic state is 1-A.
 Alpha  occ. eigenvalues --  -20.61151 -20.61146 -20.61093 -20.61078 -15.86211
 Alpha  occ. eigenvalues --  -15.86149 -11.31768 -11.31711 -11.28354 -11.28350
 Alpha  occ. eigenvalues --  -11.28322 -11.28286 -11.28284 -11.28106 -11.27501
 Alpha  occ. eigenvalues --  -11.27456 -11.27410 -11.27318  -1.60225  -1.60158
 Alpha  occ. eigenvalues --   -1.39775  -1.39703  -1.19988  -1.19908  -1.09372
 Alpha  occ. eigenvalues --   -1.09280  -1.05430  -1.05321  -0.96148  -0.96091
 Alpha  occ. eigenvalues --   -0.86827  -0.86727  -0.82961  -0.82921  -0.78005
 Alpha  occ. eigenvalues --   -0.77875  -0.72424  -0.72365  -0.71553  -0.71482
 Alpha  occ. eigenvalues --   -0.71173  -0.71021  -0.65686  -0.65583  -0.65467
 Alpha  occ. eigenvalues --   -0.65269  -0.62840  -0.62561  -0.56046  -0.55826
 Alpha  occ. eigenvalues --   -0.53754  -0.53675  -0.53482  -0.53389  -0.49195
 Alpha  occ. eigenvalues --   -0.49172  -0.49145  -0.49100  -0.45150  -0.45051
 Alpha  occ. eigenvalues --   -0.38024  -0.37905  -0.37038  -0.36916
 Alpha virt. eigenvalues --    0.04517   0.04598   0.10507   0.10690   0.15789
 Alpha virt. eigenvalues --    0.16001   0.19106   0.22007   0.25428   0.26104
 Alpha virt. eigenvalues --    0.28099   0.28785   0.29879   0.31263   0.32085

 Mulliken charges:
               1
     1  C   -0.171538
     2  C   -0.218222
     3  C   -0.169844
     4  C    0.159923
     5  C   -0.175763
     6  C   -0.223147
     7  H    0.224763
     8  H    0.225202
     9  H    0.277667
    10  H    0.276817
    11  H    0.218605
    12  N    0.487961
    13  O   -0.458840
    14  O   -0.458603
    15  C   -0.176748
    16  C   -0.225335
    17  C   -0.169900
    18  C    0.160203
    19  C   -0.169365
    20  C   -0.217875
    21  H    0.219293
    22  H    0.226036
    23  H    0.282123
    24  H    0.278441
    25  H    0.224965
    26  N    0.487924
    27  O   -0.458887
    28  O   -0.455856
 Sum of Mulliken charges =  -0.00000

 Dipole moment (field-independent basis, Debye):
    X=             -2.7851    Y=              9.0105    Z=              0.7155  Tot=              9.4582
 Quadrupole moment (field-independent basis, Debye-Ang):
   XX=           -122.2028   YY=           -108.9787   ZZ=           -103.9285
   XY=             -2.3347   XZ=              0.4895   YZ=             -2.5158

 Normal termination of Gaussian 16 at Fri May  7 07:57:45 2021.
