 Gaussian 16, Revision A.03,
 Gaussian 16:  EM64L-G16RevA.03 25-Dec-2016

 -------------
 #p 6-31g* mp2
 -------------

 ------------------------------------------------------
 Input file generated by CHIRIPA (05-May-2021 14:51:11)
 ------------------------------------------------------
 Symbolic Z-matrix:
 Charge =  0 Multiplicity = 1

                         Standard orientation:
 ---------------------------------------------------------------------
 Center     Atomic      Atomic             Coordinates (Angstroms)
 Number     Number       Type             X           Y           Z
 ---------------------------------------------------------------------
      1          6           0       -4.795854   -0.212666    0.308340
      2          6           0       -4.937578   -1.595049   -0.329560
      3          6           0       -6.158138   -2.360225    0.182821
      4          1           0       -4.729006   -0.324344    1.399213
      5          1           0       -5.705585    0.370472    0.109002
      6          1           0       -4.027279   -2.174920   -0.130257
      7          1           0       -5.003904   -1.480080   -1.419055
      8          1           0       -7.077741   -1.805504   -0.029819
      9          1           0       -6.095566   -2.504292    1.266301
     10          1           0       -6.240201   -3.345655   -0.286277
     11          6           0       -3.580289    0.564506   -0.193788
     12          6           0       -3.438566    1.946889    0.444112
     13          6           0       -2.218006    2.712064   -0.068269
     14          1           0       -2.670559   -0.018632    0.005550
     15          1           0       -3.647138    0.676184   -1.284661
     16          1           0       -3.372239    1.831920    1.533607
     17          1           0       -4.348865    2.526760    0.244809
     18          1           0       -2.280577    2.856132   -1.151750
     19          1           0       -1.298403    2.157344    0.144371
     20          1           0       -2.135943    3.697495    0.400828
     21          6           0        3.604963    0.312420   -0.127562
     22          6           0        2.248546   -0.379103   -0.268677
     23          6           0        1.091889    0.611061   -0.408362
     24          1           0        3.581465    0.976756    0.747110
     25          1           0        3.774302    0.954334   -1.003157
     26          1           0        2.082431   -1.020590    0.606261
     27          1           0        2.275339   -1.042015   -1.143003
     28          1           0        1.230605    1.243423   -1.291241
     29          1           0        1.036601    1.264972    0.467963
     30          1           0        0.131707    0.095312   -0.507933
     31          6           0        4.771181   -0.664261    0.013011
     32          6           0        6.127597    0.027264    0.154126
     33          6           0        7.284255   -0.962901    0.293810
     34          1           0        4.601841   -1.306174    0.888606
     35          1           0        4.794679   -1.328596   -0.861661
     36          1           0        6.100805    0.690175    1.028452
     37          1           0        6.293713    0.668749   -0.720813
     38          1           0        7.339543   -1.616811   -0.582514
     39          1           0        7.145538   -1.595263    1.176689
     40          1           0        8.244437   -0.447151    0.393381
 ---------------------------------------------------------------------

 SCF Done:  E(RHF) =  -470.732928309     A.U. after   11 cycles
 E2 =    -0.1582856510D+01 EUMP2 =    -0.47231578481852D+03

 The electronic state is 1-A.
 Alpha  occ. eigenvalues --  -11.21623 -11.21611 -11.21586 -11.21517 -11.21421
 Alpha  occ. eigenvalues --  -11.21373 -11.21361 -11.21313 -11.21109 -11.21079
 Alpha  occ. eigenvalues --  -11.21058 -11.20862  -1.08450  -1.08384  -1.03564
 Alpha  occ. eigenvalues --   -1.03457  -0.96035  -0.95889  -0.87082  -0.86883
 Alpha  occ. eigenvalues --   -0.79693  -0.79468  -0.78270  -0.78189  -0.65085
 Alpha  occ. eigenvalues --   -0.65015  -0.60994  -0.60841  -0.59435  -0.59227
 Alpha  occ. eigenvalues --   -0.57626  -0.57520  -0.55380  -0.55138  -0.52799
 Alpha  occ. eigenvalues --   -0.52615  -0.52485  -0.52203  -0.50037  -0.49757
 Alpha  occ. eigenvalues --   -0.47958  -0.47802  -0.46701  -0.46508  -0.45819
 Alpha  occ. eigenvalues --   -0.45733  -0.45721  -0.45653  -0.43761  -0.43712
 Alpha virt. eigenvalues --    0.21811   0.23005   0.23606   0.24822   0.26005
 Alpha virt. eigenvalues --    0.26566   0.26891   0.27186   0.27852   0.29083
 Alpha virt. eigenvalues --    0.30286   0.30760   0.31550   0.31847   0.32074

 Mulliken charges:
               1
     1  C   -0.298154
     2  C   -0.299613
     3  C   -0.475670
     4  H    0.149535
     5  H    0.149657
     6  H    0.151648
     7  H    0.151912
     8  H    0.155197
     9  H    0.155138
    10  H    0.160167
    11  C   -0.300832
    12  C   -0.299022
    13  C   -0.485180
    14  H    0.151145
    15  H    0.149618
    16  H    0.151163
    17  H    0.151377
    18  H    0.154100
    19  H    0.168965
    20  H    0.158817
    21  C   -0.298601
    22  C   -0.300179
    23  C   -0.480293
    24  H    0.149756
    25  H    0.149726
    26  H    0.151679
    27  H    0.152130
    28  H    0.157020
    29  H    0.155170
    30  H    0.163444
    31  C   -0.298285
    32  C   -0.299638
    33  C   -0.475715
    34  H    0.149473
    35  H    0.149707
    36  H    0.151964
    37  H    0.152001
    38  H    0.155199
    39  H    0.155167
    40  H    0.160305
 Sum of Mulliken charges =  -0.00000

 Dipole moment (field-independent basis, Debye):
    X=              0.0492    Y=             -0.0072    Z=             -0.0098  Tot=              0.0507
 Quadrupole moment (field-independent basis, Debye-Ang):
   XX=            -86.2010   YY=            -85.5567   ZZ=            -83.2421
   XY=             -0.1492   XZ=              0.4318   YZ=             -0.0535

 Normal termination of Gaussian 16 at Wed May  5 15:14:06 2021.
