 Gaussian 16, Revision A.03,
 Gaussian 16:  EM64L-G16RevA.03 25-Dec-2016

 -------------
 #p 6-31g* mp2
 -------------

 ------------------------------------------------------
 Input file generated by CHIRIPA (05-May-2021 14:51:11)
 ------------------------------------------------------
 Symbolic Z-matrix:
 Charge =  0 Multiplicity = 1

                         Standard orientation:
 ---------------------------------------------------------------------
 Center     Atomic      Atomic             Coordinates (Angstroms)
 Number     Number       Type             X           Y           Z
 ---------------------------------------------------------------------
      1          6           0       -4.153866   -0.485513   -0.376349
      2          6           0       -2.817155   -0.075156    0.242354
      3          6           0       -1.616134   -0.639009   -0.517522
      4          1           0       -4.217013   -1.581978   -0.403194
      5          1           0       -4.186618   -0.144882   -1.420520
      6          1           0       -2.787498   -0.415249    1.285462
      7          1           0       -2.757264    1.020461    0.267905
      8          1           0       -1.617963   -0.289382   -1.554999
      9          1           0       -1.648368   -1.733250   -0.531661
     10          1           0       -0.670917   -0.333353   -0.058176
     11          6           0       -5.363975    0.070468    0.372150
     12          6           0       -6.700686   -0.339889   -0.246554
     13          6           0       -7.901707    0.223964    0.513323
     14          1           0       -5.331222   -0.270162    1.416321
     15          1           0       -5.300828    1.166934    0.398995
     16          1           0       -6.760577   -1.435506   -0.272104
     17          1           0       -6.730343    0.000204   -1.289661
     18          1           0       -7.869473    1.318205    0.527461
     19          1           0       -7.899878   -0.125663    1.550800
     20          1           0       -8.846924   -0.081692    0.053977
     21          6           0        5.360749    0.044902    0.443448
     22          6           0        6.573437   -0.452383   -0.344006
     23          6           0        7.769431   -0.773560    0.552787
     24          1           0        5.643938    0.940050    1.013938
     25          1           0        5.073197   -0.717540    1.180599
     26          1           0        6.857763    0.310183   -1.080394
     27          1           0        6.287277   -1.346339   -0.912838
     28          1           0        7.509000   -1.550741    1.278574
     29          1           0        8.082728    0.115195    1.110067
     30          1           0        8.625180   -1.127286   -0.030676
     31          6           0        4.157091    0.370143   -0.439249
     32          6           0        2.944404    0.867428    0.348205
     33          6           0        1.748411    1.188605   -0.548588
     34          1           0        4.444643    1.132584   -1.176400
     35          1           0        3.873903   -0.525005   -1.009740
     36          1           0        3.230564    1.761385    0.917038
     37          1           0        2.660077    0.104861    1.084593
     38          1           0        1.435113    0.299850   -1.105868
     39          1           0        2.008841    1.965785   -1.274374
     40          1           0        0.892661    1.542331    0.034876
 ---------------------------------------------------------------------

 SCF Done:  E(RHF) =  -470.732415439     A.U. after   11 cycles
 E2 =    -0.1582600559D+01 EUMP2 =    -0.47231501599803D+03

 The electronic state is 1-A.
 Alpha  occ. eigenvalues --  -11.21603 -11.21598 -11.21576 -11.21543 -11.21402
 Alpha  occ. eigenvalues --  -11.21365 -11.21343 -11.21304 -11.21068 -11.21052
 Alpha  occ. eigenvalues --  -11.21028 -11.20897  -1.08430  -1.08385  -1.03551
 Alpha  occ. eigenvalues --   -1.03460  -0.96046  -0.95866  -0.87106  -0.86844
 Alpha  occ. eigenvalues --   -0.79654  -0.79487  -0.78241  -0.78201  -0.65066
 Alpha  occ. eigenvalues --   -0.65016  -0.60989  -0.60867  -0.59569  -0.59122
 Alpha  occ. eigenvalues --   -0.57668  -0.57463  -0.55323  -0.55176  -0.52953
 Alpha  occ. eigenvalues --   -0.52482  -0.52368  -0.52212  -0.49944  -0.49795
 Alpha  occ. eigenvalues --   -0.47922  -0.47839  -0.46644  -0.46552  -0.45783
 Alpha  occ. eigenvalues --   -0.45742  -0.45709  -0.45667  -0.43890  -0.43564
 Alpha virt. eigenvalues --    0.22190   0.22994   0.23585   0.24981   0.26546
 Alpha virt. eigenvalues --    0.26677   0.27254   0.27335   0.27625   0.29017
 Alpha virt. eigenvalues --    0.30377   0.31339   0.31493   0.31937   0.32234

 Mulliken charges:
               1
     1  C   -0.298281
     2  C   -0.299822
     3  C   -0.481868
     4  H    0.149490
     5  H    0.149488
     6  H    0.151300
     7  H    0.151439
     8  H    0.154572
     9  H    0.153393
    10  H    0.170074
    11  C   -0.298216
    12  C   -0.299595
    13  C   -0.475670
    14  H    0.149355
    15  H    0.149537
    16  H    0.151859
    17  H    0.151899
    18  H    0.155137
    19  H    0.155114
    20  H    0.160162
    21  C   -0.298289
    22  C   -0.299670
    23  C   -0.475705
    24  H    0.149632
    25  H    0.149532
    26  H    0.151922
    27  H    0.151995
    28  H    0.155181
    29  H    0.155160
    30  H    0.160252
    31  C   -0.298499
    32  C   -0.301048
    33  C   -0.479670
    34  H    0.149617
    35  H    0.150049
    36  H    0.152060
    37  H    0.151968
    38  H    0.159526
    39  H    0.155371
    40  H    0.161247
 Sum of Mulliken charges =  -0.00000

 Dipole moment (field-independent basis, Debye):
    X=              0.0407    Y=              0.0098    Z=             -0.0101  Tot=              0.0430
 Quadrupole moment (field-independent basis, Debye-Ang):
   XX=            -86.7332   YY=            -83.3581   ZZ=            -84.9052
   XY=              0.8781   XZ=             -0.1248   YZ=             -0.6215

 Normal termination of Gaussian 16 at Thu May  6 02:17:32 2021.
