 Gaussian 16, Revision A.03,
 Gaussian 16:  EM64L-G16RevA.03 25-Dec-2016

 -------------
 #p 6-31g* mp2
 -------------

 ------------------------------------------------------
 Input file generated by CHIRIPA (05-May-2021 14:55:21)
 ------------------------------------------------------
 Symbolic Z-matrix:
 Charge =  0 Multiplicity = 1

                         Standard orientation:
 ---------------------------------------------------------------------
 Center     Atomic      Atomic             Coordinates (Angstroms)
 Number     Number       Type             X           Y           Z
 ---------------------------------------------------------------------
      1          6           0       -1.213075   -1.564456    0.784750
      2          6           0       -2.210166   -2.260346    0.093327
      3          6           0       -3.388391   -1.614871   -0.293577
      4          6           0       -3.537059   -0.266807    0.028778
      5          6           0       -2.561950    0.453770    0.716688
      6          6           0       -1.391834   -0.212003    1.093679
      7          1           0       -0.300951   -2.073760    1.081457
      8          1           0       -2.074061   -3.310733   -0.147938
      9          1           0       -4.176469   -2.129566   -0.829712
     10          1           0       -2.726312    1.500281    0.943002
     11          1           0       -0.619174    0.330955    1.630558
     12          7           0       -4.780101    0.427273   -0.375573
     13          8           0       -4.886860    1.615396   -0.079597
     14          8           0       -5.624102   -0.229974   -0.980823
     15          6           0        4.823444    0.151190   -0.520135
     16          6           0        5.651570   -0.831145    0.308846
     17          6           0        6.764431   -1.496776   -0.501260
     18          1           0        4.387571   -0.379195   -1.377836
     19          1           0        5.488109    0.922008   -0.934206
     20          1           0        4.985335   -1.599095    0.722367
     21          1           0        6.085366   -0.298402    1.164779
     22          1           0        7.452189   -0.744807   -0.901423
     23          1           0        6.345906   -2.052890   -1.346350
     24          1           0        7.343893   -2.195009    0.110749
     25          6           0        3.706964    0.824682    0.275860
     26          6           0        2.878838    1.807017   -0.553121
     27          6           0        1.765978    2.472648    0.256985
     28          1           0        3.042299    0.053864    0.689931
     29          1           0        4.142838    1.355067    1.133562
     30          1           0        2.445042    1.274274   -1.409053
     31          1           0        3.545074    2.574967   -0.966642
     32          1           0        2.184501    3.028761    1.102075
     33          1           0        1.078219    1.720679    0.657150
     34          1           0        1.186516    3.170881   -0.355023
 ---------------------------------------------------------------------

 SCF Done:  E(RHF) =  -669.535399917     A.U. after   15 cycles
 E2 =    -0.2091118460D+01 EUMP2 =    -0.67162651837762D+03

 The electronic state is 1-A.
 Alpha  occ. eigenvalues --  -20.60765 -20.60760 -15.85819 -11.31196 -11.27774
 Alpha  occ. eigenvalues --  -11.27764 -11.27524 -11.26789 -11.26767 -11.22251
 Alpha  occ. eigenvalues --  -11.22169 -11.22100 -11.21960 -11.21842 -11.21546
 Alpha  occ. eigenvalues --   -1.59841  -1.39394  -1.19374  -1.09067  -1.08768
 Alpha  occ. eigenvalues --   -1.04780  -1.04149  -0.96611  -0.95599  -0.87631
 Alpha  occ. eigenvalues --   -0.86178  -0.82432  -0.80216  -0.78881  -0.77475
 Alpha  occ. eigenvalues --   -0.72038  -0.71164  -0.70483  -0.65714  -0.65027
 Alpha  occ. eigenvalues --   -0.64800  -0.62175  -0.61510  -0.59966  -0.58213
 Alpha  occ. eigenvalues --   -0.55933  -0.55275  -0.53287  -0.53166  -0.53071
 Alpha  occ. eigenvalues --   -0.52782  -0.50538  -0.48803  -0.48791  -0.48521
 Alpha  occ. eigenvalues --   -0.47241  -0.46422  -0.46346  -0.44797  -0.44405
 Alpha  occ. eigenvalues --   -0.37356  -0.36369
 Alpha virt. eigenvalues --    0.05058   0.11186   0.16482   0.20040   0.22531
 Alpha virt. eigenvalues --    0.23823   0.25398   0.26314   0.26811   0.28407
 Alpha virt. eigenvalues --    0.28624   0.30069   0.31173   0.31429   0.31853

 Mulliken charges:
               1
     1  C   -0.171956
     2  C   -0.218629
     3  C   -0.170701
     4  C    0.158415
     5  C   -0.171523
     6  C   -0.220015
     7  H    0.225440
     8  H    0.223410
     9  H    0.275699
    10  H    0.276285
    11  H    0.227534
    12  N    0.488106
    13  O   -0.460204
    14  O   -0.460497
    15  C   -0.298818
    16  C   -0.299454
    17  C   -0.475996
    18  H    0.150157
    19  H    0.152046
    20  H    0.148961
    21  H    0.152995
    22  H    0.156786
    23  H    0.155414
    24  H    0.161210
    25  C   -0.296720
    26  C   -0.299961
    27  C   -0.478957
    28  H    0.141204
    29  H    0.151153
    30  H    0.154276
    31  H    0.155483
    32  H    0.156895
    33  H    0.146237
    34  H    0.165724
 Sum of Mulliken charges =  -0.00000

 Dipole moment (field-independent basis, Debye):
    X=              4.4996    Y=             -2.3929    Z=              1.3536  Tot=              5.2731
 Quadrupole moment (field-independent basis, Debye-Ang):
   XX=           -125.5001   YY=            -89.5653   ZZ=            -94.7001
   XY=             10.3058   XZ=             -3.7612   YZ=              1.4473

 Normal termination of Gaussian 16 at Thu May  6 19:10:53 2021.
