 Gaussian 16, Revision A.03,
 Gaussian 16:  EM64L-G16RevA.03 25-Dec-2016

 -------------
 #p 6-31g* mp2
 -------------

 ------------------------------------------------------
 Input file generated by CHIRIPA (05-May-2021 14:51:07)
 ------------------------------------------------------
 Symbolic Z-matrix:
 Charge =  0 Multiplicity = 1

                         Standard orientation:
 ---------------------------------------------------------------------
 Center     Atomic      Atomic             Coordinates (Angstroms)
 Number     Number       Type             X           Y           Z
 ---------------------------------------------------------------------
      1          6           0        2.804450   -0.677823    0.673242
      2          6           0        1.531444   -1.434345    0.292301
      3          6           0        0.598373   -1.658460    1.482655
      4          1           0        3.334801   -1.236419    1.456595
      5          1           0        2.529299    0.291213    1.112170
      6          1           0        1.808949   -2.401081   -0.147048
      7          1           0        1.004161   -0.873979   -0.490372
      8          1           0        0.292853   -0.701590    1.918154
      9          1           0        1.102215   -2.237370    2.263429
     10          1           0       -0.305295   -2.200978    1.187836
     11          6           0        3.747324   -0.446081   -0.506170
     12          6           0        5.020330    0.310441   -0.125229
     13          6           0        5.953402    0.534557   -1.315584
     14          1           0        4.022476   -1.415116   -0.945098
     15          1           0        3.216973    0.112516   -1.289523
     16          1           0        5.547614   -0.249925    0.657444
     17          1           0        4.742825    1.277178    0.314119
     18          1           0        5.449560    1.113467   -2.096358
     19          1           0        6.258921   -0.422313   -1.751082
     20          1           0        6.857069    1.077075   -1.020764
     21          6           0       -2.890221    0.984895    0.422243
     22          6           0       -1.500437    1.395726   -0.065306
     23          6           0       -0.741222    2.241417    0.957529
     24          1           0       -3.470943    1.887349    0.657372
     25          1           0       -2.790544    0.423759    1.361703
     26          1           0       -1.602610    1.954728   -1.004290
     27          1           0       -0.923022    0.492194   -0.299484
     28          1           0       -0.609881    1.688350    1.893193
     29          1           0       -1.293331    3.159194    1.184382
     30          1           0        0.249652    2.524010    0.588516
     31          6           0       -3.661553    0.139008   -0.589315
     32          6           0       -5.051337   -0.271822   -0.101766
     33          6           0       -5.810553   -1.117514   -1.124600
     34          1           0       -3.761231    0.700144   -1.528775
     35          1           0       -3.080831   -0.763445   -0.824444
     36          1           0       -5.628752    0.631709    0.132412
     37          1           0       -4.949165   -0.830825    0.837219
     38          1           0       -5.258444   -2.035291   -1.351453
     39          1           0       -5.941893   -0.564447   -2.060265
     40          1           0       -6.801427   -1.400107   -0.755587
 ---------------------------------------------------------------------

 SCF Done:  E(RHF) =  -470.732798566     A.U. after   11 cycles
 E2 =    -0.1584146982D+01 EUMP2 =    -0.47231694554752D+03

 The electronic state is 1-A.
 Alpha  occ. eigenvalues --  -11.21625 -11.21606 -11.21598 -11.21583 -11.21412
 Alpha  occ. eigenvalues --  -11.21401 -11.21352 -11.21341 -11.21138 -11.21111
 Alpha  occ. eigenvalues --  -11.21074 -11.21069  -1.08476  -1.08404  -1.03623
 Alpha  occ. eigenvalues --   -1.03478  -0.96037  -0.95966  -0.87021  -0.87013
 Alpha  occ. eigenvalues --   -0.79689  -0.79545  -0.78304  -0.78195  -0.65326
 Alpha  occ. eigenvalues --   -0.64879  -0.61375  -0.60538  -0.59389  -0.59340
 Alpha  occ. eigenvalues --   -0.57662  -0.57561  -0.55485  -0.55070  -0.52702
 Alpha  occ. eigenvalues --   -0.52693  -0.52468  -0.52376  -0.50046  -0.49850
 Alpha  occ. eigenvalues --   -0.48057  -0.47806  -0.46950  -0.46419  -0.45919
 Alpha  occ. eigenvalues --   -0.45787  -0.45709  -0.45448  -0.43804  -0.43788
 Alpha virt. eigenvalues --    0.19760   0.22909   0.23759   0.24892   0.26079
 Alpha virt. eigenvalues --    0.26198   0.26392   0.28152   0.28254   0.29473
 Alpha virt. eigenvalues --    0.30663   0.30739   0.31676   0.31945   0.32234

 Mulliken charges:
               1
     1  C   -0.299554
     2  C   -0.304498
     3  C   -0.481023
     4  H    0.149683
     5  H    0.151411
     6  H    0.152375
     7  H    0.155755
     8  H    0.160286
     9  H    0.155868
    10  H    0.159408
    11  C   -0.298475
    12  C   -0.299669
    13  C   -0.475719
    14  H    0.149531
    15  H    0.149744
    16  H    0.151978
    17  H    0.151949
    18  H    0.155188
    19  H    0.155188
    20  H    0.160296
    21  C   -0.298008
    22  C   -0.308570
    23  C   -0.478346
    24  H    0.149447
    25  H    0.150403
    26  H    0.151740
    27  H    0.161743
    28  H    0.156402
    29  H    0.155923
    30  H    0.159865
    31  C   -0.298502
    32  C   -0.299712
    33  C   -0.475708
    34  H    0.149434
    35  H    0.149540
    36  H    0.151950
    37  H    0.152108
    38  H    0.155146
    39  H    0.155149
    40  H    0.160277
 Sum of Mulliken charges =  -0.00000

 Dipole moment (field-independent basis, Debye):
    X=              0.0057    Y=              0.0002    Z=              0.0067  Tot=              0.0088
 Quadrupole moment (field-independent basis, Debye-Ang):
   XX=            -85.4750   YY=            -83.7558   ZZ=            -85.5597
   XY=             -1.3621   XZ=              0.4185   YZ=             -0.7358

 Normal termination of Gaussian 16 at Wed May  5 15:01:15 2021.
