 Gaussian 16, Revision A.03,
 Gaussian 16:  EM64L-G16RevA.03 25-Dec-2016

 -------------
 #p 6-31g* mp2
 -------------

 ------------------------------------------------------
 Input file generated by CHIRIPA (05-May-2021 14:57:21)
 ------------------------------------------------------
 Symbolic Z-matrix:
 Charge =  0 Multiplicity = 1

                         Standard orientation:
 ---------------------------------------------------------------------
 Center     Atomic      Atomic             Coordinates (Angstroms)
 Number     Number       Type             X           Y           Z
 ---------------------------------------------------------------------
      1          6           0        3.876844    2.037540   -0.750509
      2          6           0        3.972678    1.803795    0.625245
      3          6           0        3.453169    0.632419    1.184295
      4          6           0        2.841587   -0.287867    0.334394
      5          6           0        2.730609   -0.083687   -1.040118
      6          6           0        3.257208    1.094715   -1.577342
      7          1           0        4.283164    2.950223   -1.176315
      8          1           0        4.453361    2.534241    1.269789
      9          1           0        3.513688    0.426131    2.245992
     10          1           0        2.245811   -0.830421   -1.657190
     11          1           0        3.181348    1.273590   -2.646124
     12          7           0        2.287854   -1.531669    0.914682
     13          8           0        1.753802   -2.326748    0.144438
     14          8           0        2.398375   -1.687932    2.128768
     15          6           0       -4.518007    1.502594    1.116820
     16          6           0       -3.400579    2.085509    0.510118
     17          6           0       -2.515552    1.308542   -0.243272
     18          6           0       -2.779602   -0.054380   -0.369808
     19          6           0       -3.884268   -0.664418    0.222524
     20          6           0       -4.755865    0.131909    0.971344
     21          1           0       -5.200301    2.113681    1.700297
     22          1           0       -3.213352    3.149750    0.621395
     23          1           0       -1.642841    1.733992   -0.723673
     24          1           0       -4.044528   -1.727963    0.093661
     25          1           0       -5.622873   -0.323497    1.441395
     26          7           0       -1.849771   -0.887168   -1.164969
     27          8           0       -2.104669   -2.085661   -1.261303
     28          8           0       -0.883680   -0.325646   -1.676825
 ---------------------------------------------------------------------

 SCF Done:  E(RHF) =  -868.338034736     A.U. after   16 cycles
 E2 =    -0.2599861042D+01 EUMP2 =    -0.87093789577729D+03

 The electronic state is 1-A.
 Alpha  occ. eigenvalues --  -20.60590 -20.60514 -20.59929 -20.59849 -15.85603
 Alpha  occ. eigenvalues --  -15.84940 -11.31007 -11.30342 -11.27616 -11.27551
 Alpha  occ. eigenvalues --  -11.27345 -11.27052 -11.26811 -11.26802 -11.26638
 Alpha  occ. eigenvalues --  -11.26589 -11.26079 -11.25931  -1.59599  -1.58975
 Alpha  occ. eigenvalues --   -1.39163  -1.38518  -1.19183  -1.18565  -1.08572
 Alpha  occ. eigenvalues --   -1.07973  -1.04599  -1.03963  -0.95404  -0.94780
 Alpha  occ. eigenvalues --   -0.85996  -0.85366  -0.82245  -0.81602  -0.77279
 Alpha  occ. eigenvalues --   -0.76616  -0.71848  -0.71165  -0.70911  -0.70302
 Alpha  occ. eigenvalues --   -0.70292  -0.69681  -0.64846  -0.64610  -0.64218
 Alpha  occ. eigenvalues --   -0.63979  -0.61950  -0.61281  -0.55105  -0.54524
 Alpha  occ. eigenvalues --   -0.52918  -0.52699  -0.52320  -0.52054  -0.48601
 Alpha  occ. eigenvalues --   -0.48553  -0.47948  -0.47888  -0.44569  -0.43898
 Alpha  occ. eigenvalues --   -0.37165  -0.36606  -0.36201  -0.35556
 Alpha virt. eigenvalues --    0.05243   0.05917   0.11453   0.12082   0.16752
 Alpha virt. eigenvalues --    0.17341   0.21548   0.22156   0.27450   0.28058
 Alpha virt. eigenvalues --    0.28451   0.29125   0.31086   0.31652   0.32675

 Mulliken charges:
               1
     1  C   -0.172358
     2  C   -0.220828
     3  C   -0.172800
     4  C    0.153026
     5  C   -0.160905
     6  C   -0.222009
     7  H    0.221580
     8  H    0.218876
     9  H    0.272196
    10  H    0.290225
    11  H    0.223469
    12  N    0.486390
    13  O   -0.450345
    14  O   -0.467978
    15  C   -0.170777
    16  C   -0.218354
    17  C   -0.171202
    18  C    0.159657
    19  C   -0.169295
    20  C   -0.218324
    21  H    0.224875
    22  H    0.221419
    23  H    0.272532
    24  H    0.277572
    25  H    0.223757
    26  N    0.491578
    27  O   -0.451492
    28  O   -0.470483
 Sum of Mulliken charges =  -0.00000

 Dipole moment (field-independent basis, Debye):
    X=             -1.5982    Y=              6.9856    Z=              0.5606  Tot=              7.1880
 Quadrupole moment (field-independent basis, Debye-Ang):
   XX=            -75.4664   YY=           -104.8709   ZZ=           -105.0846
   XY=              6.8958   XZ=            -11.6506   YZ=              1.7686

 Normal termination of Gaussian 16 at Thu May  6 14:30:32 2021.
