 Gaussian 16, Revision A.03,
 Gaussian 16:  EM64L-G16RevA.03 25-Dec-2016

 -------------
 #p 6-31g* mp2
 -------------

 ------------------------------------------------------
 Input file generated by CHIRIPA (05-May-2021 14:53:18)
 ------------------------------------------------------
 Symbolic Z-matrix:
 Charge =  0 Multiplicity = 1

                         Standard orientation:
 ---------------------------------------------------------------------
 Center     Atomic      Atomic             Coordinates (Angstroms)
 Number     Number       Type             X           Y           Z
 ---------------------------------------------------------------------
      1          6           0       -2.071873    1.161383    0.013975
      2          6           0       -2.210929    2.642715    0.366541
      3          6           0       -0.861521    3.352822    0.478971
      4          1           0       -1.457404    0.665350    0.777732
      5          1           0       -1.526705    1.067207   -0.935403
      6          1           0       -2.756882    2.734120    1.314274
      7          1           0       -2.825298    3.135239   -0.398041
      8          1           0       -0.313809    3.291262   -0.466979
      9          1           0       -0.245004    2.887864    1.255065
     10          1           0       -0.984332    4.410612    0.731671
     11          6           0       -3.412300    0.437822   -0.101965
     12          6           0       -3.273244   -1.043511   -0.454531
     13          6           0       -4.622652   -1.753617   -0.566961
     14          1           0       -3.957468    0.531997    0.847412
     15          1           0       -4.026769    0.933854   -0.865722
     16          1           0       -2.658874   -1.536035    0.310051
     17          1           0       -2.727291   -1.134916   -1.402264
     18          1           0       -5.239169   -1.288659   -1.343055
     19          1           0       -5.170364   -1.692057    0.378989
     20          1           0       -4.499841   -2.811408   -0.819661
     21          6           0        0.209296   -1.967681    0.943199
     22          6           0        1.195285   -1.485092    1.810065
     23          6           0        2.270765   -0.739871    1.317585
     24          6           0        2.329127   -0.494854   -0.053490
     25          6           0        1.362431   -0.962032   -0.942612
     26          6           0        0.295864   -1.705073   -0.427956
     27          1           0       -0.622701   -2.545739    1.334383
     28          1           0        1.130634   -1.687499    2.875380
     29          1           0        3.047909   -0.354233    1.966236
     30          1           0        1.454057   -0.744059   -1.999736
     31          1           0       -0.468418   -2.078596   -1.103527
     32          7           0        3.462971    0.292925   -0.586596
     33          8           0        3.491442    0.495106   -1.798598
     34          8           0        4.301738    0.693289    0.217653
 ---------------------------------------------------------------------

 SCF Done:  E(RHF) =  -669.533422420     A.U. after   15 cycles
 E2 =    -0.2095226939D+01 EUMP2 =    -0.67162864935885D+03

 The electronic state is 1-A.
 Alpha  occ. eigenvalues --  -20.60753 -20.60748 -15.85805 -11.31181 -11.27740
 Alpha  occ. eigenvalues --  -11.27696 -11.27450 -11.26789 -11.26670 -11.22599
 Alpha  occ. eigenvalues --  -11.21997 -11.21895 -11.21810 -11.21658 -11.21130
 Alpha  occ. eigenvalues --   -1.59828  -1.39381  -1.19345  -1.09011  -1.08713
 Alpha  occ. eigenvalues --   -1.04744  -1.04058  -0.96456  -0.95582  -0.87485
 Alpha  occ. eigenvalues --   -0.86153  -0.82411  -0.80227  -0.78753  -0.77431
 Alpha  occ. eigenvalues --   -0.72025  -0.71148  -0.70480  -0.65628  -0.64986
 Alpha  occ. eigenvalues --   -0.64764  -0.62111  -0.61464  -0.59860  -0.58083
 Alpha  occ. eigenvalues --   -0.55735  -0.55266  -0.53340  -0.53113  -0.52861
 Alpha  occ. eigenvalues --   -0.52723  -0.50405  -0.48806  -0.48781  -0.48441
 Alpha  occ. eigenvalues --   -0.47249  -0.46222  -0.46159  -0.44786  -0.44280
 Alpha  occ. eigenvalues --   -0.37243  -0.36280
 Alpha virt. eigenvalues --    0.05026   0.11240   0.16386   0.20275   0.22794
 Alpha virt. eigenvalues --    0.23899   0.24855   0.26159   0.27581   0.28162
 Alpha virt. eigenvalues --    0.29024   0.29517   0.31201   0.31658   0.31834

 Mulliken charges:
               1
     1  C   -0.301058
     2  C   -0.300312
     3  C   -0.475901
     4  H    0.154361
     5  H    0.148086
     6  H    0.150583
     7  H    0.152147
     8  H    0.158506
     9  H    0.155000
    10  H    0.161607
    11  C   -0.297548
    12  C   -0.303305
    13  C   -0.475391
    14  H    0.150156
    15  H    0.152168
    16  H    0.144345
    17  H    0.147475
    18  H    0.159362
    19  H    0.157267
    20  H    0.158160
    21  C   -0.175156
    22  C   -0.219250
    23  C   -0.171864
    24  C    0.159687
    25  C   -0.172946
    26  C   -0.210919
    27  H    0.225789
    28  H    0.223257
    29  H    0.275473
    30  H    0.274857
    31  H    0.228255
    32  N    0.488115
    33  O   -0.460614
    34  O   -0.460390
 Sum of Mulliken charges =  -0.00000

 Dipole moment (field-independent basis, Debye):
    X=             -4.0227    Y=             -2.6999    Z=              1.8672  Tot=              5.1921
 Quadrupole moment (field-independent basis, Debye-Ang):
   XX=           -114.0867   YY=            -93.0611   ZZ=            -89.8412
   XY=             -4.9741   XZ=              6.5801   YZ=             -0.6709

 Normal termination of Gaussian 16 at Thu May  6 02:52:18 2021.
