 Gaussian 16, Revision A.03,
 Gaussian 16:  EM64L-G16RevA.03 25-Dec-2016

 -------------
 #p 6-31g* mp2
 -------------

 ------------------------------------------------------
 Input file generated by CHIRIPA (05-May-2021 14:53:11)
 ------------------------------------------------------
 Symbolic Z-matrix:
 Charge =  0 Multiplicity = 1

                         Standard orientation:
 ---------------------------------------------------------------------
 Center     Atomic      Atomic             Coordinates (Angstroms)
 Number     Number       Type             X           Y           Z
 ---------------------------------------------------------------------
      1          6           0        4.257436   -0.306213   -0.155404
      2          6           0        3.036677    0.130158    0.655344
      3          6           0        1.729449   -0.449150    0.113724
      4          1           0        4.123979    0.001521   -1.201555
      5          1           0        4.314536   -1.403543   -0.157234
      6          1           0        2.982680    1.226378    0.656802
      7          1           0        3.173142   -0.178482    1.699727
      8          1           0        1.757961   -1.543494    0.127887
      9          1           0        1.566417   -0.130652   -0.920964
     10          1           0        0.869718   -0.124454    0.708110
     11          6           0        5.571816    0.264834    0.373783
     12          6           0        6.792575   -0.171537   -0.436965
     13          6           0        8.099803    0.407771    0.104655
     14          1           0        5.514716    1.362163    0.375613
     15          1           0        5.705273   -0.042900    1.419935
     16          1           0        6.656110    0.137103   -1.481348
     17          1           0        6.846572   -1.267757   -0.438423
     18          1           0        8.262835    0.089272    1.139343
     19          1           0        8.071291    1.502114    0.090493
     20          1           0        8.959534    0.083074   -0.489731
     21          6           0       -6.315465    0.275276    0.325347
     22          6           0       -5.735496   -0.997578    0.324401
     23          6           0       -4.364688   -1.153048    0.097984
     24          6           0       -3.600190   -0.008886   -0.125005
     25          6           0       -4.148678    1.272684   -0.130223
     26          6           0       -5.521605    1.404354    0.098432
     27          1           0       -7.381165    0.386804    0.502102
     28          1           0       -6.349573   -1.876213    0.500340
     29          1           0       -3.889799   -2.126629    0.091815
     30          1           0       -3.510765    2.129806   -0.308621
     31          1           0       -5.969303    2.394107    0.098598
     32          7           0       -2.147855   -0.160878   -0.365887
     33          8           0       -1.496088    0.862956   -0.559796
     34          8           0       -1.688783   -1.300963   -0.356219
 ---------------------------------------------------------------------

 SCF Done:  E(RHF) =  -669.535711622     A.U. after   15 cycles
 E2 =    -0.2091707408D+01 EUMP2 =    -0.67162741903061D+03

 The electronic state is 1-A.
 Alpha  occ. eigenvalues --  -20.60961 -20.60941 -15.85967 -11.31309 -11.27869
 Alpha  occ. eigenvalues --  -11.27865 -11.27606 -11.26875 -11.26866 -11.20853
 Alpha  occ. eigenvalues --  -11.20464 -11.20455 -11.20184 -11.20023 -11.18779
 Alpha  occ. eigenvalues --   -1.60001  -1.39556  -1.19474  -1.08875  -1.07331
 Alpha  occ. eigenvalues --   -1.04870  -1.02290  -0.95719  -0.94683  -0.86269
 Alpha  occ. eigenvalues --   -0.85687  -0.82546  -0.78404  -0.77601  -0.77075
 Alpha  occ. eigenvalues --   -0.72173  -0.71326  -0.70581  -0.65126  -0.64872
 Alpha  occ. eigenvalues --   -0.63981  -0.62216  -0.59702  -0.58190  -0.56298
 Alpha  occ. eigenvalues --   -0.55373  -0.53995  -0.53204  -0.52960  -0.51438
 Alpha  occ. eigenvalues --   -0.51121  -0.48999  -0.48859  -0.48521  -0.46686
 Alpha  occ. eigenvalues --   -0.45481  -0.44968  -0.44598  -0.44515  -0.42464
 Alpha  occ. eigenvalues --   -0.37451  -0.36471
 Alpha virt. eigenvalues --    0.04905   0.11184   0.16407   0.21324   0.23856
 Alpha virt. eigenvalues --    0.25614   0.27240   0.27674   0.28203   0.28500
 Alpha virt. eigenvalues --    0.29416   0.30887   0.32432   0.32605   0.32725

 Mulliken charges:
               1
     1  C   -0.296972
     2  C   -0.303017
     3  C   -0.463375
     4  H    0.148601
     5  H    0.147248
     6  H    0.148070
     7  H    0.144525
     8  H    0.148722
     9  H    0.158964
    10  H    0.168297
    11  C   -0.296931
    12  C   -0.298739
    13  C   -0.475031
    14  H    0.147751
    15  H    0.147341
    16  H    0.151105
    17  H    0.150792
    18  H    0.153951
    19  H    0.154109
    20  H    0.157970
    21  C   -0.170579
    22  C   -0.218586
    23  C   -0.170875
    24  C    0.159828
    25  C   -0.170913
    26  C   -0.218574
    27  H    0.226028
    28  H    0.223876
    29  H    0.275946
    30  H    0.275804
    31  H    0.223853
    32  N    0.486521
    33  O   -0.458438
    34  O   -0.457274
 Sum of Mulliken charges =  -0.00000

 Dipole moment (field-independent basis, Debye):
    X=             -5.6000    Y=              0.5269    Z=              0.7745  Tot=              5.6778
 Quadrupole moment (field-independent basis, Debye-Ang):
   XX=            -61.2721   YY=            -89.3330   ZZ=            -95.6741
   XY=             -1.8566   XZ=             -2.9718   YZ=             -1.2309

 Normal termination of Gaussian 16 at Wed May  5 16:56:09 2021.
