 Gaussian 16, Revision A.03,
 Gaussian 16:  EM64L-G16RevA.03 25-Dec-2016

 -------------
 #p 6-31g* mp2
 -------------

 ------------------------------------------------------
 Input file generated by CHIRIPA (05-May-2021 14:53:11)
 ------------------------------------------------------
 Symbolic Z-matrix:
 Charge =  0 Multiplicity = 1

                         Standard orientation:
 ---------------------------------------------------------------------
 Center     Atomic      Atomic             Coordinates (Angstroms)
 Number     Number       Type             X           Y           Z
 ---------------------------------------------------------------------
      1          6           0        3.597443    0.602751    0.810675
      2          6           0        2.071242    0.538590    0.743010
      3          6           0        1.395486    1.562643    1.655404
      4          1           0        3.919272    0.440110    1.848422
      5          1           0        3.927498    1.614173    0.535932
      6          1           0        1.744241   -0.472801    1.016459
      7          1           0        1.753018    0.701212   -0.294730
      8          1           0        1.693120    2.579589    1.380020
      9          1           0        1.684293    1.398906    2.698659
     10          1           0        0.304728    1.499313    1.591397
     11          6           0        4.287366   -0.414971   -0.095955
     12          6           0        5.813567   -0.350810   -0.028290
     13          6           0        6.489323   -1.374863   -0.940683
     14          1           0        3.957311   -1.426393    0.178788
     15          1           0        3.965537   -0.252330   -1.133702
     16          1           0        6.131790   -0.513432    1.009450
     17          1           0        6.140568    0.660581   -0.301739
     18          1           0        6.200516   -1.211126   -1.983939
     19          1           0        6.191689   -2.391809   -0.665300
     20          1           0        7.580081   -1.311533   -0.876677
     21          6           0       -1.772049    1.902226   -1.146522
     22          6           0       -3.048245    2.090546   -0.605800
     23          6           0       -3.782013    1.003204   -0.122249
     24          6           0       -3.206452   -0.264343   -0.195337
     25          6           0       -1.937275   -0.484233   -0.728376
     26          6           0       -1.221608    0.617703   -1.205980
     27          1           0       -1.209070    2.752567   -1.519846
     28          1           0       -3.478235    3.086990   -0.558344
     29          1           0       -4.772057    1.120528    0.301386
     30          1           0       -1.535093   -1.489481   -0.762186
     31          1           0       -0.230712    0.468467   -1.625385
     32          7           0       -3.973678   -1.423188    0.313428
     33          8           0       -3.444275   -2.529816    0.237644
     34          8           0       -5.089907   -1.202919    0.778351
 ---------------------------------------------------------------------

 SCF Done:  E(RHF) =  -669.535236747     A.U. after   15 cycles
 E2 =    -0.2092225395D+01 EUMP2 =    -0.67162746214272D+03

 The electronic state is 1-A.
 Alpha  occ. eigenvalues --  -20.60775 -20.60770 -15.85828 -11.31203 -11.27767
 Alpha  occ. eigenvalues --  -11.27761 -11.27518 -11.26792 -11.26764 -11.22281
 Alpha  occ. eigenvalues --  -11.21998 -11.21921 -11.21854 -11.21539 -11.21402
 Alpha  occ. eigenvalues --   -1.59850  -1.39403  -1.19380  -1.08949  -1.08770
 Alpha  occ. eigenvalues --   -1.04785  -1.04011  -0.96437  -0.95603  -0.87454
 Alpha  occ. eigenvalues --   -0.86181  -0.82437  -0.80105  -0.78772  -0.77472
 Alpha  occ. eigenvalues --   -0.72046  -0.71173  -0.70480  -0.65614  -0.65028
 Alpha  occ. eigenvalues --   -0.64779  -0.62165  -0.61388  -0.59814  -0.58067
 Alpha  occ. eigenvalues --   -0.55726  -0.55280  -0.53314  -0.53028  -0.52876
 Alpha  occ. eigenvalues --   -0.52723  -0.50383  -0.48815  -0.48800  -0.48386
 Alpha  occ. eigenvalues --   -0.47135  -0.46297  -0.46219  -0.44806  -0.44262
 Alpha  occ. eigenvalues --   -0.37344  -0.36358
 Alpha virt. eigenvalues --    0.05046   0.11204   0.16508   0.20397   0.22632
 Alpha virt. eigenvalues --    0.24009   0.25242   0.26378   0.27486   0.28264
 Alpha virt. eigenvalues --    0.28469   0.30220   0.31159   0.31426   0.32093

 Mulliken charges:
               1
     1  C   -0.298027
     2  C   -0.299813
     3  C   -0.479694
     4  H    0.152889
     5  H    0.149031
     6  H    0.154771
     7  H    0.139964
     8  H    0.151693
     9  H    0.158634
    10  H    0.166253
    11  C   -0.298424
    12  C   -0.299915
    13  C   -0.476029
    14  H    0.151273
    15  H    0.145784
    16  H    0.153647
    17  H    0.151841
    18  H    0.154531
    19  H    0.156442
    20  H    0.161632
    21  C   -0.171899
    22  C   -0.218720
    23  C   -0.171124
    24  C    0.158503
    25  C   -0.172897
    26  C   -0.215732
    27  H    0.225899
    28  H    0.223654
    29  H    0.275694
    30  H    0.276069
    31  H    0.226696
    32  N    0.488093
    33  O   -0.460339
    34  O   -0.460382
 Sum of Mulliken charges =  -0.00000

 Dipole moment (field-independent basis, Debye):
    X=              2.7488    Y=              4.0632    Z=             -1.7307  Tot=              5.2020
 Quadrupole moment (field-independent basis, Debye-Ang):
   XX=           -109.6339   YY=            -95.5008   ZZ=            -94.1998
   XY=            -16.3181   XZ=              4.7449   YZ=             -0.4506

 Normal termination of Gaussian 16 at Wed May  5 18:27:48 2021.
