 Gaussian 16, Revision A.03,
 Gaussian 16:  EM64L-G16RevA.03 25-Dec-2016

 -------------
 #p 6-31g* mp2
 -------------

 ------------------------------------------------------
 Input file generated by CHIRIPA (05-May-2021 14:55:21)
 ------------------------------------------------------
 Symbolic Z-matrix:
 Charge =  0 Multiplicity = 1

                         Standard orientation:
 ---------------------------------------------------------------------
 Center     Atomic      Atomic             Coordinates (Angstroms)
 Number     Number       Type             X           Y           Z
 ---------------------------------------------------------------------
      1          6           0       -5.933988   -1.172902    0.349314
      2          6           0       -4.808396   -1.806156   -0.187857
      3          6           0       -3.641939   -1.080639   -0.447764
      4          6           0       -3.635945    0.282724   -0.157085
      5          6           0       -4.741183    0.942211    0.378467
      6          6           0       -5.896854    0.196846    0.630266
      7          1           0       -6.835930   -1.744210    0.548067
      8          1           0       -4.834367   -2.869795   -0.407043
      9          1           0       -2.756235   -1.545684   -0.863311
     10          1           0       -4.685080    2.003814    0.586476
     11          1           0       -6.769504    0.691281    1.047473
     12          7           0       -2.406778    1.061302   -0.427945
     13          8           0       -2.427005    2.261316   -0.163004
     14          8           0       -1.446404    0.456795   -0.900058
     15          6           0        4.268061   -0.588153    0.023183
     16          6           0        3.021034    0.123904    0.548428
     17          6           0        1.738121   -0.669778    0.299440
     18          1           0        4.151689   -0.771292   -1.053786
     19          1           0        4.347328   -1.574376    0.501175
     20          1           0        2.944899    1.109054    0.070620
     21          1           0        3.140470    0.305541    1.624235
     22          1           0        1.788397   -1.647138    0.790197
     23          1           0        1.591715   -0.839060   -0.772246
     24          1           0        0.859019   -0.142466    0.682821
     25          6           0        5.558566    0.192876    0.264673
     26          6           0        6.805593   -0.519181   -0.260573
     27          6           0        8.088506    0.274502   -0.011583
     28          1           0        5.479298    1.179100   -0.213319
     29          1           0        5.674938    0.376016    1.341641
     30          1           0        6.686157   -0.700817   -1.336379
     31          1           0        6.881728   -1.504330    0.217236
     32          1           0        8.234912    0.443784    1.060102
     33          1           0        8.038230    1.251861   -0.502340
     34          1           0        8.967608   -0.252810   -0.394966
 ---------------------------------------------------------------------

 SCF Done:  E(RHF) =  -669.535780088     A.U. after   15 cycles
 E2 =    -0.2090776503D+01 EUMP2 =    -0.67162655659095D+03

 The electronic state is 1-A.
 Alpha  occ. eigenvalues --  -20.60891 -20.60875 -15.85914 -11.31252 -11.27819
 Alpha  occ. eigenvalues --  -11.27812 -11.27561 -11.26830 -11.26819 -11.21065
 Alpha  occ. eigenvalues --  -11.20712 -11.20616 -11.20569 -11.20499 -11.19672
 Alpha  occ. eigenvalues --   -1.59952  -1.39506  -1.19424  -1.08827  -1.07657
 Alpha  occ. eigenvalues --   -1.04821  -1.02686  -0.95669  -0.95119  -0.86223
 Alpha  occ. eigenvalues --   -0.86139  -0.82497  -0.78780  -0.77553  -0.77445
 Alpha  occ. eigenvalues --   -0.72139  -0.71271  -0.70532  -0.65079  -0.64825
 Alpha  occ. eigenvalues --   -0.64294  -0.62168  -0.60086  -0.58523  -0.56720
 Alpha  occ. eigenvalues --   -0.55327  -0.54420  -0.53155  -0.52913  -0.51785
 Alpha  occ. eigenvalues --   -0.51561  -0.49117  -0.48901  -0.48858  -0.47086
 Alpha  occ. eigenvalues --   -0.45833  -0.44992  -0.44944  -0.44875  -0.42889
 Alpha  occ. eigenvalues --   -0.37404  -0.36423
 Alpha virt. eigenvalues --    0.04958   0.11231   0.16437   0.21356   0.23596
 Alpha virt. eigenvalues --    0.25202   0.27267   0.27381   0.28110   0.28243
 Alpha virt. eigenvalues --    0.28980   0.30908   0.32150   0.32378   0.32609

 Mulliken charges:
               1
     1  C   -0.170655
     2  C   -0.218585
     3  C   -0.170799
     4  C    0.157980
     5  C   -0.170862
     6  C   -0.218596
     7  H    0.225836
     8  H    0.223780
     9  H    0.276373
    10  H    0.275709
    11  H    0.223642
    12  N    0.488377
    13  O   -0.459815
    14  O   -0.458961
    15  C   -0.297631
    16  C   -0.300322
    17  C   -0.474167
    18  H    0.149064
    19  H    0.146010
    20  H    0.156176
    21  H    0.147238
    22  H    0.142812
    23  H    0.158509
    24  H    0.173057
    25  C   -0.297724
    26  C   -0.299007
    27  C   -0.475298
    28  H    0.150058
    29  H    0.148159
    30  H    0.151382
    31  H    0.150327
    32  H    0.154341
    33  H    0.155164
    34  H    0.158429
 Sum of Mulliken charges =  -0.00000

 Dipole moment (field-independent basis, Debye):
    X=             -4.6188    Y=             -2.6618    Z=              0.8892  Tot=              5.4046
 Quadrupole moment (field-independent basis, Debye-Ang):
   XX=            -64.8580   YY=            -93.2148   ZZ=            -94.5687
   XY=              6.5813   XZ=             -3.9664   YZ=              1.9249

 Normal termination of Gaussian 16 at Thu May  6 12:28:35 2021.
