 Gaussian 16, Revision A.03,
 Gaussian 16:  EM64L-G16RevA.03 25-Dec-2016

 -------------
 #p 6-31g* mp2
 -------------

 ------------------------------------------------------
 Input file generated by CHIRIPA (05-May-2021 14:53:17)
 ------------------------------------------------------
 Symbolic Z-matrix:
 Charge =  0 Multiplicity = 1

                         Standard orientation:
 ---------------------------------------------------------------------
 Center     Atomic      Atomic             Coordinates (Angstroms)
 Number     Number       Type             X           Y           Z
 ---------------------------------------------------------------------
      1          6           0        3.963226    0.845307    0.409044
      2          6           0        2.820054    1.583156   -0.288611
      3          6           0        2.182995    2.656356    0.594673
      4          1           0        3.584907    0.385342    1.332219
      5          1           0        4.728398    1.572915    0.713171
      6          1           0        2.057911    0.854206   -0.592561
      7          1           0        3.201095    2.041257   -1.210331
      8          1           0        2.925942    3.405338    0.887346
      9          1           0        1.776263    2.211543    1.508627
     10          1           0        1.368158    3.171293    0.076272
     11          6           0        4.610182   -0.230673   -0.461267
     12          6           0        5.753354   -0.968522    0.236388
     13          6           0        6.390413   -2.041722   -0.646897
     14          1           0        3.845011   -0.958282   -0.765394
     15          1           0        4.988501    0.229292   -1.384442
     16          1           0        5.372314   -1.426623    1.158108
     17          1           0        6.515498   -0.239573    0.540337
     18          1           0        6.797146   -1.596909   -1.560850
     19          1           0        5.647466   -2.790704   -0.939569
     20          1           0        7.205250   -2.556659   -0.128495
     21          6           0       -0.854288   -0.194949    0.395049
     22          6           0       -1.594998   -1.327293    0.749541
     23          6           0       -2.977755   -1.363404    0.546496
     24          6           0       -3.590166   -0.244456   -0.015820
     25          6           0       -2.879626    0.898432   -0.379458
     26          6           0       -1.497832    0.912347   -0.167328
     27          1           0        0.219496   -0.175519    0.556309
     28          1           0       -1.097875   -2.188689    1.186475
     29          1           0       -3.575407   -2.227053    0.811712
     30          1           0       -3.403219    1.741792   -0.813061
     31          1           0       -0.925126    1.793102   -0.443597
     32          7           0       -5.053519   -0.270935   -0.235584
     33          8           0       -5.569384    0.727794   -0.732636
     34          8           0       -5.656922   -1.289918    0.093379
 ---------------------------------------------------------------------

 SCF Done:  E(RHF) =  -669.535260220     A.U. after   15 cycles
 E2 =    -0.2091874197D+01 EUMP2 =    -0.67162713441680D+03

 The electronic state is 1-A.
 Alpha  occ. eigenvalues --  -20.60731 -20.60725 -15.85784 -11.31145 -11.27712
 Alpha  occ. eigenvalues --  -11.27702 -11.27422 -11.26728 -11.26697 -11.22894
 Alpha  occ. eigenvalues --  -11.22461 -11.22381 -11.22347 -11.22261 -11.21687
 Alpha  occ. eigenvalues --   -1.59806  -1.39360  -1.19313  -1.09449  -1.08707
 Alpha  occ. eigenvalues --   -1.04718  -1.04532  -0.96969  -0.95545  -0.87980
 Alpha  occ. eigenvalues --   -0.86110  -0.82382  -0.80608  -0.79209  -0.77427
 Alpha  occ. eigenvalues --   -0.72002  -0.71129  -0.70468  -0.66101  -0.64963
 Alpha  occ. eigenvalues --   -0.64731  -0.62126  -0.61883  -0.60348  -0.58558
 Alpha  occ. eigenvalues --   -0.56264  -0.55203  -0.53679  -0.53385  -0.53047
 Alpha  occ. eigenvalues --   -0.52769  -0.50904  -0.48908  -0.48757  -0.48749
 Alpha  occ. eigenvalues --   -0.47657  -0.46745  -0.46665  -0.44775  -0.44766
 Alpha  occ. eigenvalues --   -0.37287  -0.36318
 Alpha virt. eigenvalues --    0.05092   0.11312   0.16551   0.18405   0.22291
 Alpha virt. eigenvalues --    0.23981   0.24667   0.25689   0.26505   0.27896
 Alpha virt. eigenvalues --    0.29188   0.29842   0.30913   0.31474   0.32187

 Mulliken charges:
               1
     1  C   -0.299574
     2  C   -0.306435
     3  C   -0.480117
     4  H    0.147279
     5  H    0.154471
     6  H    0.144808
     7  H    0.158990
     8  H    0.163421
     9  H    0.155072
    10  H    0.157539
    11  C   -0.298415
    12  C   -0.300260
    13  C   -0.476184
    14  H    0.147290
    15  H    0.152691
    16  H    0.151542
    17  H    0.153968
    18  H    0.156764
    19  H    0.155285
    20  H    0.162517
    21  C   -0.176379
    22  C   -0.219049
    23  C   -0.170936
    24  C    0.158610
    25  C   -0.171558
    26  C   -0.222222
    27  H    0.231970
    28  H    0.223163
    29  H    0.275344
    30  H    0.275635
    31  H    0.227803
    32  N    0.488031
    33  O   -0.460487
    34  O   -0.460576
 Sum of Mulliken charges =  -0.00000

 Dipole moment (field-independent basis, Debye):
    X=              5.4423    Y=              0.1542    Z=              0.7675  Tot=              5.4983
 Quadrupole moment (field-independent basis, Debye-Ang):
   XX=           -131.1104   YY=            -90.4971   ZZ=            -94.9512
   XY=             -0.2531   XZ=             -2.9627   YZ=             -2.8848

 Normal termination of Gaussian 16 at Wed May  5 17:15:26 2021.
