 Gaussian 16, Revision A.03,
 Gaussian 16:  EM64L-G16RevA.03 25-Dec-2016

 -------------
 #p 6-31g* mp2
 -------------

 ------------------------------------------------------
 Input file generated by CHIRIPA (05-May-2021 14:55:21)
 ------------------------------------------------------
 Symbolic Z-matrix:
 Charge =  0 Multiplicity = 1

                         Standard orientation:
 ---------------------------------------------------------------------
 Center     Atomic      Atomic             Coordinates (Angstroms)
 Number     Number       Type             X           Y           Z
 ---------------------------------------------------------------------
      1          6           0       -2.653452    2.657675    0.209053
      2          6           0       -1.637356    2.130647   -0.594883
      3          6           0       -1.599908    0.763954   -0.886939
      4          6           0       -2.598989   -0.050460   -0.356038
      5          6           0       -3.624407    0.444662    0.448117
      6          6           0       -3.641991    1.814487    0.727073
      7          1           0       -2.674827    3.720572    0.430841
      8          1           0       -0.868333    2.783103   -0.998551
      9          1           0       -0.824801    0.329502   -1.506518
     10          1           0       -4.377193   -0.230761    0.836105
     11          1           0       -4.432312    2.221013    1.351714
     12          7           0       -2.569859   -1.498974   -0.658290
     13          8           0       -3.461714   -2.195349   -0.178401
     14          8           0       -1.655722   -1.910518   -1.369362
     15          6           0        2.883227   -0.374906    0.994739
     16          6           0        1.504065   -0.914613    0.614460
     17          6           0        0.616107   -1.177567    1.831087
     18          1           0        3.378629   -1.091567    1.664007
     19          1           0        2.760307    0.554507    1.567869
     20          1           0        1.629590   -1.841995    0.041030
     21          1           0        1.011967   -0.196673   -0.054134
     22          1           0        0.461357   -0.255983    2.401469
     23          1           0        1.082490   -1.910653    2.497174
     24          1           0       -0.364959   -1.562890    1.536309
     25          6           0        3.782476   -0.107073   -0.210809
     26          6           0        5.161638    0.432634    0.169470
     27          6           0        6.049596    0.695588   -1.047157
     28          1           0        3.905396   -1.036485   -0.783940
     29          1           0        3.287074    0.609588   -0.880077
     30          1           0        5.653736   -0.285306    0.838063
     31          1           0        5.036113    1.360016    0.742900
     32          1           0        5.583214    1.428675   -1.713244
     33          1           0        6.204346   -0.225996   -1.617540
     34          1           0        7.030663    1.080912   -0.752379
 ---------------------------------------------------------------------

 SCF Done:  E(RHF) =  -669.534816156     A.U. after   15 cycles
 E2 =    -0.2093596953D+01 EUMP2 =    -0.67162841310946D+03

 The electronic state is 1-A.
 Alpha  occ. eigenvalues --  -20.60849 -20.60832 -15.85879 -11.31219 -11.27798
 Alpha  occ. eigenvalues --  -11.27783 -11.27543 -11.26811 -11.26798 -11.21646
 Alpha  occ. eigenvalues --  -11.21410 -11.21369 -11.21286 -11.21127 -11.20835
 Alpha  occ. eigenvalues --   -1.59914  -1.39465  -1.19405  -1.08804  -1.08383
 Alpha  occ. eigenvalues --   -1.04811  -1.03447  -0.95911  -0.95640  -0.86927
 Alpha  occ. eigenvalues --   -0.86208  -0.82473  -0.79525  -0.78215  -0.77501
 Alpha  occ. eigenvalues --   -0.72100  -0.71257  -0.70525  -0.65075  -0.65047
 Alpha  occ. eigenvalues --   -0.64786  -0.62190  -0.60836  -0.59271  -0.57510
 Alpha  occ. eigenvalues --   -0.55326  -0.55204  -0.53119  -0.52911  -0.52568
 Alpha  occ. eigenvalues --   -0.52327  -0.49855  -0.48865  -0.48858  -0.47824
 Alpha  occ. eigenvalues --   -0.46555  -0.45755  -0.45647  -0.44843  -0.43717
 Alpha  occ. eigenvalues --   -0.37368  -0.36366
 Alpha virt. eigenvalues --    0.04975   0.11194   0.16452   0.21032   0.22946
 Alpha virt. eigenvalues --    0.24273   0.25823   0.27086   0.27619   0.27934
 Alpha virt. eigenvalues --    0.28967   0.30583   0.31392   0.31787   0.31857

 Mulliken charges:
               1
     1  C   -0.170416
     2  C   -0.219883
     3  C   -0.168501
     4  C    0.156961
     5  C   -0.171063
     6  C   -0.218390
     7  H    0.225730
     8  H    0.223384
     9  H    0.277227
    10  H    0.275847
    11  H    0.223613
    12  N    0.489019
    13  O   -0.459878
    14  O   -0.459380
    15  C   -0.298615
    16  C   -0.298611
    17  C   -0.476142
    18  H    0.150961
    19  H    0.145861
    20  H    0.162928
    21  H    0.141690
    22  H    0.150932
    23  H    0.156759
    24  H    0.162163
    25  C   -0.297089
    26  C   -0.299417
    27  C   -0.475504
    28  H    0.152896
    29  H    0.143527
    30  H    0.153187
    31  H    0.150097
    32  H    0.153290
    33  H    0.156648
    34  H    0.160166
 Sum of Mulliken charges =  -0.00000

 Dipole moment (field-independent basis, Debye):
    X=             -0.1591    Y=              4.9887    Z=              1.0520  Tot=              5.1009
 Quadrupole moment (field-independent basis, Debye-Ang):
   XX=            -91.4745   YY=            -94.7508   ZZ=            -95.3361
   XY=            -13.6521   XZ=             -4.8283   YZ=             -2.1458

 Normal termination of Gaussian 16 at Thu May  6 09:20:55 2021.
