 Gaussian 16, Revision A.03,
 Gaussian 16:  EM64L-G16RevA.03 25-Dec-2016

 -------------
 #p 6-31g* mp2
 -------------

 ------------------------------------------------------
 Input file generated by CHIRIPA (05-May-2021 14:51:09)
 ------------------------------------------------------
 Symbolic Z-matrix:
 Charge =  0 Multiplicity = 1

                         Standard orientation:
 ---------------------------------------------------------------------
 Center     Atomic      Atomic             Coordinates (Angstroms)
 Number     Number       Type             X           Y           Z
 ---------------------------------------------------------------------
      1          6           0       -2.242259   -0.641479    0.623640
      2          6           0       -1.805202   -2.062447    0.981152
      3          6           0       -0.717702   -2.093777    2.055469
      4          1           0       -1.368366   -0.071536    0.279515
      5          1           0       -2.606402   -0.138338    1.530085
      6          1           0       -1.443283   -2.563221    0.074038
      7          1           0       -2.680272   -2.629131    1.324284
      8          1           0       -1.071784   -1.618593    2.976027
      9          1           0        0.172233   -1.552309    1.718677
     10          1           0       -0.420187   -3.119253    2.295769
     11          6           0       -3.328943   -0.593701   -0.449003
     12          6           0       -3.766000    0.827267   -0.806515
     13          6           0       -4.853500    0.858597   -1.880832
     14          1           0       -2.964799   -1.096842   -1.355448
     15          1           0       -4.202836   -1.163645   -0.104878
     16          1           0       -2.890930    1.393950   -1.149647
     17          1           0       -4.127919    1.328041    0.100599
     18          1           0       -5.743435    0.317129   -1.544040
     19          1           0       -4.499418    0.383413   -2.801390
     20          1           0       -5.151015    1.884072   -2.121132
     21          6           0        2.685452    1.258033    0.316705
     22          6           0        1.223301    1.527170    0.674007
     23          6           0        1.039099    2.811910    1.482280
     24          1           0        3.277279    1.199799    1.240444
     25          1           0        3.079234    2.110745   -0.253570
     26          1           0        0.831992    0.673592    1.242249
     27          1           0        0.634853    1.584579   -0.250682
     28          1           0        1.403210    3.677085    0.918813
     29          1           0        1.601470    2.760922    2.420225
     30          1           0       -0.013575    2.984905    1.726845
     31          6           0        2.885750   -0.022852   -0.491342
     32          6           0        4.347902   -0.291990   -0.848644
     33          6           0        4.532103   -1.576730   -1.656917
     34          1           0        2.491968   -0.875565    0.078933
     35          1           0        2.293923    0.035381   -1.415081
     36          1           0        4.936349   -0.349398    0.076045
     37          1           0        4.739210    0.561588   -1.416885
     38          1           0        3.969733   -1.525742   -2.594861
     39          1           0        4.167992   -2.441905   -1.093449
     40          1           0        5.584776   -1.749725   -1.901482
 ---------------------------------------------------------------------

 SCF Done:  E(RHF) =  -470.732508383     A.U. after   11 cycles
 E2 =    -0.1584244802D+01 EUMP2 =    -0.47231675318452D+03

 The electronic state is 1-A.
 Alpha  occ. eigenvalues --  -11.21641 -11.21606 -11.21584 -11.21571 -11.21457
 Alpha  occ. eigenvalues --  -11.21390 -11.21342 -11.21245 -11.21100 -11.21081
 Alpha  occ. eigenvalues --  -11.21076 -11.21058  -1.08490  -1.08378  -1.03579
 Alpha  occ. eigenvalues --   -1.03498  -0.96011  -0.95959  -0.87026  -0.86981
 Alpha  occ. eigenvalues --   -0.79734  -0.79518  -0.78428  -0.78056  -0.65155
 Alpha  occ. eigenvalues --   -0.64992  -0.61049  -0.60845  -0.59436  -0.59268
 Alpha  occ. eigenvalues --   -0.57654  -0.57547  -0.55298  -0.55254  -0.52705
 Alpha  occ. eigenvalues --   -0.52658  -0.52435  -0.52399  -0.49981  -0.49900
 Alpha  occ. eigenvalues --   -0.48220  -0.47803  -0.46799  -0.46543  -0.46153
 Alpha  occ. eigenvalues --   -0.45758  -0.45668  -0.45071  -0.43808  -0.43750
 Alpha virt. eigenvalues --    0.20896   0.22857   0.23663   0.24121   0.25667
 Alpha virt. eigenvalues --    0.25836   0.27038   0.27615   0.28478   0.29475
 Alpha virt. eigenvalues --    0.30838   0.31669   0.31766   0.31859   0.32081

 Mulliken charges:
               1
     1  C   -0.306968
     2  C   -0.298974
     3  C   -0.482666
     4  H    0.160906
     5  H    0.148223
     6  H    0.151820
     7  H    0.151714
     8  H    0.155038
     9  H    0.160592
    10  H    0.160314
    11  C   -0.297824
    12  C   -0.299634
    13  C   -0.475644
    14  H    0.149165
    15  H    0.149303
    16  H    0.151464
    17  H    0.151782
    18  H    0.155239
    19  H    0.155073
    20  H    0.160105
    21  C   -0.297165
    22  C   -0.310075
    23  C   -0.475433
    24  H    0.149788
    25  H    0.149600
    26  H    0.162116
    27  H    0.151553
    28  H    0.155001
    29  H    0.155234
    30  H    0.161216
    31  C   -0.301392
    32  C   -0.299528
    33  C   -0.475812
    34  H    0.151264
    35  H    0.149213
    36  H    0.152257
    37  H    0.152211
    38  H    0.155070
    39  H    0.155406
    40  H    0.160449
 Sum of Mulliken charges =  -0.00000

 Dipole moment (field-independent basis, Debye):
    X=              0.0370    Y=              0.0171    Z=              0.0079  Tot=              0.0416
 Quadrupole moment (field-independent basis, Debye-Ang):
   XX=            -85.0311   YY=            -85.4080   ZZ=            -84.4402
   XY=              0.3412   XZ=             -0.8441   YZ=             -0.8269

 Normal termination of Gaussian 16 at Thu May  6 00:34:28 2021.
