 Gaussian 16, Revision A.03,
 Gaussian 16:  EM64L-G16RevA.03 25-Dec-2016

 -------------
 #p 6-31g* mp2
 -------------

 ------------------------------------------------------
 Input file generated by CHIRIPA (05-May-2021 14:53:16)
 ------------------------------------------------------
 Symbolic Z-matrix:
 Charge =  0 Multiplicity = 1

                         Standard orientation:
 ---------------------------------------------------------------------
 Center     Atomic      Atomic             Coordinates (Angstroms)
 Number     Number       Type             X           Y           Z
 ---------------------------------------------------------------------
      1          6           0       -3.554436   -0.357749    0.061669
      2          6           0       -3.619059   -1.547091   -0.897119
      3          6           0       -4.139527   -2.819033   -0.226992
      4          1           0       -2.909493   -0.615699    0.912819
      5          1           0       -4.556261   -0.172764    0.473402
      6          1           0       -2.617684   -1.728907   -1.307979
      7          1           0       -4.263770   -1.286211   -1.746180
      8          1           0       -5.148438   -2.661310    0.167753
      9          1           0       -3.492999   -3.106522    0.608444
     10          1           0       -4.177546   -3.656666   -0.930402
     11          6           0       -3.036050    0.921171   -0.593592
     12          6           0       -2.971426    2.110513    0.365196
     13          6           0       -2.450959    3.382455   -0.304931
     14          1           0       -2.034225    0.736186   -1.005324
     15          1           0       -3.680993    1.179121   -1.444741
     16          1           0       -2.326715    1.849633    1.214258
     17          1           0       -3.972801    2.292329    0.776057
     18          1           0       -3.097487    3.669944   -1.140366
     19          1           0       -1.442048    3.224732   -0.699675
     20          1           0       -2.412940    4.220088    0.398480
     21          6           0        0.317845   -0.644655    1.253528
     22          6           0        1.101062   -1.718857    0.818578
     23          6           0        2.352948   -1.495422    0.237711
     24          6           0        2.792565   -0.179041    0.106683
     25          6           0        2.035516    0.912189    0.530220
     26          6           0        0.786745    0.665130    1.108217
     27          1           0       -0.653440   -0.827401    1.703646
     28          1           0        0.739458   -2.737109    0.930158
     29          1           0        2.979838   -2.308525   -0.107673
     30          1           0        2.422840    1.916115    0.405592
     31          1           0        0.180642    1.501310    1.445097
     32          7           0        4.116231    0.070004   -0.506736
     33          8           0        4.480858    1.239125   -0.610858
     34          8           0        4.764030   -0.908629   -0.871796
 ---------------------------------------------------------------------

 SCF Done:  E(RHF) =  -669.535200337     A.U. after   15 cycles
 E2 =    -0.2093175524D+01 EUMP2 =    -0.67162837586062D+03

 The electronic state is 1-A.
 Alpha  occ. eigenvalues --  -20.60795 -20.60790 -15.85849 -11.31233 -11.27804
 Alpha  occ. eigenvalues --  -11.27800 -11.27535 -11.26820 -11.26804 -11.22610
 Alpha  occ. eigenvalues --  -11.22429 -11.22368 -11.22196 -11.21897 -11.21888
 Alpha  occ. eigenvalues --   -1.59870  -1.39423  -1.19409  -1.09355  -1.08793
 Alpha  occ. eigenvalues --   -1.04815  -1.04412  -0.96848  -0.95631  -0.87858
 Alpha  occ. eigenvalues --   -0.86209  -0.82464  -0.80473  -0.79164  -0.77506
 Alpha  occ. eigenvalues --   -0.72067  -0.71194  -0.70555  -0.66068  -0.65056
 Alpha  occ. eigenvalues --   -0.64751  -0.62262  -0.61711  -0.60208  -0.58458
 Alpha  occ. eigenvalues --   -0.56235  -0.55246  -0.53523  -0.53260  -0.53126
 Alpha  occ. eigenvalues --   -0.52894  -0.50788  -0.48854  -0.48821  -0.48750
 Alpha  occ. eigenvalues --   -0.47517  -0.46712  -0.46589  -0.44824  -0.44664
 Alpha  occ. eigenvalues --   -0.37371  -0.36411
 Alpha virt. eigenvalues --    0.05001   0.11133   0.16380   0.18532   0.22356
 Alpha virt. eigenvalues --    0.23408   0.25006   0.26229   0.26721   0.27621
 Alpha virt. eigenvalues --    0.29621   0.30676   0.30895   0.31369   0.31543

 Mulliken charges:
               1
     1  C   -0.299095
     2  C   -0.301770
     3  C   -0.475070
     4  H    0.138501
     5  H    0.153071
     6  H    0.153888
     7  H    0.156174
     8  H    0.157774
     9  H    0.148883
    10  H    0.163631
    11  C   -0.302419
    12  C   -0.300468
    13  C   -0.478250
    14  H    0.155390
    15  H    0.154210
    16  H    0.139829
    17  H    0.156141
    18  H    0.160421
    19  H    0.155546
    20  H    0.161634
    21  C   -0.173227
    22  C   -0.220396
    23  C   -0.170788
    24  C    0.158804
    25  C   -0.171916
    26  C   -0.223752
    27  H    0.230709
    28  H    0.223925
    29  H    0.275846
    30  H    0.276103
    31  H    0.229163
    32  N    0.487979
    33  O   -0.460204
    34  O   -0.460267
 Sum of Mulliken charges =  -0.00000

 Dipole moment (field-independent basis, Debye):
    X=             -4.7970    Y=             -0.8438    Z=              2.0012  Tot=              5.2657
 Quadrupole moment (field-independent basis, Debye-Ang):
   XX=           -119.9577   YY=            -90.2407   ZZ=            -95.0747
   XY=             -3.0878   XZ=              6.3370   YZ=              0.4132

 Normal termination of Gaussian 16 at Wed May  5 17:12:49 2021.
