 Gaussian 16, Revision A.03,
 Gaussian 16:  EM64L-G16RevA.03 25-Dec-2016

 -------------
 #p 6-31g* mp2
 -------------

 ------------------------------------------------------
 Input file generated by CHIRIPA (05-May-2021 14:51:09)
 ------------------------------------------------------
 Symbolic Z-matrix:
 Charge =  0 Multiplicity = 1

                         Standard orientation:
 ---------------------------------------------------------------------
 Center     Atomic      Atomic             Coordinates (Angstroms)
 Number     Number       Type             X           Y           Z
 ---------------------------------------------------------------------
      1          6           0       -3.024222    0.796159   -0.023901
      2          6           0       -4.271420    1.561912    0.418937
      3          6           0       -3.949738    2.959201    0.949878
      4          1           0       -2.330048    0.716976    0.823918
      5          1           0       -2.504315    1.373856   -0.800663
      6          1           0       -4.789568    0.982290    1.193649
      7          1           0       -4.962789    1.639115   -0.429982
      8          1           0       -3.453232    3.558910    0.180182
      9          1           0       -3.279027    2.898354    1.813037
     10          1           0       -4.855606    3.488905    1.260809
     11          6           0       -3.329564   -0.602470   -0.557127
     12          6           0       -2.082366   -1.368223   -0.999966
     13          6           0       -2.404047   -2.765512   -1.530906
     14          1           0       -3.849470   -1.180167    0.219634
     15          1           0       -4.023738   -0.523287   -1.404946
     16          1           0       -1.390997   -1.445425   -0.151046
     17          1           0       -1.564218   -0.788601   -1.774677
     18          1           0       -3.074759   -2.704664   -2.394066
     19          1           0       -2.900554   -3.365221   -0.761210
     20          1           0       -1.498180   -3.295215   -1.841838
     21          6           0        3.663926    0.491568    0.291764
     22          6           0        3.988523    1.013003   -1.108495
     23          6           0        4.964111    2.190145   -1.089515
     24          1           0        3.242333    1.309404    0.892054
     25          1           0        4.596333    0.188274    0.787774
     26          1           0        3.055633    1.313931   -1.602230
     27          1           0        4.409215    0.193781   -1.705580
     28          1           0        5.909828    1.899183   -0.620942
     29          1           0        4.548555    3.025697   -0.517005
     30          1           0        5.182284    2.547096   -2.100873
     31          6           0        2.689860   -0.685258    0.289264
     32          6           0        2.365263   -1.206692    1.689523
     33          6           0        1.389675   -2.383834    1.670543
     34          1           0        1.757453   -0.381964   -0.206745
     35          1           0        3.111452   -1.503094   -0.311025
     36          1           0        1.944571   -0.387471    2.286609
     37          1           0        3.298153   -1.507620    2.183259
     38          1           0        1.805230   -3.219386    1.098034
     39          1           0        0.443957   -2.092872    1.201970
     40          1           0        1.171502   -2.740786    2.681902
 ---------------------------------------------------------------------

 SCF Done:  E(RHF) =  -470.733376890     A.U. after   11 cycles
 E2 =    -0.1582777215D+01 EUMP2 =    -0.47231615410460D+03

 The electronic state is 1-A.
 Alpha  occ. eigenvalues --  -11.21632 -11.21631 -11.21600 -11.21589 -11.21442
 Alpha  occ. eigenvalues --  -11.21386 -11.21381 -11.21326 -11.21100 -11.21074
 Alpha  occ. eigenvalues --  -11.21067 -11.21061  -1.08466  -1.08416  -1.03565
 Alpha  occ. eigenvalues --   -1.03516  -0.96005  -0.95969  -0.87022  -0.86987
 Alpha  occ. eigenvalues --   -0.79665  -0.79550  -0.78305  -0.78203  -0.65137
 Alpha  occ. eigenvalues --   -0.65014  -0.61063  -0.60834  -0.59395  -0.59315
 Alpha  occ. eigenvalues --   -0.57650  -0.57546  -0.55337  -0.55219  -0.52695
 Alpha  occ. eigenvalues --   -0.52668  -0.52432  -0.52397  -0.50031  -0.49855
 Alpha  occ. eigenvalues --   -0.48060  -0.47823  -0.46803  -0.46484  -0.45928
 Alpha  occ. eigenvalues --   -0.45763  -0.45734  -0.45491  -0.43810  -0.43775
 Alpha virt. eigenvalues --    0.20996   0.23194   0.23576   0.24738   0.25846
 Alpha virt. eigenvalues --    0.26546   0.27134   0.27793   0.28145   0.28889
 Alpha virt. eigenvalues --    0.30439   0.31525   0.31725   0.31888   0.32060

 Mulliken charges:
               1
     1  C   -0.298384
     2  C   -0.299661
     3  C   -0.475751
     4  H    0.149059
     5  H    0.149354
     6  H    0.152129
     7  H    0.152118
     8  H    0.155130
     9  H    0.155116
    10  H    0.160426
    11  C   -0.297550
    12  C   -0.309143
    13  C   -0.475284
    14  H    0.149742
    15  H    0.149907
    16  H    0.159597
    17  H    0.152008
    18  H    0.155214
    19  H    0.155357
    20  H    0.160994
    21  C   -0.298288
    22  C   -0.299633
    23  C   -0.475708
    24  H    0.149683
    25  H    0.149436
    26  H    0.151998
    27  H    0.151865
    28  H    0.155146
    29  H    0.155213
    30  H    0.160171
    31  C   -0.299468
    32  C   -0.299060
    33  C   -0.483611
    34  H    0.151167
    35  H    0.149459
    36  H    0.151542
    37  H    0.151957
    38  H    0.155444
    39  H    0.162167
    40  H    0.160142
 Sum of Mulliken charges =  -0.00000

 Dipole moment (field-independent basis, Debye):
    X=             -0.0187    Y=             -0.0080    Z=             -0.0104  Tot=              0.0228
 Quadrupole moment (field-independent basis, Debye-Ang):
   XX=            -84.6288   YY=            -85.9949   ZZ=            -84.0947
   XY=             -1.2160   XZ=              0.1142   YZ=             -0.5914

 Normal termination of Gaussian 16 at Wed May  5 15:09:15 2021.
