 Gaussian 16, Revision A.03,
 Gaussian 16:  EM64L-G16RevA.03 25-Dec-2016

 -------------
 #p 6-31g* mp2
 -------------

 ------------------------------------------------------
 Input file generated by CHIRIPA (05-May-2021 14:57:24)
 ------------------------------------------------------
 Symbolic Z-matrix:
 Charge =  0 Multiplicity = 1

                         Standard orientation:
 ---------------------------------------------------------------------
 Center     Atomic      Atomic             Coordinates (Angstroms)
 Number     Number       Type             X           Y           Z
 ---------------------------------------------------------------------
      1          6           0        1.973866    1.553945   -0.687719
      2          6           0        3.270990    2.035305   -0.482092
      3          6           0        4.315685    1.155643   -0.183168
      4          6           0        4.026328   -0.205300   -0.097175
      5          6           0        2.744490   -0.715550   -0.296743
      6          6           0        1.715211    0.182472   -0.594552
      7          1           0        1.168310    2.244419   -0.919498
      8          1           0        3.474792    3.099902   -0.553815
      9          1           0        5.329157    1.501243   -0.019299
     10          1           0        2.572179   -1.782142   -0.218588
     11          1           0        0.708821   -0.194194   -0.753754
     12          7           0        5.124139   -1.146278    0.218693
     13          8           0        4.843171   -2.340754    0.288833
     14          8           0        6.244784   -0.671522    0.390149
     15          6           0       -1.866916    1.331052    1.049791
     16          6           0       -2.051249    1.207918   -0.331288
     17          6           0       -3.143882    0.500527   -0.841483
     18          6           0       -4.036668   -0.073611    0.062171
     19          6           0       -3.880256    0.031485    1.443395
     20          6           0       -2.780397    0.743478    1.931170
     21          1           0       -1.015326    1.882358    1.437414
     22          1           0       -1.343432    1.663192   -1.018140
     23          1           0       -3.310626    0.389684   -1.906063
     24          1           0       -4.602740   -0.433344    2.103218
     25          1           0       -2.639761    0.837479    3.004218
     26          7           0       -5.197213   -0.824930   -0.466082
     27          8           0       -5.969492   -1.321467    0.351030
     28          8           0       -5.312596   -0.903049   -1.687238
 ---------------------------------------------------------------------

 SCF Done:  E(RHF) =  -868.336549759     A.U. after   16 cycles
 E2 =    -0.2600995803D+01 EUMP2 =    -0.87093754556155D+03

 The electronic state is 1-A.
 Alpha  occ. eigenvalues --  -20.61416 -20.61407 -20.61273 -20.61268 -15.86478
 Alpha  occ. eigenvalues --  -15.86328 -11.32024 -11.31854 -11.28707 -11.28601
 Alpha  occ. eigenvalues --  -11.28453 -11.28408 -11.28389 -11.28329 -11.27829
 Alpha  occ. eigenvalues --  -11.27603 -11.27526 -11.27468  -1.60487  -1.60344
 Alpha  occ. eigenvalues --   -1.40035  -1.39893  -1.20250  -1.20042  -1.09621
 Alpha  occ. eigenvalues --   -1.09436  -1.05692  -1.05443  -0.96407  -0.96244
 Alpha  occ. eigenvalues --   -0.87124  -0.86823  -0.83233  -0.83057  -0.78260
 Alpha  occ. eigenvalues --   -0.78039  -0.72693  -0.72545  -0.71815  -0.71669
 Alpha  occ. eigenvalues --   -0.71414  -0.71183  -0.65955  -0.65859  -0.65667
 Alpha  occ. eigenvalues --   -0.65308  -0.63050  -0.62732  -0.56178  -0.56079
 Alpha  occ. eigenvalues --   -0.54059  -0.53793  -0.53768  -0.53466  -0.49466
 Alpha  occ. eigenvalues --   -0.49433  -0.49317  -0.49290  -0.45400  -0.45262
 Alpha  occ. eigenvalues --   -0.38316  -0.38025  -0.37297  -0.37018
 Alpha virt. eigenvalues --    0.04307   0.04443   0.10143   0.10640   0.15704
 Alpha virt. eigenvalues --    0.15843   0.18136   0.21973   0.24737   0.26687
 Alpha virt. eigenvalues --    0.27360   0.29000   0.29831   0.30877   0.31712

 Mulliken charges:
               1
     1  C   -0.179393
     2  C   -0.217517
     3  C   -0.170899
     4  C    0.159739
     5  C   -0.170994
     6  C   -0.221805
     7  H    0.217381
     8  H    0.224875
     9  H    0.277662
    10  H    0.278861
    11  H    0.228099
    12  N    0.487778
    13  O   -0.458060
    14  O   -0.458753
    15  C   -0.170676
    16  C   -0.228210
    17  C   -0.171121
    18  C    0.158915
    19  C   -0.168651
    20  C   -0.218515
    21  H    0.227086
    22  H    0.217565
    23  H    0.278097
    24  H    0.279232
    25  H    0.227692
    26  N    0.487993
    27  O   -0.457498
    28  O   -0.458881
 Sum of Mulliken charges =  -0.00000

 Dipole moment (field-independent basis, Debye):
    X=              0.1322    Y=              5.7875    Z=              0.9020  Tot=              5.8589
 Quadrupole moment (field-independent basis, Debye-Ang):
   XX=           -165.5898   YY=           -104.5669   ZZ=           -100.6682
   XY=              6.3449   XZ=            -13.1486   YZ=             -0.7450

 Normal termination of Gaussian 16 at Fri May  7 09:34:30 2021.
