 Gaussian 16, Revision A.03,
 Gaussian 16:  EM64L-G16RevA.03 25-Dec-2016

 -------------
 #p 6-31g* mp2
 -------------

 ------------------------------------------------------
 Input file generated by CHIRIPA (05-May-2021 14:55:25)
 ------------------------------------------------------
 Symbolic Z-matrix:
 Charge =  0 Multiplicity = 1

                         Standard orientation:
 ---------------------------------------------------------------------
 Center     Atomic      Atomic             Coordinates (Angstroms)
 Number     Number       Type             X           Y           Z
 ---------------------------------------------------------------------
      1          6           0       -1.057026    0.654562   -1.021670
      2          6           0       -1.274139   -0.716417   -0.849042
      3          6           0       -2.502019   -1.186521   -0.373794
      4          6           0       -3.495154   -0.253512   -0.079743
      5          6           0       -3.309317    1.118603   -0.241167
      6          6           0       -2.073516    1.566089   -0.717717
      7          1           0       -0.100103    1.010965   -1.391360
      8          1           0       -0.486534   -1.426618   -1.084283
      9          1           0       -2.696993   -2.242439   -0.230825
     10          1           0       -4.113561    1.802365    0.001895
     11          1           0       -1.907723    2.631380   -0.850804
     12          7           0       -4.799248   -0.739218    0.424070
     13          8           0       -5.658059    0.103197    0.675901
     14          8           0       -4.937893   -1.953132    0.557589
     15          6           0        3.828613    0.813497   -0.102523
     16          6           0        3.024539    1.626867    0.912305
     17          6           0        2.289793    2.806717    0.275206
     18          1           0        4.552902    1.472897   -0.600059
     19          1           0        3.151637    0.445316   -0.885813
     20          1           0        3.702599    1.992244    1.694193
     21          1           0        2.302210    0.965413    1.407619
     22          1           0        1.591025    2.456777   -0.491518
     23          1           0        2.999371    3.489443   -0.203316
     24          1           0        1.721418    3.374413    1.018531
     25          6           0        4.568759   -0.369436    0.519234
     26          6           0        5.372833   -1.182806   -0.495595
     27          6           0        6.107580   -2.362657    0.141504
     28          1           0        5.245734   -0.001255    1.302524
     29          1           0        3.844469   -1.028835    1.016770
     30          1           0        6.095163   -0.521352   -0.990908
     31          1           0        4.694772   -1.548183   -1.277482
     32          1           0        5.398000   -3.045382    0.620027
     33          1           0        6.806347   -2.012717    0.908230
     34          1           0        6.675953   -2.930351   -0.601821
 ---------------------------------------------------------------------

 SCF Done:  E(RHF) =  -669.535374715     A.U. after   15 cycles
 E2 =    -0.2091211834D+01 EUMP2 =    -0.67162658654858D+03

 The electronic state is 1-A.
 Alpha  occ. eigenvalues --  -20.60762 -20.60757 -15.85816 -11.31186 -11.27757
 Alpha  occ. eigenvalues --  -11.27749 -11.27486 -11.26777 -11.26758 -11.22481
 Alpha  occ. eigenvalues --  -11.22286 -11.22248 -11.22155 -11.22093 -11.21599
 Alpha  occ. eigenvalues --   -1.59838  -1.39391  -1.19359  -1.09234  -1.08753
 Alpha  occ. eigenvalues --   -1.04762  -1.04318  -0.96782  -0.95588  -0.87797
 Alpha  occ. eigenvalues --   -0.86158  -0.82422  -0.80380  -0.79029  -0.77465
 Alpha  occ. eigenvalues --   -0.72034  -0.71161  -0.70500  -0.65871  -0.65011
 Alpha  occ. eigenvalues --   -0.64765  -0.62109  -0.61725  -0.60145  -0.58379
 Alpha  occ. eigenvalues --   -0.56179  -0.55202  -0.53456  -0.53195  -0.53080
 Alpha  occ. eigenvalues --   -0.52853  -0.50722  -0.48797  -0.48789  -0.48686
 Alpha  occ. eigenvalues --   -0.47413  -0.46571  -0.46493  -0.44796  -0.44570
 Alpha  occ. eigenvalues --   -0.37331  -0.36366
 Alpha virt. eigenvalues --    0.05051   0.11278   0.16456   0.19081   0.22595
 Alpha virt. eigenvalues --    0.23785   0.25342   0.26131   0.26625   0.27862
 Alpha virt. eigenvalues --    0.28855   0.30357   0.30937   0.31338   0.32000

 Mulliken charges:
               1
     1  C   -0.173257
     2  C   -0.219708
     3  C   -0.170900
     4  C    0.158515
     5  C   -0.171018
     6  C   -0.219653
     7  H    0.230538
     8  H    0.223158
     9  H    0.275500
    10  H    0.275664
    11  H    0.224127
    12  N    0.488044
    13  O   -0.460381
    14  O   -0.460467
    15  C   -0.297208
    16  C   -0.301482
    17  C   -0.476311
    18  H    0.152389
    19  H    0.140628
    20  H    0.156622
    21  H    0.154294
    22  H    0.142696
    23  H    0.159081
    24  H    0.164359
    25  C   -0.298929
    26  C   -0.299746
    27  C   -0.476103
    28  H    0.152502
    29  H    0.149756
    30  H    0.153360
    31  H    0.149631
    32  H    0.155568
    33  H    0.156829
    34  H    0.161901
 Sum of Mulliken charges =  -0.00000

 Dipole moment (field-independent basis, Debye):
    X=              4.7805    Y=              1.7360    Z=             -1.6729  Tot=              5.3540
 Quadrupole moment (field-independent basis, Debye-Ang):
   XX=           -125.7697   YY=            -91.4733   ZZ=            -95.3822
   XY=             -7.9357   XZ=              5.9989   YZ=              1.1134

 Normal termination of Gaussian 16 at Thu May  6 11:07:19 2021.
