 Gaussian 16, Revision A.03,
 Gaussian 16:  EM64L-G16RevA.03 25-Dec-2016

 -------------
 #p 6-31g* mp2
 -------------

 ------------------------------------------------------
 Input file generated by CHIRIPA (05-May-2021 14:55:24)
 ------------------------------------------------------
 Symbolic Z-matrix:
 Charge =  0 Multiplicity = 1

                         Standard orientation:
 ---------------------------------------------------------------------
 Center     Atomic      Atomic             Coordinates (Angstroms)
 Number     Number       Type             X           Y           Z
 ---------------------------------------------------------------------
      1          6           0        1.828896    2.159602    0.921940
      2          6           0        1.765977    1.874591   -0.446026
      3          6           0        2.224984    0.649017   -0.937786
      4          6           0        2.743159   -0.272602   -0.029269
      5          6           0        2.819237   -0.018114    1.339211
      6          6           0        2.354398    1.214007    1.808630
      7          1           0        1.470063    3.114200    1.295274
      8          1           0        1.358363    2.607057   -1.136960
      9          1           0        2.188089    0.402365   -1.991930
     10          1           0        3.230825   -0.768251    2.003521
     11          1           0        2.404501    1.432623    2.871523
     12          7           0        3.232176   -1.573527   -0.538047
     13          8           0        3.684249   -2.368606    0.282998
     14          8           0        3.154135   -1.773480   -1.748240
     15          6           0       -2.891166    0.619002    0.070612
     16          6           0       -3.050774    1.851068   -0.820750
     17          6           0       -2.009401    2.931579   -0.527771
     18          1           0       -2.963578    0.924170    1.123500
     19          1           0       -1.882798    0.204364   -0.066002
     20          1           0       -4.059016    2.262448   -0.683530
     21          1           0       -2.978165    1.542903   -1.871643
     22          1           0       -0.997512    2.543637   -0.683275
     23          1           0       -2.084504    3.267271    0.511590
     24          1           0       -2.141935    3.803238   -1.176234
     25          6           0       -3.924996   -0.470028   -0.210346
     26          6           0       -3.765389   -1.702094    0.681015
     27          6           0       -4.806760   -2.782603    0.388037
     28          1           0       -4.933364   -0.055389   -0.073732
     29          1           0       -3.852584   -0.775195   -1.263235
     30          1           0       -3.837997   -1.393929    1.731909
     31          1           0       -2.757146   -2.113474    0.543795
     32          1           0       -4.731658   -3.118295   -0.651324
     33          1           0       -5.818651   -2.394662    0.543540
     34          1           0       -4.674227   -3.654263    1.036499
 ---------------------------------------------------------------------

 SCF Done:  E(RHF) =  -669.535119184     A.U. after   15 cycles
 E2 =    -0.2092110680D+01 EUMP2 =    -0.67162722986449D+03

 The electronic state is 1-A.
 Alpha  occ. eigenvalues --  -20.60805 -20.60800 -15.85859 -11.31234 -11.27813
 Alpha  occ. eigenvalues --  -11.27804 -11.27537 -11.26807 -11.26797 -11.22077
 Alpha  occ. eigenvalues --  -11.21763 -11.21708 -11.21691 -11.21560 -11.21113
 Alpha  occ. eigenvalues --   -1.59881  -1.39434  -1.19413  -1.08806  -1.08709
 Alpha  occ. eigenvalues --   -1.04823  -1.03847  -0.96319  -0.95630  -0.87353
 Alpha  occ. eigenvalues --   -0.86210  -0.82465  -0.79928  -0.78499  -0.77515
 Alpha  occ. eigenvalues --   -0.72077  -0.71205  -0.70501  -0.65370  -0.65061
 Alpha  occ. eigenvalues --   -0.64829  -0.62202  -0.61226  -0.59692  -0.57909
 Alpha  occ. eigenvalues --   -0.55654  -0.55275  -0.53221  -0.53039  -0.52929
 Alpha  occ. eigenvalues --   -0.52633  -0.50247  -0.48836  -0.48831  -0.48229
 Alpha  occ. eigenvalues --   -0.46939  -0.46051  -0.45947  -0.44838  -0.44087
 Alpha  occ. eigenvalues --   -0.37351  -0.36394
 Alpha virt. eigenvalues --    0.05022   0.11089   0.16482   0.20921   0.22695
 Alpha virt. eigenvalues --    0.24131   0.26175   0.26527   0.27366   0.27850
 Alpha virt. eigenvalues --    0.28894   0.30347   0.31375   0.31779   0.31810

 Mulliken charges:
               1
     1  C   -0.168611
     2  C   -0.219086
     3  C   -0.173231
     4  C    0.158190
     5  C   -0.170412
     6  C   -0.218669
     7  H    0.227408
     8  H    0.225646
     9  H    0.275791
    10  H    0.275844
    11  H    0.223748
    12  N    0.488087
    13  O   -0.460247
    14  O   -0.460465
    15  C   -0.299310
    16  C   -0.298529
    17  C   -0.483236
    18  H    0.148170
    19  H    0.152408
    20  H    0.153518
    21  H    0.153015
    22  H    0.153934
    23  H    0.153209
    24  H    0.159488
    25  C   -0.298698
    26  C   -0.300212
    27  C   -0.475952
    28  H    0.149316
    29  H    0.151007
    30  H    0.150847
    31  H    0.154482
    32  H    0.156501
    33  H    0.154530
    34  H    0.161520
 Sum of Mulliken charges =  -0.00000

 Dipole moment (field-independent basis, Debye):
    X=             -1.7268    Y=              4.5116    Z=              1.8206  Tot=              5.1624
 Quadrupole moment (field-independent basis, Debye-Ang):
   XX=           -104.6766   YY=            -98.2599   ZZ=            -90.1076
   XY=             12.1512   XZ=              5.9192   YZ=             -1.7700

 Normal termination of Gaussian 16 at Thu May  6 12:39:10 2021.
