 Gaussian 16, Revision A.03,
 Gaussian 16:  EM64L-G16RevA.03 25-Dec-2016

 -------------
 #p 6-31g* mp2
 -------------

 ------------------------------------------------------
 Input file generated by CHIRIPA (05-May-2021 14:57:22)
 ------------------------------------------------------
 Symbolic Z-matrix:
 Charge =  0 Multiplicity = 1

                         Standard orientation:
 ---------------------------------------------------------------------
 Center     Atomic      Atomic             Coordinates (Angstroms)
 Number     Number       Type             X           Y           Z
 ---------------------------------------------------------------------
      1          6           0       -2.039816   -1.476490    1.620124
      2          6           0       -3.319665   -1.046488    1.985644
      3          6           0       -4.090943   -0.283186    1.104140
      4          6           0       -3.548756    0.033338   -0.140503
      5          6           0       -2.276912   -0.380223   -0.533784
      6          6           0       -1.523434   -1.142573    0.363792
      7          1           0       -1.447583   -2.069071    2.311140
      8          1           0       -3.723256   -1.304317    2.960674
      9          1           0       -5.084673    0.062817    1.361433
     10          1           0       -1.901591   -0.107454   -1.512634
     11          1           0       -0.529792   -1.475144    0.077233
     12          7           0       -4.355851    0.840908   -1.082219
     13          8           0       -3.855390    1.106467   -2.172932
     14          8           0       -5.473630    1.193031   -0.711792
     15          6           0        3.500238    2.365763    1.091646
     16          6           0        2.560158    1.417736    1.508799
     17          6           0        2.504254    0.159012    0.902962
     18          6           0        3.407568   -0.119311   -0.121661
     19          6           0        4.355692    0.804040   -0.559582
     20          6           0        4.393430    2.056434    0.060605
     21          1           0        3.536609    3.341111    1.567849
     22          1           0        1.865255    1.655201    2.309275
     23          1           0        1.786624   -0.593619    1.206229
     24          1           0        5.035344    0.538213   -1.360098
     25          1           0        5.124572    2.790725   -0.265423
     26          7           0        3.358001   -1.448514   -0.770629
     27          8           0        4.164849   -1.669140   -1.671161
     28          8           0        2.513240   -2.244549   -0.366471
 ---------------------------------------------------------------------

 SCF Done:  E(RHF) =  -868.339072816     A.U. after   16 cycles
 E2 =    -0.2599552705D+01 EUMP2 =    -0.87093862552032D+03

 The electronic state is 1-A.
 Alpha  occ. eigenvalues --  -20.61666 -20.61601 -20.60743 -20.60736 -15.86659
 Alpha  occ. eigenvalues --  -15.85792 -11.31863 -11.31149 -11.28469 -11.28353
 Alpha  occ. eigenvalues --  -11.28061 -11.27726 -11.27665 -11.27446 -11.27382
 Alpha  occ. eigenvalues --  -11.27329 -11.26752 -11.26603  -1.60687  -1.59818
 Alpha  occ. eigenvalues --   -1.40253  -1.39371  -1.20005  -1.19313  -1.09419
 Alpha  occ. eigenvalues --   -1.08714  -1.05385  -1.04697  -0.96289  -0.95551
 Alpha  occ. eigenvalues --   -0.86793  -0.86095  -0.83129  -0.82369  -0.78220
 Alpha  occ. eigenvalues --   -0.77412  -0.72881  -0.72011  -0.71993  -0.71142
 Alpha  occ. eigenvalues --   -0.71110  -0.70424  -0.65658  -0.65399  -0.64956
 Alpha  occ. eigenvalues --   -0.64660  -0.62761  -0.62001  -0.55865  -0.55209
 Alpha  occ. eigenvalues --   -0.53714  -0.53491  -0.53046  -0.52743  -0.49654
 Alpha  occ. eigenvalues --   -0.49606  -0.48767  -0.48765  -0.45681  -0.44778
 Alpha  occ. eigenvalues --   -0.37953  -0.37324  -0.36979  -0.36296
 Alpha virt. eigenvalues --    0.04281   0.05093   0.10611   0.11291   0.15825
 Alpha virt. eigenvalues --    0.16589   0.20015   0.21819   0.25660   0.27181
 Alpha virt. eigenvalues --    0.28123   0.28820   0.30417   0.31148   0.31805

 Mulliken charges:
               1
     1  C   -0.175114
     2  C   -0.218688
     3  C   -0.171975
     4  C    0.158462
     5  C   -0.171845
     6  C   -0.232486
     7  H    0.225809
     8  H    0.222622
     9  H    0.275030
    10  H    0.277478
    11  H    0.241310
    12  N    0.487924
    13  O   -0.459820
    14  O   -0.461113
    15  C   -0.169802
    16  C   -0.217533
    17  C   -0.172334
    18  C    0.158524
    19  C   -0.170097
    20  C   -0.217779
    21  H    0.228690
    22  H    0.225320
    23  H    0.267869
    24  H    0.277460
    25  H    0.226447
    26  N    0.489703
    27  O   -0.453725
    28  O   -0.470339
 Sum of Mulliken charges =  -0.00000

 Dipole moment (field-independent basis, Debye):
    X=              3.2989    Y=              1.9686    Z=              5.5139  Tot=              6.7202
 Quadrupole moment (field-independent basis, Debye-Ang):
   XX=           -118.0449   YY=           -106.8632   ZZ=           -103.0940
   XY=             27.8399   XZ=            -10.0067   YZ=             -0.8715

 Normal termination of Gaussian 16 at Fri May  7 01:45:58 2021.
