 Gaussian 16, Revision A.03,
 Gaussian 16:  EM64L-G16RevA.03 25-Dec-2016

 -------------
 #p 6-31g* mp2
 -------------

 ------------------------------------------------------
 Input file generated by CHIRIPA (05-May-2021 14:57:24)
 ------------------------------------------------------
 Symbolic Z-matrix:
 Charge =  0 Multiplicity = 1

                         Standard orientation:
 ---------------------------------------------------------------------
 Center     Atomic      Atomic             Coordinates (Angstroms)
 Number     Number       Type             X           Y           Z
 ---------------------------------------------------------------------
      1          6           0        4.467172   -1.788311    0.694276
      2          6           0        4.697104   -1.048804   -0.470533
      3          6           0        3.962972    0.112119   -0.731024
      4          6           0        3.002358    0.506334    0.199087
      5          6           0        2.750064   -0.209041    1.368649
      6          6           0        3.496098   -1.366813    1.608538
      7          1           0        5.042086   -2.688920    0.888629
      8          1           0        5.450616   -1.373765   -1.182338
      9          1           0        4.120501    0.703517   -1.624808
     10          1           0        1.992210    0.139976    2.059491
     11          1           0        3.315383   -1.939144    2.513980
     12          7           0        2.218865    1.733683   -0.065777
     13          8           0        1.378233    2.059812    0.769456
     14          8           0        2.460231    2.346310   -1.103596
     15          6           0       -1.142923   -1.194392   -1.515072
     16          6           0       -1.273887    0.180522   -1.293761
     17          6           0       -2.371552    0.685023   -0.590085
     18          6           0       -3.323734   -0.217977   -0.119735
     19          6           0       -3.221371   -1.593129   -0.324109
     20          6           0       -2.115369   -2.075277   -1.030395
     21          1           0       -0.286993   -1.577619   -2.062718
     22          1           0       -0.520216    0.866974   -1.669008
     23          1           0       -2.497752    1.744769   -0.404526
     24          1           0       -3.988933   -2.252710    0.062182
     25          1           0       -2.016261   -3.143543   -1.200777
     26          7           0       -4.490196    0.304284    0.626596
     27          8           0       -5.315338   -0.512122    1.030652
     28          8           0       -4.557240    1.520147    0.793383
 ---------------------------------------------------------------------

 SCF Done:  E(RHF) =  -868.338957845     A.U. after   16 cycles
 E2 =    -0.2599557055D+01 EUMP2 =    -0.87093851490023D+03

 The electronic state is 1-A.
 Alpha  occ. eigenvalues --  -20.61675 -20.61647 -20.60315 -20.60293 -15.86685
 Alpha  occ. eigenvalues --  -15.85356 -11.31914 -11.30674 -11.28483 -11.28428
 Alpha  occ. eigenvalues --  -11.28170 -11.27448 -11.27406 -11.27302 -11.27137
 Alpha  occ. eigenvalues --  -11.27028 -11.26346 -11.26138  -1.60746  -1.59384
 Alpha  occ. eigenvalues --   -1.40292  -1.38937  -1.20076  -1.18852  -1.09496
 Alpha  occ. eigenvalues --   -1.08274  -1.05445  -1.04224  -0.96349  -0.95108
 Alpha  occ. eigenvalues --   -0.86847  -0.85644  -0.83174  -0.81921  -0.78244
 Alpha  occ. eigenvalues --   -0.76966  -0.72894  -0.72088  -0.71576  -0.71162
 Alpha  occ. eigenvalues --   -0.70707  -0.69984  -0.65717  -0.65432  -0.64501
 Alpha  occ. eigenvalues --   -0.64219  -0.62781  -0.61551  -0.55943  -0.54788
 Alpha  occ. eigenvalues --   -0.53800  -0.53521  -0.52592  -0.52304  -0.49672
 Alpha  occ. eigenvalues --   -0.49654  -0.48339  -0.48325  -0.45721  -0.44351
 Alpha  occ. eigenvalues --   -0.38060  -0.37055  -0.36869  -0.35814
 Alpha virt. eigenvalues --    0.04241   0.05548   0.10603   0.11801   0.15767
 Alpha virt. eigenvalues --    0.17030   0.20813   0.21900   0.26750   0.27555
 Alpha virt. eigenvalues --    0.27931   0.28778   0.30398   0.31445   0.31937

 Mulliken charges:
               1
     1  C   -0.170737
     2  C   -0.219395
     3  C   -0.173630
     4  C    0.155156
     5  C   -0.169634
     6  C   -0.219226
     7  H    0.227775
     8  H    0.224978
     9  H    0.275593
    10  H    0.279146
    11  H    0.226466
    12  N    0.485434
    13  O   -0.456783
    14  O   -0.463274
    15  C   -0.173238
    16  C   -0.223459
    17  C   -0.167366
    18  C    0.156934
    19  C   -0.172755
    20  C   -0.219532
    21  H    0.221896
    22  H    0.234717
    23  H    0.282233
    24  H    0.273121
    25  H    0.219365
    26  N    0.487931
    27  O   -0.463553
    28  O   -0.458163
 Sum of Mulliken charges =  -0.00000

 Dipole moment (field-independent basis, Debye):
    X=              7.0689    Y=             -6.0143    Z=             -1.5707  Tot=              9.4132
 Quadrupole moment (field-independent basis, Debye-Ang):
   XX=           -114.9681   YY=           -104.7856   ZZ=           -100.9920
   XY=             -5.0714   XZ=              9.2419   YZ=             -1.0044

 Normal termination of Gaussian 16 at Fri May  7 01:52:32 2021.
