 Gaussian 16, Revision A.03,
 Gaussian 16:  EM64L-G16RevA.03 25-Dec-2016

 -------------
 #p 6-31g* mp2
 -------------

 ------------------------------------------------------
 Input file generated by CHIRIPA (05-May-2021 14:53:17)
 ------------------------------------------------------
 Symbolic Z-matrix:
 Charge =  0 Multiplicity = 1

                         Standard orientation:
 ---------------------------------------------------------------------
 Center     Atomic      Atomic             Coordinates (Angstroms)
 Number     Number       Type             X           Y           Z
 ---------------------------------------------------------------------
      1          6           0       -3.879317   -0.447277    0.032394
      2          6           0       -4.212871    0.855148   -0.695902
      3          6           0       -5.658001    0.900987   -1.193186
      4          1           0       -4.063540   -1.294656   -0.642111
      5          1           0       -4.564657   -0.569733    0.882517
      6          1           0       -3.526208    0.975798   -1.543578
      7          1           0       -4.027650    1.699536   -0.019649
      8          1           0       -6.356771    0.805732   -0.355781
      9          1           0       -5.852480    0.077882   -1.888369
     10          1           0       -5.874845    1.840629   -1.710788
     11          6           0       -2.438162   -0.508098    0.535485
     12          6           0       -2.104609   -1.810523    1.263781
     13          6           0       -0.659479   -1.856362    1.761065
     14          1           0       -1.752822   -0.385643   -0.314638
     15          1           0       -2.253940    0.339281    1.209990
     16          1           0       -2.289829   -2.654911    0.587528
     17          1           0       -2.791272   -1.931173    2.111457
     18          1           0       -0.465000   -1.033257    2.456248
     19          1           0        0.039292   -1.761107    0.923660
     20          1           0       -0.442635   -2.796004    2.278667
     21          6           0        1.527429    2.529373    0.690629
     22          6           0        0.683557    1.608952    0.060370
     23          6           0        1.193637    0.411051   -0.448946
     24          6           0        2.558674    0.164742   -0.310041
     25          6           0        3.425046    1.061864    0.312744
     26          6           0        2.893072    2.253378    0.814586
     27          1           0        1.122682    3.457451    1.083375
     28          1           0       -0.377428    1.820642   -0.037321
     29          1           0        0.562930   -0.319081   -0.941422
     30          1           0        4.478388    0.822900    0.395116
     31          1           0        3.550801    2.966347    1.303577
     32          7           0        3.110261   -1.100041   -0.845274
     33          8           0        4.316492   -1.293450   -0.710225
     34          8           0        2.325922   -1.874019   -1.389705
 ---------------------------------------------------------------------

 SCF Done:  E(RHF) =  -669.533668988     A.U. after   15 cycles
 E2 =    -0.2094693026D+01 EUMP2 =    -0.67162836201407D+03

 The electronic state is 1-A.
 Alpha  occ. eigenvalues --  -20.60792 -20.60783 -15.85823 -11.31118 -11.27693
 Alpha  occ. eigenvalues --  -11.27666 -11.27420 -11.26694 -11.26612 -11.22275
 Alpha  occ. eigenvalues --  -11.22171 -11.21953 -11.21933 -11.21568 -11.21122
 Alpha  occ. eigenvalues --   -1.59852  -1.39410  -1.19298  -1.09029  -1.08699
 Alpha  occ. eigenvalues --   -1.04708  -1.03973  -0.96426  -0.95551  -0.87448
 Alpha  occ. eigenvalues --   -0.86095  -0.82401  -0.80071  -0.78965  -0.77381
 Alpha  occ. eigenvalues --   -0.72047  -0.71168  -0.70445  -0.65694  -0.64945
 Alpha  occ. eigenvalues --   -0.64688  -0.62145  -0.61292  -0.59788  -0.58067
 Alpha  occ. eigenvalues --   -0.55722  -0.55202  -0.53198  -0.53057  -0.52902
 Alpha  occ. eigenvalues --   -0.52597  -0.50381  -0.48806  -0.48798  -0.48347
 Alpha  occ. eigenvalues --   -0.47083  -0.46360  -0.46319  -0.44799  -0.44278
 Alpha  occ. eigenvalues --   -0.37269  -0.36207
 Alpha virt. eigenvalues --    0.05072   0.11256   0.16527   0.20118   0.22859
 Alpha virt. eigenvalues --    0.23673   0.25118   0.25325   0.27454   0.28411
 Alpha virt. eigenvalues --    0.29624   0.30956   0.31227   0.31579   0.31841

 Mulliken charges:
               1
     1  C   -0.297397
     2  C   -0.301400
     3  C   -0.475762
     4  H    0.154077
     5  H    0.152365
     6  H    0.149786
     7  H    0.148092
     8  H    0.156781
     9  H    0.158055
    10  H    0.161070
    11  C   -0.303104
    12  C   -0.300408
    13  C   -0.480473
    14  H    0.141322
    15  H    0.146700
    16  H    0.157030
    17  H    0.153090
    18  H    0.152896
    19  H    0.161372
    20  H    0.164559
    21  C   -0.171913
    22  C   -0.219366
    23  C   -0.175163
    24  C    0.161282
    25  C   -0.171038
    26  C   -0.218582
    27  H    0.225205
    28  H    0.228395
    29  H    0.277194
    30  H    0.275205
    31  H    0.222999
    32  N    0.489282
    33  O   -0.459620
    34  O   -0.462530
 Sum of Mulliken charges =  -0.00000

 Dipole moment (field-independent basis, Debye):
    X=             -2.0525    Y=              4.3401    Z=              1.9163  Tot=              5.1692
 Quadrupole moment (field-independent basis, Debye-Ang):
   XX=           -100.9647   YY=            -93.2130   ZZ=            -95.6017
   XY=             12.8396   XZ=              6.5099   YZ=             -0.1688

 Normal termination of Gaussian 16 at Wed May  5 22:01:47 2021.
