 Gaussian 16, Revision A.03,
 Gaussian 16:  EM64L-G16RevA.03 25-Dec-2016

 -------------
 #p 6-31g* mp2
 -------------

 ------------------------------------------------------
 Input file generated by CHIRIPA (05-May-2021 14:51:10)
 ------------------------------------------------------
 Symbolic Z-matrix:
 Charge =  0 Multiplicity = 1

                         Standard orientation:
 ---------------------------------------------------------------------
 Center     Atomic      Atomic             Coordinates (Angstroms)
 Number     Number       Type             X           Y           Z
 ---------------------------------------------------------------------
      1          6           0       -3.818690   -0.575247   -0.237645
      2          6           0       -2.649363   -1.517283    0.050847
      3          6           0       -2.958552   -2.970794   -0.309017
      4          1           0       -4.700793   -0.913620    0.323018
      5          1           0       -4.080526   -0.642542   -1.302684
      6          1           0       -2.388911   -1.447201    1.114741
      7          1           0       -1.769889   -1.176517   -0.510419
      8          1           0       -3.197441   -3.061652   -1.373572
      9          1           0       -3.819981   -3.333874    0.260820
     10          1           0       -2.109118   -3.626848   -0.094739
     11          6           0       -3.524862    0.881359    0.116884
     12          6           0       -4.694188    1.823396   -0.171608
     13          6           0       -4.384999    3.276906    0.188257
     14          1           0       -3.263026    0.948654    1.181923
     15          1           0       -2.642759    1.219733   -0.443779
     16          1           0       -5.573663    1.482629    0.389658
     17          1           0       -4.954641    1.753313   -1.235501
     18          1           0       -3.523571    3.639986   -0.381581
     19          1           0       -4.146110    3.367764    1.252812
     20          1           0       -5.234434    3.932960   -0.026021
     21          6           0        4.320663    0.074194   -0.272388
     22          6           0        4.843322    1.406857    0.265033
     23          6           0        6.142063    1.848176   -0.410472
     24          1           0        5.089621   -0.697669   -0.131403
     25          1           0        4.160234    0.161338   -1.355930
     26          1           0        5.001404    1.317646    1.347468
     27          1           0        4.072957    2.175595    0.122924
     28          1           0        5.994912    1.965001   -1.489035
     29          1           0        6.928636    1.102177   -0.257534
     30          1           0        6.497879    2.803084   -0.011216
     31          6           0        3.022888   -0.380306    0.393149
     32          6           0        2.500229   -1.712969   -0.144272
     33          6           0        1.201489   -2.154289    0.531232
     34          1           0        3.183317   -0.467451    1.476690
     35          1           0        2.253930    0.391556    0.252162
     36          1           0        3.270595   -2.481707   -0.002164
     37          1           0        2.342146   -1.623758   -1.226708
     38          1           0        0.414916   -1.408289    0.378294
     39          1           0        1.348640   -2.271113    1.609795
     40          1           0        0.845672   -3.109197    0.131977
 ---------------------------------------------------------------------

 SCF Done:  E(RHF) =  -470.732913368     A.U. after   11 cycles
 E2 =    -0.1582814599D+01 EUMP2 =    -0.47231572796686D+03

 The electronic state is 1-A.
 Alpha  occ. eigenvalues --  -11.21605 -11.21596 -11.21572 -11.21550 -11.21400
 Alpha  occ. eigenvalues --  -11.21394 -11.21335 -11.21334 -11.21078 -11.21068
 Alpha  occ. eigenvalues --  -11.21029 -11.20976  -1.08431  -1.08405  -1.03550
 Alpha  occ. eigenvalues --   -1.03475  -0.96003  -0.95919  -0.86990  -0.86968
 Alpha  occ. eigenvalues --   -0.79683  -0.79486  -0.78279  -0.78183  -0.65089
 Alpha  occ. eigenvalues --   -0.65015  -0.61012  -0.60829  -0.59420  -0.59251
 Alpha  occ. eigenvalues --   -0.57602  -0.57556  -0.55302  -0.55189  -0.52747
 Alpha  occ. eigenvalues --   -0.52579  -0.52427  -0.52321  -0.49999  -0.49848
 Alpha  occ. eigenvalues --   -0.48076  -0.47713  -0.46737  -0.46497  -0.45867
 Alpha  occ. eigenvalues --   -0.45727  -0.45704  -0.45527  -0.43794  -0.43734
 Alpha virt. eigenvalues --    0.21927   0.23075   0.23460   0.24844   0.26130
 Alpha virt. eigenvalues --    0.26666   0.26909   0.27098   0.27835   0.29050
 Alpha virt. eigenvalues --    0.30013   0.30953   0.31453   0.31817   0.32546

 Mulliken charges:
               1
     1  C   -0.297765
     2  C   -0.301947
     3  C   -0.477216
     4  H    0.149546
     5  H    0.149226
     6  H    0.152849
     7  H    0.154528
     8  H    0.154638
     9  H    0.154973
    10  H    0.162258
    11  C   -0.298280
    12  C   -0.299570
    13  C   -0.475694
    14  H    0.149632
    15  H    0.148724
    16  H    0.152073
    17  H    0.151908
    18  H    0.154993
    19  H    0.155239
    20  H    0.160288
    21  C   -0.298228
    22  C   -0.299633
    23  C   -0.475692
    24  H    0.149672
    25  H    0.149360
    26  H    0.151946
    27  H    0.151903
    28  H    0.155122
    29  H    0.155180
    30  H    0.160244
    31  C   -0.298337
    32  C   -0.299759
    33  C   -0.481835
    34  H    0.149554
    35  H    0.149513
    36  H    0.151659
    37  H    0.151344
    38  H    0.163101
    39  H    0.154522
    40  H    0.159964
 Sum of Mulliken charges =  -0.00000

 Dipole moment (field-independent basis, Debye):
    X=             -0.0161    Y=             -0.0017    Z=              0.0109  Tot=              0.0195
 Quadrupole moment (field-independent basis, Debye-Ang):
   XX=            -85.3622   YY=            -85.9636   ZZ=            -83.5752
   XY=             -0.6709   XZ=              0.3756   YZ=             -0.5751

 Normal termination of Gaussian 16 at Thu May  6 07:00:00 2021.
