 Gaussian 16, Revision A.03,
 Gaussian 16:  EM64L-G16RevA.03 25-Dec-2016

 -------------
 #p 6-31g* mp2
 -------------

 ------------------------------------------------------
 Input file generated by CHIRIPA (05-May-2021 14:51:09)
 ------------------------------------------------------
 Symbolic Z-matrix:
 Charge =  0 Multiplicity = 1

                         Standard orientation:
 ---------------------------------------------------------------------
 Center     Atomic      Atomic             Coordinates (Angstroms)
 Number     Number       Type             X           Y           Z
 ---------------------------------------------------------------------
      1          6           0        2.164120   -1.393920    0.434046
      2          6           0        0.689440   -1.148165    0.754841
      3          6           0        0.015255   -2.358921    1.400859
      4          1           0        2.247713   -2.261877   -0.234240
      5          1           0        2.694090   -1.659588    1.359220
      6          1           0        0.162685   -0.881689   -0.170434
      7          1           0        0.609335   -0.280574    1.422288
      8          1           0        0.514809   -2.623289    2.338492
      9          1           0        0.065622   -3.227819    0.736720
     10          1           0       -1.038328   -2.161373    1.621760
     11          6           0        2.851878   -0.192637   -0.212203
     12          6           0        4.326557   -0.438391   -0.532999
     13          6           0        5.000743    0.772364   -1.179016
     14          1           0        2.321908    0.073031   -1.137377
     15          1           0        2.768285    0.675321    0.456083
     16          1           0        4.406663   -1.305982   -1.200445
     17          1           0        4.853312   -0.704868    0.392277
     18          1           0        4.950376    1.641262   -0.514877
     19          1           0        4.501188    1.036732   -2.116650
     20          1           0        6.054326    0.574816   -1.399917
     21          6           0       -2.850790    0.414562   -0.678813
     22          6           0       -3.909877   -0.576213   -0.194372
     23          6           0       -4.586761   -1.326144   -1.342077
     24          1           0       -3.317945    1.134840   -1.364313
     25          1           0       -2.092738   -0.125954   -1.262416
     26          1           0       -4.664968   -0.034207    0.389309
     27          1           0       -3.440186   -1.294100    0.490204
     28          1           0       -3.849271   -1.891833   -1.920614
     29          1           0       -5.081011   -0.624780   -2.022082
     30          1           0       -5.340226   -2.029072   -0.973234
     31          6           0       -2.165208    1.171994    0.456971
     32          6           0       -1.106122    2.162770   -0.027471
     33          6           0       -0.429236    2.912701    1.120234
     34          1           0       -2.923261    1.712512    1.040573
     35          1           0       -1.698052    0.451716    1.142471
     36          1           0       -1.575812    2.880657   -0.712047
     37          1           0       -0.351030    1.620763   -0.611151
     38          1           0        0.065013    2.211337    1.800239
     39          1           0       -1.166727    3.478390    1.698771
     40          1           0        0.324228    3.615629    0.751391
 ---------------------------------------------------------------------

 SCF Done:  E(RHF) =  -470.731664047     A.U. after   11 cycles
 E2 =    -0.1586195905D+01 EUMP2 =    -0.47231785995193D+03

 The electronic state is 1-A.
 Alpha  occ. eigenvalues --  -11.21671 -11.21645 -11.21589 -11.21494 -11.21468
 Alpha  occ. eigenvalues --  -11.21408 -11.21350 -11.21227 -11.21181 -11.21098
 Alpha  occ. eigenvalues --  -11.21062 -11.21037  -1.08558  -1.08330  -1.03632
 Alpha  occ. eigenvalues --   -1.03465  -0.96072  -0.95923  -0.87075  -0.86952
 Alpha  occ. eigenvalues --   -0.79715  -0.79538  -0.78353  -0.78192  -0.65183
 Alpha  occ. eigenvalues --   -0.65040  -0.61098  -0.60835  -0.59378  -0.59303
 Alpha  occ. eigenvalues --   -0.57693  -0.57544  -0.55346  -0.55201  -0.52758
 Alpha  occ. eigenvalues --   -0.52639  -0.52483  -0.52356  -0.49997  -0.49903
 Alpha  occ. eigenvalues --   -0.48096  -0.47784  -0.46858  -0.46560  -0.46075
 Alpha  occ. eigenvalues --   -0.45953  -0.45412  -0.45288  -0.43848  -0.43730
 Alpha virt. eigenvalues --    0.19977   0.22109   0.23498   0.23861   0.24892
 Alpha virt. eigenvalues --    0.26130   0.26441   0.28340   0.29020   0.29377
 Alpha virt. eigenvalues --    0.30126   0.31417   0.31671   0.31868   0.32361

 Mulliken charges:
               1
     1  C   -0.297370
     2  C   -0.309483
     3  C   -0.480546
     4  H    0.149584
     5  H    0.149638
     6  H    0.157640
     7  H    0.156203
     8  H    0.155944
     9  H    0.155846
    10  H    0.163340
    11  C   -0.300196
    12  C   -0.299701
    13  C   -0.475784
    14  H    0.149622
    15  H    0.151126
    16  H    0.152039
    17  H    0.152164
    18  H    0.155443
    19  H    0.155253
    20  H    0.160404
    21  C   -0.300086
    22  C   -0.302497
    23  C   -0.475514
    24  H    0.149764
    25  H    0.149886
    26  H    0.152099
    27  H    0.153960
    28  H    0.154983
    29  H    0.155193
    30  H    0.160223
    31  C   -0.304658
    32  C   -0.302214
    33  C   -0.477941
    34  H    0.149241
    35  H    0.158309
    36  H    0.151609
    37  H    0.155484
    38  H    0.155832
    39  H    0.155015
    40  H    0.160148
 Sum of Mulliken charges =  -0.00000

 Dipole moment (field-independent basis, Debye):
    X=              0.0421    Y=             -0.0241    Z=              0.0081  Tot=              0.0492
 Quadrupole moment (field-independent basis, Debye-Ang):
   XX=            -84.9960   YY=            -85.2251   ZZ=            -84.6595
   XY=             -1.2394   XZ=              0.1599   YZ=              0.1882

 Normal termination of Gaussian 16 at Wed May  5 18:10:58 2021.
