 Gaussian 16, Revision A.03,
 Gaussian 16:  EM64L-G16RevA.03 25-Dec-2016

 -------------
 #p 6-31g* mp2
 -------------

 ------------------------------------------------------
 Input file generated by CHIRIPA (05-May-2021 14:51:12)
 ------------------------------------------------------
 Symbolic Z-matrix:
 Charge =  0 Multiplicity = 1

                         Standard orientation:
 ---------------------------------------------------------------------
 Center     Atomic      Atomic             Coordinates (Angstroms)
 Number     Number       Type             X           Y           Z
 ---------------------------------------------------------------------
      1          6           0       -3.006622    0.995409   -0.103183
      2          6           0       -2.105938    1.996303    0.621362
      3          6           0       -2.819881    3.309823    0.941897
      4          1           0       -3.375816    1.450031   -1.032677
      5          1           0       -3.890139    0.791610    0.517508
      6          1           0       -1.223704    2.197097    0.000104
      7          1           0       -1.738691    1.539176    1.549145
      8          1           0       -3.689885    3.129292    1.581509
      9          1           0       -3.171972    3.790952    0.023666
     10          1           0       -2.157696    4.010698    1.459725
     11          6           0       -2.307104   -0.322658   -0.430445
     12          6           0       -3.207788   -1.323551   -1.154990
     13          6           0       -2.493845   -2.637072   -1.475525
     14          1           0       -1.423586   -0.118859   -1.051136
     15          1           0       -1.937909   -0.777280    0.499049
     16          1           0       -3.575035   -0.866424   -2.082772
     17          1           0       -4.090022   -1.524346   -0.533731
     18          1           0       -2.141754   -3.118201   -0.557294
     19          1           0       -1.623841   -2.456541   -2.115136
     20          1           0       -3.156030   -3.337947   -1.993353
     21          6           0        2.805928    0.375913    0.034743
     22          6           0        4.040032    0.475552   -0.862501
     23          6           0        4.325285    1.906763   -1.318635
     24          1           0        1.934669    0.770544   -0.505736
     25          1           0        2.946986    1.020522    0.913366
     26          1           0        3.897273   -0.170121   -1.738483
     27          1           0        4.908417    0.080460   -0.319892
     28          1           0        4.493823    2.559620   -0.456096
     29          1           0        3.476934    2.307615   -1.882746
     30          1           0        5.211619    1.954942   -1.958907
     31          6           0        2.507797   -1.048664    0.498885
     32          6           0        1.273694   -1.148303    1.396129
     33          6           0        0.988442   -2.579514    1.852262
     34          1           0        2.366740   -1.693273   -0.379738
     35          1           0        3.379057   -1.443296    1.039364
     36          1           0        0.405309   -0.753212    0.853520
     37          1           0        1.416453   -0.502630    2.272111
     38          1           0        1.836791   -2.980367    2.416374
     39          1           0        0.819903   -3.232371    0.989724
     40          1           0        0.102107   -2.627694    2.492535
 ---------------------------------------------------------------------

 SCF Done:  E(RHF) =  -470.733047755     A.U. after   11 cycles
 E2 =    -0.1583889714D+01 EUMP2 =    -0.47231693746877D+03

 The electronic state is 1-A.
 Alpha  occ. eigenvalues --  -11.21656 -11.21624 -11.21581 -11.21460 -11.21437
 Alpha  occ. eigenvalues --  -11.21398 -11.21358 -11.21289 -11.21120 -11.21088
 Alpha  occ. eigenvalues --  -11.21063 -11.21032  -1.08497  -1.08366  -1.03571
 Alpha  occ. eigenvalues --   -1.03478  -0.96025  -0.95940  -0.87043  -0.86951
 Alpha  occ. eigenvalues --   -0.79645  -0.79552  -0.78430  -0.78066  -0.65127
 Alpha  occ. eigenvalues --   -0.65002  -0.60984  -0.60871  -0.59388  -0.59312
 Alpha  occ. eigenvalues --   -0.57676  -0.57515  -0.55311  -0.55231  -0.52717
 Alpha  occ. eigenvalues --   -0.52632  -0.52463  -0.52364  -0.49988  -0.49854
 Alpha  occ. eigenvalues --   -0.48007  -0.47853  -0.46739  -0.46658  -0.46128
 Alpha  occ. eigenvalues --   -0.45757  -0.45686  -0.45137  -0.43827  -0.43732
 Alpha virt. eigenvalues --    0.20859   0.22844   0.23411   0.24543   0.24953
 Alpha virt. eigenvalues --    0.26211   0.26816   0.27825   0.28872   0.30012
 Alpha virt. eigenvalues --    0.30846   0.31306   0.31582   0.31784   0.32200

 Mulliken charges:
               1
     1  C   -0.297810
     2  C   -0.301099
     3  C   -0.475719
     4  H    0.149643
     5  H    0.149637
     6  H    0.152219
     7  H    0.153351
     8  H    0.155197
     9  H    0.155154
    10  H    0.160591
    11  C   -0.303888
    12  C   -0.298832
    13  C   -0.477132
    14  H    0.149289
    15  H    0.155222
    16  H    0.152025
    17  H    0.152182
    18  H    0.156728
    19  H    0.154564
    20  H    0.160688
    21  C   -0.298771
    22  C   -0.299620
    23  C   -0.475594
    24  H    0.149433
    25  H    0.149626
    26  H    0.151718
    27  H    0.152040
    28  H    0.155223
    29  H    0.154767
    30  H    0.160189
    31  C   -0.297602
    32  C   -0.309674
    33  C   -0.476451
    34  H    0.149110
    35  H    0.149143
    36  H    0.164164
    37  H    0.150640
    38  H    0.155109
    39  H    0.155966
    40  H    0.158575
 Sum of Mulliken charges =  -0.00000

 Dipole moment (field-independent basis, Debye):
    X=             -0.0570    Y=              0.0119    Z=             -0.0054  Tot=              0.0585
 Quadrupole moment (field-independent basis, Debye-Ang):
   XX=            -84.6051   YY=            -86.6188   ZZ=            -83.6118
   XY=              0.2858   XZ=              0.4363   YZ=             -0.0612

 Normal termination of Gaussian 16 at Thu May  6 02:18:06 2021.
