 Gaussian 16, Revision A.03,
 Gaussian 16:  EM64L-G16RevA.03 25-Dec-2016

 -------------
 #p 6-31g* mp2
 -------------

 ------------------------------------------------------
 Input file generated by CHIRIPA (05-May-2021 14:57:23)
 ------------------------------------------------------
 Symbolic Z-matrix:
 Charge =  0 Multiplicity = 1

                         Standard orientation:
 ---------------------------------------------------------------------
 Center     Atomic      Atomic             Coordinates (Angstroms)
 Number     Number       Type             X           Y           Z
 ---------------------------------------------------------------------
      1          6           0        1.670462    2.220096   -0.082638
      2          6           0        1.174809    0.922888   -0.250268
      3          6           0        2.047549   -0.166984   -0.321362
      4          6           0        3.416220    0.077774   -0.220749
      5          6           0        3.940719    1.358464   -0.053351
      6          6           0        3.049404    2.433368    0.015113
      7          1           0        0.985282    3.060921   -0.028431
      8          1           0        0.104386    0.754273   -0.326480
      9          1           0        1.690891   -1.181607   -0.450797
     10          1           0        5.012840    1.495099    0.019481
     11          1           0        3.437171    3.439710    0.145332
     12          7           0        4.349982   -1.068102   -0.294622
     13          8           0        5.551503   -0.825919   -0.203331
     14          8           0        3.862665   -2.186724   -0.442415
     15          6           0       -4.778095    0.263521   -1.737525
     16          6           0       -4.007494   -0.903775   -1.748184
     17          6           0       -3.164158   -1.207632   -0.675335
     18          6           0       -3.115785   -0.317881    0.396716
     19          6           0       -3.871233    0.853010    0.436740
     20          6           0       -4.707630    1.136649   -0.647020
     21          1           0       -5.430524    0.491710   -2.575179
     22          1           0       -4.060199   -1.583693   -2.593749
     23          1           0       -2.556711   -2.104356   -0.657639
     24          1           0       -3.797415    1.511458    1.293721
     25          1           0       -5.304950    2.043916   -0.636024
     26          7           0       -2.226657   -0.628857    1.538269
     27          8           0       -2.202004    0.171332    2.470860
     28          8           0       -1.571246   -1.666903    1.478812
 ---------------------------------------------------------------------

 SCF Done:  E(RHF) =  -868.337915137     A.U. after   16 cycles
 E2 =    -0.2599791012D+01 EUMP2 =    -0.87093770614873D+03

 The electronic state is 1-A.
 Alpha  occ. eigenvalues --  -20.61585 -20.61577 -20.60276 -20.60264 -15.86632
 Alpha  occ. eigenvalues --  -15.85326 -11.32015 -11.30647 -11.28557 -11.28541
 Alpha  occ. eigenvalues --  -11.28239 -11.27533 -11.27506 -11.27257 -11.27187
 Alpha  occ. eigenvalues --  -11.27013 -11.26275 -11.26252  -1.60670  -1.59348
 Alpha  occ. eigenvalues --   -1.40216  -1.38903  -1.20166  -1.18833  -1.09550
 Alpha  occ. eigenvalues --   -1.08246  -1.05541  -1.04233  -0.96380  -0.95081
 Alpha  occ. eigenvalues --   -0.86937  -0.85646  -0.83194  -0.81918  -0.78259
 Alpha  occ. eigenvalues --   -0.76963  -0.72824  -0.72034  -0.71549  -0.71224
 Alpha  occ. eigenvalues --   -0.70668  -0.69959  -0.65792  -0.65512  -0.64496
 Alpha  occ. eigenvalues --   -0.64263  -0.62874  -0.61585  -0.56007  -0.54772
 Alpha  occ. eigenvalues --   -0.53899  -0.53609  -0.52557  -0.52342  -0.49594
 Alpha  occ. eigenvalues --   -0.49587  -0.48308  -0.48299  -0.45608  -0.44317
 Alpha  occ. eigenvalues --   -0.38140  -0.37152  -0.36823  -0.35818
 Alpha virt. eigenvalues --    0.04234   0.05583   0.10490   0.11824   0.15732
 Alpha virt. eigenvalues --    0.17066   0.20736   0.21663   0.26637   0.27008
 Alpha virt. eigenvalues --    0.27694   0.28787   0.30439   0.30991   0.31831

 Mulliken charges:
               1
     1  C   -0.169637
     2  C   -0.214642
     3  C   -0.167083
     4  C    0.157811
     5  C   -0.171025
     6  C   -0.218812
     7  H    0.223060
     8  H    0.217360
     9  H    0.278948
    10  H    0.274146
    11  H    0.221331
    12  N    0.488239
    13  O   -0.462456
    14  O   -0.459738
    15  C   -0.170425
    16  C   -0.217959
    17  C   -0.174854
    18  C    0.151645
    19  C   -0.174071
    20  C   -0.218577
    21  H    0.228643
    22  H    0.227246
    23  H    0.278039
    24  H    0.276383
    25  H    0.225563
    26  N    0.487290
    27  O   -0.457837
    28  O   -0.458588
 Sum of Mulliken charges =  -0.00000

 Dipole moment (field-independent basis, Debye):
    X=             -6.6769    Y=              5.0382    Z=             -3.7627  Tot=              9.1718
 Quadrupole moment (field-independent basis, Debye-Ang):
   XX=           -104.8073   YY=            -99.9760   ZZ=           -108.2196
   XY=             12.3955   XZ=             13.2613   YZ=              3.5482

 Normal termination of Gaussian 16 at Wed May  5 16:20:30 2021.
