 Gaussian 16, Revision A.03,
 Gaussian 16:  EM64L-G16RevA.03 25-Dec-2016

 -------------
 #p 6-31g* mp2
 -------------

 ------------------------------------------------------
 Input file generated by CHIRIPA (05-May-2021 14:51:07)
 ------------------------------------------------------
 Symbolic Z-matrix:
 Charge =  0 Multiplicity = 1

                         Standard orientation:
 ---------------------------------------------------------------------
 Center     Atomic      Atomic             Coordinates (Angstroms)
 Number     Number       Type             X           Y           Z
 ---------------------------------------------------------------------
      1          6           0       -3.752688    0.034176    0.275922
      2          6           0       -4.873017    0.135316   -0.759751
      3          6           0       -5.906142    1.206917   -0.410295
      4          1           0       -4.190180   -0.183297    1.259920
      5          1           0       -3.254956    1.009841    0.363873
      6          1           0       -5.367590   -0.840619   -0.846728
      7          1           0       -4.432792    0.352384   -1.741432
      8          1           0       -5.432251    2.191560   -0.343152
      9          1           0       -6.372361    0.991778    0.556636
     10          1           0       -6.697910    1.262151   -1.163894
     11          6           0       -2.712092   -1.032768   -0.059517
     12          6           0       -1.591763   -1.133908    0.976156
     13          6           0       -0.558639   -2.205509    0.626700
     14          1           0       -3.209824   -2.008433   -0.147468
     15          1           0       -2.274600   -0.815294   -1.043514
     16          1           0       -2.031989   -1.350976    1.957838
     17          1           0       -1.097190   -0.157973    1.063133
     18          1           0       -0.092419   -1.990370   -0.340231
     19          1           0       -1.032529   -3.190151    0.559557
     20          1           0        0.233129   -2.260743    1.380300
     21          6           0        3.638528   -0.048230   -0.452730
     22          6           0        3.310249   -1.454288    0.050478
     23          6           0        4.130836   -2.538807   -0.648271
     24          1           0        3.461848   -0.002852   -1.536092
     25          1           0        4.709371    0.146805   -0.302232
     26          1           0        2.240068   -1.646094   -0.099657
     27          1           0        3.487548   -1.496270    1.132799
     28          1           0        5.201409   -2.375170   -0.487970
     29          1           0        3.946841   -2.525846   -1.727428
     30          1           0        3.880180   -3.536030   -0.273333
     31          6           0        2.826252    1.046822    0.236325
     32          6           0        3.154531    2.452880   -0.266884
     33          6           0        2.333945    3.537399    0.431866
     34          1           0        1.755409    0.851787    0.085827
     35          1           0        3.002932    1.001444    1.319685
     36          1           0        2.977232    2.494862   -1.349204
     37          1           0        4.224712    2.644686   -0.116748
     38          1           0        2.517939    3.524438    1.511023
     39          1           0        1.263372    3.373762    0.271564
     40          1           0        2.584600    4.534622    0.056927
 ---------------------------------------------------------------------

 SCF Done:  E(RHF) =  -470.732694007     A.U. after   11 cycles
 E2 =    -0.1583302767D+01 EUMP2 =    -0.47231599677321D+03

 The electronic state is 1-A.
 Alpha  occ. eigenvalues --  -11.21640 -11.21625 -11.21606 -11.21440 -11.21440
 Alpha  occ. eigenvalues --  -11.21385 -11.21380 -11.21310 -11.21097 -11.21088
 Alpha  occ. eigenvalues --  -11.21088 -11.20996  -1.08469  -1.08392  -1.03577
 Alpha  occ. eigenvalues --   -1.03478  -0.96022  -0.95944  -0.87063  -0.86942
 Alpha  occ. eigenvalues --   -0.79711  -0.79482  -0.78281  -0.78202  -0.65172
 Alpha  occ. eigenvalues --   -0.64972  -0.61068  -0.60810  -0.59447  -0.59251
 Alpha  occ. eigenvalues --   -0.57622  -0.57555  -0.55339  -0.55226  -0.52761
 Alpha  occ. eigenvalues --   -0.52613  -0.52439  -0.52360  -0.50093  -0.49810
 Alpha  occ. eigenvalues --   -0.47952  -0.47863  -0.46825  -0.46409  -0.45878
 Alpha  occ. eigenvalues --   -0.45737  -0.45730  -0.45533  -0.43802  -0.43720
 Alpha virt. eigenvalues --    0.20881   0.23224   0.23939   0.24191   0.26055
 Alpha virt. eigenvalues --    0.26841   0.27228   0.27368   0.27928   0.29393
 Alpha virt. eigenvalues --    0.30669   0.31013   0.31599   0.31976   0.32351

 Mulliken charges:
               1
     1  C   -0.298294
     2  C   -0.299668
     3  C   -0.475733
     4  H    0.149861
     5  H    0.149462
     6  H    0.151998
     7  H    0.151849
     8  H    0.155250
     9  H    0.155262
    10  H    0.160324
    11  C   -0.298623
    12  C   -0.301424
    13  C   -0.479471
    14  H    0.149757
    15  H    0.149409
    16  H    0.152419
    17  H    0.153224
    18  H    0.155951
    19  H    0.155517
    20  H    0.164149
    21  C   -0.297621
    22  C   -0.309492
    23  C   -0.475105
    24  H    0.148797
    25  H    0.149214
    26  H    0.164669
    27  H    0.150283
    28  H    0.154614
    29  H    0.154422
    30  H    0.160142
    31  C   -0.300002
    32  C   -0.299572
    33  C   -0.475542
    34  H    0.150266
    35  H    0.149654
    36  H    0.151750
    37  H    0.152200
    38  H    0.155321
    39  H    0.154467
    40  H    0.160315
 Sum of Mulliken charges =  -0.00000

 Dipole moment (field-independent basis, Debye):
    X=             -0.0464    Y=             -0.0225    Z=              0.0198  Tot=              0.0552
 Quadrupole moment (field-independent basis, Debye-Ang):
   XX=            -85.1152   YY=            -85.6358   ZZ=            -84.1742
   XY=              1.5693   XZ=              0.5593   YZ=             -0.7953

 Normal termination of Gaussian 16 at Thu May  6 08:25:41 2021.
