 Gaussian 16, Revision A.03,
 Gaussian 16:  EM64L-G16RevA.03 25-Dec-2016

 -------------
 #p 6-31g* mp2
 -------------

 ------------------------------------------------------
 Input file generated by CHIRIPA (05-May-2021 14:53:15)
 ------------------------------------------------------
 Symbolic Z-matrix:
 Charge =  0 Multiplicity = 1

                         Standard orientation:
 ---------------------------------------------------------------------
 Center     Atomic      Atomic             Coordinates (Angstroms)
 Number     Number       Type             X           Y           Z
 ---------------------------------------------------------------------
      1          6           0       -4.452675    0.335180   -0.134527
      2          6           0       -4.659248   -1.161341   -0.370613
      3          6           0       -6.088641   -1.501275   -0.793785
      4          1           0       -5.156275    0.678904    0.636022
      5          1           0       -4.703902    0.882401   -1.053673
      6          1           0       -4.406381   -1.705691    0.548277
      7          1           0       -3.954944   -1.501581   -1.140553
      8          1           0       -6.348597   -0.984107   -1.723065
      9          1           0       -6.802599   -1.189376   -0.024640
     10          1           0       -6.214062   -2.576179   -0.957222
     11          6           0       -3.028656    0.690764    0.289100
     12          6           0       -2.822083    2.187285    0.525186
     13          6           0       -1.392690    2.527220    0.948358
     14          1           0       -2.777429    0.143544    1.208246
     15          1           0       -2.325056    0.347041   -0.481449
     16          1           0       -3.526388    2.527526    1.295126
     17          1           0       -3.074950    2.731635   -0.393703
     18          1           0       -0.678732    2.215320    0.179213
     19          1           0       -1.132735    2.010051    1.877638
     20          1           0       -1.267269    3.602124    1.111795
     21          6           0        4.271282    1.629485   -0.711943
     22          6           0        2.874430    1.696731   -0.683572
     23          6           0        2.116899    0.578051   -0.324060
     24          6           0        2.791990   -0.597036    0.002610
     25          6           0        4.182402   -0.695475   -0.016246
     26          6           0        4.919666    0.435701   -0.378778
     27          1           0        4.851878    2.503356   -0.992394
     28          1           0        2.368196    2.622516   -0.941826
     29          1           0        1.034350    0.602369   -0.293791
     30          1           0        4.658690   -1.632288    0.246331
     31          1           0        6.004358    0.380569   -0.399941
     32          7           0        2.000753   -1.787947    0.384808
     33          8           0        2.619443   -2.811426    0.668269
     34          8           0        0.776873   -1.675354    0.393677
 ---------------------------------------------------------------------

 SCF Done:  E(RHF) =  -669.535471498     A.U. after   15 cycles
 E2 =    -0.2091385466D+01 EUMP2 =    -0.67162685696372D+03

 The electronic state is 1-A.
 Alpha  occ. eigenvalues --  -20.60743 -20.60737 -15.85792 -11.31139 -11.27719
 Alpha  occ. eigenvalues --  -11.27683 -11.27464 -11.26735 -11.26716 -11.21651
 Alpha  occ. eigenvalues --  -11.21463 -11.21147 -11.21102 -11.21047 -11.20696
 Alpha  occ. eigenvalues --   -1.59816  -1.39369  -1.19317  -1.08717  -1.08207
 Alpha  occ. eigenvalues --   -1.04721  -1.03393  -0.95865  -0.95552  -0.86895
 Alpha  occ. eigenvalues --   -0.86118  -0.82385  -0.79455  -0.77960  -0.77424
 Alpha  occ. eigenvalues --   -0.72011  -0.71139  -0.70439  -0.64975  -0.64861
 Alpha  occ. eigenvalues --   -0.64713  -0.62111  -0.60781  -0.59242  -0.57443
 Alpha  occ. eigenvalues --   -0.55289  -0.55108  -0.53054  -0.52848  -0.52584
 Alpha  occ. eigenvalues --   -0.52248  -0.49830  -0.48769  -0.48762  -0.47757
 Alpha  occ. eigenvalues --   -0.46466  -0.45509  -0.45409  -0.44778  -0.43608
 Alpha  occ. eigenvalues --   -0.37303  -0.36318
 Alpha virt. eigenvalues --    0.05094   0.11328   0.16583   0.19982   0.23089
 Alpha virt. eigenvalues --    0.24033   0.25770   0.27113   0.27558   0.28210
 Alpha virt. eigenvalues --    0.29357   0.30666   0.31587   0.31940   0.32086

 Mulliken charges:
               1
     1  C   -0.298819
     2  C   -0.299821
     3  C   -0.475862
     4  H    0.148434
     5  H    0.146936
     6  H    0.156075
     7  H    0.155250
     8  H    0.153249
     9  H    0.153856
    10  H    0.161110
    11  C   -0.299494
    12  C   -0.299832
    13  C   -0.476362
    14  H    0.157213
    15  H    0.152179
    16  H    0.153450
    17  H    0.150081
    18  H    0.141775
    19  H    0.162314
    20  H    0.159260
    21  C   -0.170732
    22  C   -0.220641
    23  C   -0.177720
    24  C    0.159267
    25  C   -0.170483
    26  C   -0.218969
    27  H    0.225438
    28  H    0.223717
    29  H    0.283923
    30  H    0.275381
    31  H    0.223275
    32  N    0.487686
    33  O   -0.460662
    34  O   -0.460472
 Sum of Mulliken charges =  -0.00000

 Dipole moment (field-independent basis, Debye):
    X=              2.7277    Y=              4.1015    Z=             -1.2660  Tot=              5.0858
 Quadrupole moment (field-independent basis, Debye-Ang):
   XX=            -76.7667   YY=            -99.2707   ZZ=            -94.6119
   XY=              7.5452   XZ=             -4.0131   YZ=              0.2154

 Normal termination of Gaussian 16 at Thu May  6 05:52:58 2021.
