 Gaussian 16, Revision A.03,
 Gaussian 16:  EM64L-G16RevA.03 25-Dec-2016

 -------------
 #p 6-31g* mp2
 -------------

 ------------------------------------------------------
 Input file generated by CHIRIPA (05-May-2021 14:53:17)
 ------------------------------------------------------
 Symbolic Z-matrix:
 Charge =  0 Multiplicity = 1

                         Standard orientation:
 ---------------------------------------------------------------------
 Center     Atomic      Atomic             Coordinates (Angstroms)
 Number     Number       Type             X           Y           Z
 ---------------------------------------------------------------------
      1          6           0       -5.417397   -0.024891   -0.437706
      2          6           0       -6.682242   -0.824859   -0.124332
      3          6           0       -7.743810   -0.704800   -1.218157
      4          1           0       -5.684515    1.031604   -0.577031
      5          1           0       -5.000739   -0.370667   -1.393860
      6          1           0       -7.095621   -0.478626    0.831626
      7          1           0       -6.412055   -1.879541    0.014452
      8          1           0       -7.354494   -1.068862   -2.174448
      9          1           0       -8.041945    0.340013   -1.352630
     10          1           0       -8.639452   -1.284402   -0.973725
     11          6           0       -4.346822   -0.134940    0.646492
     12          6           0       -3.081977    0.665028    0.333117
     13          6           0       -2.020408    0.544969    1.426942
     14          1           0       -4.763480    0.210836    1.602646
     15          1           0       -4.079704   -1.191435    0.785817
     16          1           0       -3.352164    1.719710    0.194333
     17          1           0       -2.668598    0.318795   -0.622841
     18          1           0       -1.722274   -0.499844    1.561416
     19          1           0       -2.409725    0.909031    2.383233
     20          1           0       -1.124766    1.124571    1.182511
     21          6           0        5.639938   -1.664190   -0.307790
     22          6           0        4.654037   -1.812371    0.673312
     23          6           0        3.637644   -0.861889    0.807766
     24          6           0        3.637638    0.229357   -0.059686
     25          6           0        4.605856    0.404968   -1.047109
     26          6           0        5.612748   -0.557945   -1.163361
     27          1           0        6.425807   -2.407376   -0.405168
     28          1           0        4.672649   -2.670485    1.339150
     29          1           0        2.861988   -0.951922    1.558544
     30          1           0        4.560909    1.271034   -1.696206
     31          1           0        6.377112   -0.440279   -1.926217
     32          7           0        2.566656    1.242169    0.073020
     33          8           0        2.588934    2.194563   -0.703566
     34          8           0        1.725223    1.064441    0.951108
 ---------------------------------------------------------------------

 SCF Done:  E(RHF) =  -669.536165632     A.U. after   15 cycles
 E2 =    -0.2090652738D+01 EUMP2 =    -0.67162681836966D+03

 The electronic state is 1-A.
 Alpha  occ. eigenvalues --  -20.60941 -20.60924 -15.85964 -11.31283 -11.27846
 Alpha  occ. eigenvalues --  -11.27840 -11.27585 -11.26853 -11.26843 -11.21130
 Alpha  occ. eigenvalues --  -11.20778 -11.20680 -11.20625 -11.20549 -11.19628
 Alpha  occ. eigenvalues --   -1.59996  -1.39551  -1.19451  -1.08857  -1.07715
 Alpha  occ. eigenvalues --   -1.04847  -1.02731  -0.95701  -0.95159  -0.86249
 Alpha  occ. eigenvalues --   -0.86174  -0.82532  -0.78825  -0.77586  -0.77504
 Alpha  occ. eigenvalues --   -0.72190  -0.71309  -0.70560  -0.65107  -0.64850
 Alpha  occ. eigenvalues --   -0.64360  -0.62193  -0.60147  -0.58555  -0.56743
 Alpha  occ. eigenvalues --   -0.55352  -0.54478  -0.53180  -0.52939  -0.51792
 Alpha  occ. eigenvalues --   -0.51594  -0.49148  -0.48944  -0.48929  -0.47114
 Alpha  occ. eigenvalues --   -0.45896  -0.45046  -0.44991  -0.44943  -0.42932
 Alpha  occ. eigenvalues --   -0.37431  -0.36448
 Alpha virt. eigenvalues --    0.04933   0.11207   0.16422   0.21337   0.23522
 Alpha virt. eigenvalues --    0.25176   0.27244   0.27317   0.28147   0.28171
 Alpha virt. eigenvalues --    0.28947   0.30910   0.32106   0.32384   0.32529

 Mulliken charges:
               1
     1  C   -0.297531
     2  C   -0.298951
     3  C   -0.475272
     4  H    0.149432
     5  H    0.148312
     6  H    0.151245
     7  H    0.150419
     8  H    0.154383
     9  H    0.155012
    10  H    0.158542
    11  C   -0.297112
    12  C   -0.298969
    13  C   -0.485088
    14  H    0.147894
    15  H    0.146511
    16  H    0.151394
    17  H    0.150044
    18  H    0.146701
    19  H    0.148835
    20  H    0.190329
    21  C   -0.170590
    22  C   -0.218603
    23  C   -0.170863
    24  C    0.157789
    25  C   -0.170596
    26  C   -0.218626
    27  H    0.225944
    28  H    0.223842
    29  H    0.276306
    30  H    0.275822
    31  H    0.223755
    32  N    0.490472
    33  O   -0.459338
    34  O   -0.461446
 Sum of Mulliken charges =  -0.00000

 Dipole moment (field-independent basis, Debye):
    X=              4.1036    Y=             -3.4813    Z=             -0.4797  Tot=              5.4026
 Quadrupole moment (field-independent basis, Debye-Ang):
   XX=            -68.7647   YY=            -94.8600   ZZ=            -92.6250
   XY=            -11.8040   XZ=             -4.4966   YZ=             -1.7730

 Normal termination of Gaussian 16 at Wed May  5 18:45:30 2021.
