 Gaussian 16, Revision A.03,
 Gaussian 16:  EM64L-G16RevA.03 25-Dec-2016

 -------------
 #p 6-31g* mp2
 -------------

 ------------------------------------------------------
 Input file generated by CHIRIPA (05-May-2021 14:51:08)
 ------------------------------------------------------
 Symbolic Z-matrix:
 Charge =  0 Multiplicity = 1

                         Standard orientation:
 ---------------------------------------------------------------------
 Center     Atomic      Atomic             Coordinates (Angstroms)
 Number     Number       Type             X           Y           Z
 ---------------------------------------------------------------------
      1          6           0       -2.748197    0.024982   -0.409787
      2          6           0       -3.823485    1.095216   -0.219152
      3          6           0       -4.090528    1.898314   -1.492539
      4          1           0       -1.818068    0.504322   -0.744508
      5          1           0       -3.056719   -0.655406   -1.215566
      6          1           0       -3.513669    1.772568    0.586965
      7          1           0       -4.751107    0.613294    0.115339
      8          1           0       -4.423881    1.239360   -2.300781
      9          1           0       -3.179411    2.405221   -1.826476
     10          1           0       -4.862494    2.657731   -1.333749
     11          6           0       -2.470033   -0.786256    0.854431
     12          6           0       -1.394746   -1.856489    0.663796
     13          6           0       -1.127703   -2.659588    1.937183
     14          1           0       -2.161511   -0.105868    1.660211
     15          1           0       -3.400162   -1.265596    1.189152
     16          1           0       -0.467123   -1.374568    0.329305
     17          1           0       -1.704561   -2.533842   -0.142321
     18          1           0       -2.038819   -3.166494    2.271120
     19          1           0       -0.794350   -2.000634    2.745426
     20          1           0       -0.355736   -3.419004    1.778393
     21          6           0        2.864569   -0.338958   -0.241269
     22          6           0        2.298522   -1.152890   -1.405353
     23          6           0        2.818885   -2.590394   -1.429765
     24          1           0        3.961260   -0.332384   -0.305842
     25          1           0        2.610101   -0.838107    0.703978
     26          1           0        2.552793   -0.651619   -2.348056
     27          1           0        1.203043   -1.157367   -1.338109
     28          1           0        2.552410   -3.112312   -0.504997
     29          1           0        3.909828   -2.603691   -1.520684
     30          1           0        2.401536   -3.154217   -2.269874
     31          6           0        2.353661    1.100232   -0.203376
     32          6           0        2.919708    1.914163    0.960708
     33          6           0        2.399346    3.351668    0.985121
     34          1           0        2.608128    1.599381   -1.148623
     35          1           0        1.256970    1.093658   -0.138802
     36          1           0        4.015187    1.918640    0.893465
     37          1           0        2.665437    1.412893    1.903412
     38          1           0        1.308402    3.364966    1.076039
     39          1           0        2.665821    3.873586    0.060353
     40          1           0        2.816694    3.915491    1.825230
 ---------------------------------------------------------------------

 SCF Done:  E(RHF) =  -470.733304065     A.U. after   11 cycles
 E2 =    -0.1583641935D+01 EUMP2 =    -0.47231694599931D+03

 The electronic state is 1-A.
 Alpha  occ. eigenvalues --  -11.21655 -11.21647 -11.21638 -11.21571 -11.21462
 Alpha  occ. eigenvalues --  -11.21452 -11.21403 -11.21383 -11.21139 -11.21116
 Alpha  occ. eigenvalues --  -11.21089 -11.21064  -1.08505  -1.08446  -1.03596
 Alpha  occ. eigenvalues --   -1.03534  -0.96028  -0.96002  -0.87049  -0.87013
 Alpha  occ. eigenvalues --   -0.79697  -0.79570  -0.78370  -0.78209  -0.65321
 Alpha  occ. eigenvalues --   -0.64920  -0.61116  -0.60827  -0.59401  -0.59353
 Alpha  occ. eigenvalues --   -0.57641  -0.57606  -0.55319  -0.55286  -0.52725
 Alpha  occ. eigenvalues --   -0.52689  -0.52455  -0.52424  -0.50024  -0.49905
 Alpha  occ. eigenvalues --   -0.48082  -0.47856  -0.46849  -0.46518  -0.46165
 Alpha  occ. eigenvalues --   -0.45793  -0.45772  -0.45299  -0.43834  -0.43808
 Alpha virt. eigenvalues --    0.19360   0.22839   0.23946   0.24537   0.25093
 Alpha virt. eigenvalues --    0.26699   0.26976   0.27705   0.28417   0.30226
 Alpha virt. eigenvalues --    0.30512   0.31416   0.31570   0.31772   0.32334

 Mulliken charges:
               1
     1  C   -0.300580
     2  C   -0.299582
     3  C   -0.475829
     4  H    0.150642
     5  H    0.149899
     6  H    0.151861
     7  H    0.152190
     8  H    0.155272
     9  H    0.155534
    10  H    0.160394
    11  C   -0.297536
    12  C   -0.308643
    13  C   -0.475485
    14  H    0.149118
    15  H    0.150059
    16  H    0.160515
    17  H    0.152259
    18  H    0.155699
    19  H    0.154893
    20  H    0.160224
    21  C   -0.298987
    22  C   -0.305295
    23  C   -0.475604
    24  H    0.150100
    25  H    0.149959
    26  H    0.152047
    27  H    0.157386
    28  H    0.155118
    29  H    0.155125
    30  H    0.160379
    31  C   -0.300771
    32  C   -0.299589
    33  C   -0.475675
    34  H    0.150013
    35  H    0.150044
    36  H    0.152354
    37  H    0.151917
    38  H    0.154704
    39  H    0.155374
    40  H    0.160499
 Sum of Mulliken charges =  -0.00000

 Dipole moment (field-independent basis, Debye):
    X=             -0.0103    Y=             -0.0048    Z=             -0.0063  Tot=              0.0130
 Quadrupole moment (field-independent basis, Debye-Ang):
   XX=            -83.7316   YY=            -85.8007   ZZ=            -85.0979
   XY=              1.2763   XZ=             -0.4603   YZ=              0.4083

 Normal termination of Gaussian 16 at Wed May  5 22:56:32 2021.
