 Gaussian 16, Revision A.03,
 Gaussian 16:  EM64L-G16RevA.03 25-Dec-2016

 -------------
 #p 6-31g* mp2
 -------------

 ------------------------------------------------------
 Input file generated by CHIRIPA (05-May-2021 14:51:13)
 ------------------------------------------------------
 Symbolic Z-matrix:
 Charge =  0 Multiplicity = 1

                         Standard orientation:
 ---------------------------------------------------------------------
 Center     Atomic      Atomic             Coordinates (Angstroms)
 Number     Number       Type             X           Y           Z
 ---------------------------------------------------------------------
      1          6           0        2.266263   -0.704936    0.913647
      2          6           0        1.243730   -1.817965    0.682177
      3          6           0        0.907425   -2.586900    1.960235
      4          1           0        3.183498   -1.139931    1.333652
      5          1           0        1.875837   -0.009215    1.669249
      6          1           0        1.635372   -2.510620   -0.073773
      7          1           0        0.328892   -1.380296    0.262495
      8          1           0        0.492762   -1.913375    2.717215
      9          1           0        1.806665   -3.050122    2.379036
     10          1           0        0.174699   -3.377784    1.771883
     11          6           0        2.612694    0.072826   -0.354738
     12          6           0        3.635228    1.185854   -0.123268
     13          6           0        3.971533    1.954790   -1.401326
     14          1           0        3.003120   -0.622896   -1.110340
     15          1           0        1.695460    0.507821   -0.774743
     16          1           0        4.550066    0.748185    0.296413
     17          1           0        3.243586    1.878510    0.632682
     18          1           0        3.072293    2.418011   -1.820127
     19          1           0        4.386196    1.281264   -2.158306
     20          1           0        4.704259    2.745673   -1.212975
     21          6           0       -2.644772    0.763915    0.304248
     22          6           0       -2.369276    2.247377    0.056403
     23          6           0       -2.785351    3.130561    1.233119
     24          1           0       -3.715407    0.625376    0.507945
     25          1           0       -2.110476    0.445237    1.209988
     26          1           0       -2.902822    2.562825   -0.849377
     27          1           0       -1.299204    2.382376   -0.146917
     28          1           0       -2.243711    2.843912    2.140345
     29          1           0       -3.856439    3.025386    1.433893
     30          1           0       -2.579524    4.187016    1.034627
     31          6           0       -2.234186   -0.131805   -0.863157
     32          6           0       -2.509682   -1.615267   -0.615312
     33          6           0       -2.093606   -2.498451   -1.792028
     34          1           0       -2.768483    0.186874   -1.768897
     35          1           0       -1.163551    0.006735   -1.066854
     36          1           0       -3.579753   -1.750265   -0.411992
     37          1           0       -1.976137   -1.930714    0.290468
     38          1           0       -1.022518   -2.393276   -1.992802
     39          1           0       -2.635247   -2.211802   -2.699254
     40          1           0       -2.299434   -3.554904   -1.593536
 ---------------------------------------------------------------------

 SCF Done:  E(RHF) =  -470.732536169     A.U. after   11 cycles
 E2 =    -0.1585001320D+01 EUMP2 =    -0.47231753748848D+03

 The electronic state is 1-A.
 Alpha  occ. eigenvalues --  -11.21663 -11.21649 -11.21606 -11.21587 -11.21468
 Alpha  occ. eigenvalues --  -11.21455 -11.21406 -11.21393 -11.21135 -11.21120
 Alpha  occ. eigenvalues --  -11.21103 -11.21042  -1.08546  -1.08426  -1.03641
 Alpha  occ. eigenvalues --   -1.03503  -0.96044  -0.95997  -0.87050  -0.87023
 Alpha  occ. eigenvalues --   -0.79660  -0.79617  -0.78353  -0.78255  -0.65530
 Alpha  occ. eigenvalues --   -0.64793  -0.61282  -0.60705  -0.59385  -0.59346
 Alpha  occ. eigenvalues --   -0.57645  -0.57605  -0.55347  -0.55266  -0.52722
 Alpha  occ. eigenvalues --   -0.52695  -0.52456  -0.52430  -0.50047  -0.49899
 Alpha  occ. eigenvalues --   -0.48047  -0.47863  -0.46756  -0.46574  -0.46194
 Alpha  occ. eigenvalues --   -0.45791  -0.45754  -0.45353  -0.43834  -0.43817
 Alpha virt. eigenvalues --    0.19500   0.22480   0.23915   0.24092   0.25260
 Alpha virt. eigenvalues --    0.26393   0.26899   0.28051   0.28773   0.30575
 Alpha virt. eigenvalues --    0.30643   0.31016   0.31540   0.31762   0.32349

 Mulliken charges:
               1
     1  C   -0.297242
     2  C   -0.311339
     3  C   -0.476478
     4  H    0.149932
     5  H    0.148920
     6  H    0.152101
     7  H    0.164770
     8  H    0.154671
     9  H    0.155759
    10  H    0.161036
    11  C   -0.301470
    12  C   -0.299616
    13  C   -0.475798
    14  H    0.149875
    15  H    0.151017
    16  H    0.152321
    17  H    0.151963
    18  H    0.155279
    19  H    0.155336
    20  H    0.160471
    21  C   -0.298469
    22  C   -0.299822
    23  C   -0.475698
    24  H    0.150373
    25  H    0.149159
    26  H    0.152346
    27  H    0.151218
    28  H    0.155029
    29  H    0.155491
    30  H    0.160445
    31  C   -0.304691
    32  C   -0.305322
    33  C   -0.476795
    34  H    0.150869
    35  H    0.152730
    36  H    0.153132
    37  H    0.156112
    38  H    0.157407
    39  H    0.155034
    40  H    0.159947
 Sum of Mulliken charges =  -0.00000

 Dipole moment (field-independent basis, Debye):
    X=             -0.0004    Y=             -0.0077    Z=             -0.0041  Tot=              0.0088
 Quadrupole moment (field-independent basis, Debye-Ang):
   XX=            -83.4388   YY=            -85.3253   ZZ=            -85.8859
   XY=             -0.6687   XZ=              0.6937   YZ=              0.0315

 Normal termination of Gaussian 16 at Wed May  5 19:58:33 2021.
