 Gaussian 16, Revision A.03,
 Gaussian 16:  EM64L-G16RevA.03 25-Dec-2016

 -------------
 #p 6-31g* mp2
 -------------

 ------------------------------------------------------
 Input file generated by CHIRIPA (05-May-2021 14:51:08)
 ------------------------------------------------------
 Symbolic Z-matrix:
 Charge =  0 Multiplicity = 1

                         Standard orientation:
 ---------------------------------------------------------------------
 Center     Atomic      Atomic             Coordinates (Angstroms)
 Number     Number       Type             X           Y           Z
 ---------------------------------------------------------------------
      1          6           0        4.116673    0.011486    0.008944
      2          6           0        4.931795   -0.809479   -0.990845
      3          6           0        6.132528   -0.042571   -1.545721
      4          1           0        3.771257    0.933398   -0.478613
      5          1           0        4.769388    0.321373    0.836789
      6          1           0        4.277409   -1.118893   -1.815864
      7          1           0        5.275149   -1.729634   -0.500908
      8          1           0        6.808204    0.253009   -0.736588
      9          1           0        5.804794    0.867220   -2.059016
     10          1           0        6.701142   -0.648074   -2.258395
     11          6           0        2.912951   -0.741640    0.572489
     12          6           0        2.097829    0.079325    1.572277
     13          6           0        0.897096   -0.687583    2.127153
     14          1           0        2.260235   -1.051527   -0.255356
     15          1           0        3.258367   -1.663552    1.060045
     16          1           0        1.754474    0.999480    1.082341
     17          1           0        2.752215    0.388739    2.397296
     18          1           0        1.224830   -1.597374    2.640448
     19          1           0        0.221420   -0.983163    1.318021
     20          1           0        0.328482   -0.082080    2.839827
     21          6           0       -3.791427   -0.346568   -0.312559
     22          6           0       -5.305815   -0.402503   -0.516241
     23          6           0       -5.844269   -1.832935   -0.557770
     24          1           0       -3.298236   -0.902172   -1.121886
     25          1           0       -3.534931   -0.863189    0.622699
     26          1           0       -5.559516    0.115273   -1.450136
     27          1           0       -5.795450    0.153461    0.293560
     28          1           0       -5.619970   -2.356294    0.377316
     29          1           0       -5.382695   -2.394699   -1.376288
     30          1           0       -6.928777   -1.849572   -0.704147
     31          6           0       -3.238197    1.076722   -0.268874
     32          6           0       -1.723808    1.132657   -0.065191
     33          6           0       -1.185354    2.563090   -0.023663
     34          1           0       -3.494693    1.593344   -1.204131
     35          1           0       -3.731388    1.632326    0.540454
     36          1           0       -1.234173    0.576694   -0.874992
     37          1           0       -1.470107    0.614882    0.868704
     38          1           0       -1.646929    3.124853    0.794855
     39          1           0       -1.409654    3.086448   -0.958748
     40          1           0       -0.100847    2.579725    0.122715
 ---------------------------------------------------------------------

 SCF Done:  E(RHF) =  -470.732556717     A.U. after   11 cycles
 E2 =    -0.1583600877D+01 EUMP2 =    -0.47231615759417D+03

 The electronic state is 1-A.
 Alpha  occ. eigenvalues --  -11.21602 -11.21599 -11.21596 -11.21535 -11.21403
 Alpha  occ. eigenvalues --  -11.21396 -11.21344 -11.21335 -11.21082 -11.21071
 Alpha  occ. eigenvalues --  -11.21067 -11.21023  -1.08450  -1.08401  -1.03587
 Alpha  occ. eigenvalues --   -1.03465  -0.96021  -0.95936  -0.87044  -0.86951
 Alpha  occ. eigenvalues --   -0.79696  -0.79497  -0.78267  -0.78213  -0.65125
 Alpha  occ. eigenvalues --   -0.65007  -0.61115  -0.60821  -0.59421  -0.59237
 Alpha  occ. eigenvalues --   -0.57647  -0.57519  -0.55337  -0.55176  -0.52710
 Alpha  occ. eigenvalues --   -0.52649  -0.52427  -0.52383  -0.50070  -0.49836
 Alpha  occ. eigenvalues --   -0.47939  -0.47882  -0.46747  -0.46473  -0.45836
 Alpha  occ. eigenvalues --   -0.45759  -0.45714  -0.45523  -0.43796  -0.43743
 Alpha virt. eigenvalues --    0.20737   0.23085   0.23592   0.25115   0.25998
 Alpha virt. eigenvalues --    0.26305   0.26451   0.27572   0.28477   0.29101
 Alpha virt. eigenvalues --    0.30226   0.31077   0.31487   0.31776   0.32442

 Mulliken charges:
               1
     1  C   -0.298326
     2  C   -0.299637
     3  C   -0.475720
     4  H    0.149398
     5  H    0.149575
     6  H    0.151881
     7  H    0.151975
     8  H    0.155199
     9  H    0.155204
    10  H    0.160244
    11  C   -0.298381
    12  C   -0.304348
    13  C   -0.479064
    14  H    0.149827
    15  H    0.149725
    16  H    0.156189
    17  H    0.151999
    18  H    0.155053
    19  H    0.160075
    20  H    0.159040
    21  C   -0.298647
    22  C   -0.299560
    23  C   -0.475733
    24  H    0.149243
    25  H    0.149759
    26  H    0.151924
    27  H    0.151981
    28  H    0.155304
    29  H    0.155107
    30  H    0.160240
    31  C   -0.297541
    32  C   -0.306280
    33  C   -0.479268
    34  H    0.149123
    35  H    0.149486
    36  H    0.149923
    37  H    0.162090
    38  H    0.155270
    39  H    0.155077
    40  H    0.162594
 Sum of Mulliken charges =  -0.00000

 Dipole moment (field-independent basis, Debye):
    X=             -0.0034    Y=             -0.0121    Z=              0.0168  Tot=              0.0210
 Quadrupole moment (field-independent basis, Debye-Ang):
   XX=            -85.6051   YY=            -85.8395   ZZ=            -83.4421
   XY=             -1.0999   XZ=              0.6524   YZ=             -0.0676

 Normal termination of Gaussian 16 at Thu May  6 03:40:07 2021.
