 Gaussian 16, Revision A.03,
 Gaussian 16:  EM64L-G16RevA.03 25-Dec-2016

 -------------
 #p 6-31g* mp2
 -------------

 ------------------------------------------------------
 Input file generated by CHIRIPA (05-May-2021 14:51:11)
 ------------------------------------------------------
 Symbolic Z-matrix:
 Charge =  0 Multiplicity = 1

                         Standard orientation:
 ---------------------------------------------------------------------
 Center     Atomic      Atomic             Coordinates (Angstroms)
 Number     Number       Type             X           Y           Z
 ---------------------------------------------------------------------
      1          6           0        4.176039   -0.138807   -0.362771
      2          6           0        5.277602    0.493065    0.488864
      3          6           0        6.465314    0.975846   -0.344237
      4          1           0        4.596368   -0.982059   -0.927744
      5          1           0        3.830609    0.593756   -1.105350
      6          1           0        5.619889   -0.240013    1.230519
      7          1           0        4.854558    1.334791    1.052022
      8          1           0        6.144366    1.726233   -1.073971
      9          1           0        6.914045    0.142481   -0.894459
     10          1           0        7.240966    1.424067    0.284510
     11          6           0        2.981917   -0.626348    0.455829
     12          6           0        1.880354   -1.258220   -0.395805
     13          6           0        0.692642   -1.741001    0.437295
     14          1           0        3.327347   -1.358911    1.198409
     15          1           0        2.561589    0.216904    1.020803
     16          1           0        2.303399   -2.099946   -0.958963
     17          1           0        1.538068   -0.525142   -1.137461
     18          1           0        0.243912   -0.907636    0.987518
     19          1           0        1.013591   -2.491388    1.167030
     20          1           0       -0.083009   -2.189222   -0.191452
     21          6           0       -3.979145   -0.233508    0.162606
     22          6           0       -3.438141   -1.536668   -0.426522
     23          6           0       -4.249223   -2.760266    0.000969
     24          1           0       -3.983126   -0.307886    1.258688
     25          1           0       -5.026109   -0.106619   -0.145875
     26          1           0       -2.392088   -1.660369   -0.118161
     27          1           0       -3.435267   -1.459107   -1.521324
     28          1           0       -5.291269   -2.663212   -0.320464
     29          1           0       -4.242162   -2.865619    1.090672
     30          1           0       -3.845128   -3.680883   -0.431503
     31          6           0       -3.178811    0.998662   -0.255665
     32          6           0       -3.719816    2.301823    0.333463
     33          6           0       -2.908734    3.525421   -0.094028
     34          1           0       -2.131848    0.871775    0.052817
     35          1           0       -3.174830    1.073040   -1.351747
     36          1           0       -3.722689    2.224261    1.428265
     37          1           0       -4.765870    2.425525    0.025102
     38          1           0       -2.915794    3.630773   -1.183730
     39          1           0       -1.866688    3.428367    0.227407
     40          1           0       -3.312829    4.446038    0.338445
 ---------------------------------------------------------------------

 SCF Done:  E(RHF) =  -470.733152627     A.U. after   11 cycles
 E2 =    -0.1582771387D+01 EUMP2 =    -0.47231592401347D+03

 The electronic state is 1-A.
 Alpha  occ. eigenvalues --  -11.21641 -11.21618 -11.21594 -11.21491 -11.21433
 Alpha  occ. eigenvalues --  -11.21373 -11.21373 -11.21309 -11.21132 -11.21083
 Alpha  occ. eigenvalues --  -11.21079 -11.21017  -1.08462  -1.08392  -1.03570
 Alpha  occ. eigenvalues --   -1.03490  -0.96021  -0.95948  -0.87050  -0.86956
 Alpha  occ. eigenvalues --   -0.79669  -0.79525  -0.78277  -0.78200  -0.65115
 Alpha  occ. eigenvalues --   -0.65009  -0.60983  -0.60898  -0.59462  -0.59245
 Alpha  occ. eigenvalues --   -0.57660  -0.57525  -0.55315  -0.55231  -0.52779
 Alpha  occ. eigenvalues --   -0.52622  -0.52451  -0.52355  -0.49972  -0.49882
 Alpha  occ. eigenvalues --   -0.47998  -0.47821  -0.46694  -0.46563  -0.45831
 Alpha  occ. eigenvalues --   -0.45760  -0.45733  -0.45619  -0.43788  -0.43712
 Alpha virt. eigenvalues --    0.21278   0.23116   0.23856   0.24358   0.26102
 Alpha virt. eigenvalues --    0.26768   0.27084   0.27325   0.27802   0.29454
 Alpha virt. eigenvalues --    0.29976   0.31494   0.31601   0.31827   0.32101

 Mulliken charges:
               1
     1  C   -0.298346
     2  C   -0.299658
     3  C   -0.475729
     4  H    0.149738
     5  H    0.149725
     6  H    0.151932
     7  H    0.151946
     8  H    0.155274
     9  H    0.155207
    10  H    0.160310
    11  C   -0.298623
    12  C   -0.299536
    13  C   -0.481578
    14  H    0.149586
    15  H    0.149437
    16  H    0.152177
    17  H    0.152737
    18  H    0.155275
    19  H    0.155550
    20  H    0.165771
    21  C   -0.297403
    22  C   -0.309203
    23  C   -0.475136
    24  H    0.149423
    25  H    0.149226
    26  H    0.162345
    27  H    0.150878
    28  H    0.154860
    29  H    0.155155
    30  H    0.159649
    31  C   -0.299862
    32  C   -0.299622
    33  C   -0.475579
    34  H    0.150605
    35  H    0.149474
    36  H    0.151885
    37  H    0.152048
    38  H    0.155160
    39  H    0.154628
    40  H    0.160274
 Sum of Mulliken charges =  -0.00000

 Dipole moment (field-independent basis, Debye):
    X=              0.0425    Y=             -0.0152    Z=             -0.0002  Tot=              0.0451
 Quadrupole moment (field-independent basis, Debye-Ang):
   XX=            -85.4625   YY=            -85.0551   ZZ=            -84.3828
   XY=             -1.3858   XZ=              1.0440   YZ=              0.1966

 Normal termination of Gaussian 16 at Thu May  6 07:02:03 2021.
