 Gaussian 16, Revision A.03,
 Gaussian 16:  EM64L-G16RevA.03 25-Dec-2016

 -------------
 #p 6-31g* mp2
 -------------

 ------------------------------------------------------
 Input file generated by CHIRIPA (05-May-2021 14:57:23)
 ------------------------------------------------------
 Symbolic Z-matrix:
 Charge =  0 Multiplicity = 1

                         Standard orientation:
 ---------------------------------------------------------------------
 Center     Atomic      Atomic             Coordinates (Angstroms)
 Number     Number       Type             X           Y           Z
 ---------------------------------------------------------------------
      1          6           0        2.601503    2.514525   -0.334903
      2          6           0        3.185477    2.111204    0.870430
      3          6           0        3.503365    0.767729    1.090819
      4          6           0        3.222312   -0.149865    0.079720
      5          6           0        2.641064    0.220923   -1.131872
      6          6           0        2.331636    1.569763   -1.330452
      7          1           0        2.357847    3.560252   -0.497636
      8          1           0        3.396185    2.842727    1.645363
      9          1           0        3.955968    0.428093    2.014516
     10          1           0        2.442887   -0.531388   -1.885644
     11          1           0        1.878169    1.880116   -2.267518
     12          7           0        3.554367   -1.574981    0.301492
     13          8           0        3.296740   -2.363886   -0.605092
     14          8           0        4.065972   -1.876098    1.377702
     15          6           0       -5.617370   -0.108989    0.560074
     16          6           0       -4.990565   -1.283558    0.131094
     17          6           0       -3.633700   -1.281977   -0.205748
     18          6           0       -2.930749   -0.082693   -0.101489
     19          6           0       -3.526930    1.103874    0.322673
     20          6           0       -4.884844    1.078884    0.654329
     21          1           0       -6.671823   -0.119310    0.819727
     22          1           0       -5.556968   -2.207535    0.056936
     23          1           0       -3.123459   -2.176891   -0.540712
     24          1           0       -2.936113    2.009566    0.386509
     25          1           0       -5.369009    1.992579    0.987182
     26          7           0       -1.493742   -0.068629   -0.455343
     27          8           0       -0.896562    1.000922   -0.354974
     28          8           0       -0.991807   -1.127422   -0.826362
 ---------------------------------------------------------------------

 SCF Done:  E(RHF) =  -868.338085494     A.U. after   16 cycles
 E2 =    -0.2600375088D+01 EUMP2 =    -0.87093846058172D+03

 The electronic state is 1-A.
 Alpha  occ. eigenvalues --  -20.61165 -20.61113 -20.59435 -20.59399 -15.86172
 Alpha  occ. eigenvalues --  -15.84464 -11.31446 -11.29585 -11.28034 -11.27973
 Alpha  occ. eigenvalues --  -11.27730 -11.27016 -11.26973 -11.26227 -11.26042
 Alpha  occ. eigenvalues --  -11.25915 -11.25260 -11.25075  -1.60213  -1.58495
 Alpha  occ. eigenvalues --   -1.39767  -1.38056  -1.19612  -1.17741  -1.09025
 Alpha  occ. eigenvalues --   -1.07209  -1.05000  -1.03128  -0.95874  -0.94085
 Alpha  occ. eigenvalues --   -0.86402  -0.84568  -0.82707  -0.80939  -0.77768
 Alpha  occ. eigenvalues --   -0.75998  -0.72394  -0.71528  -0.70719  -0.70705
 Alpha  occ. eigenvalues --   -0.69801  -0.68935  -0.65265  -0.65003  -0.63437
 Alpha  occ. eigenvalues --   -0.63203  -0.62348  -0.60520  -0.55509  -0.53727
 Alpha  occ. eigenvalues --   -0.53335  -0.53091  -0.51537  -0.51283  -0.49153
 Alpha  occ. eigenvalues --   -0.49048  -0.47463  -0.47437  -0.45191  -0.43515
 Alpha  occ. eigenvalues --   -0.37587  -0.36599  -0.35714  -0.34599
 Alpha virt. eigenvalues --    0.04756   0.06552   0.11057   0.12979   0.16270
 Alpha virt. eigenvalues --    0.18093   0.21210   0.22818   0.27120   0.28098
 Alpha virt. eigenvalues --    0.28723   0.29697   0.30773   0.32263   0.32330

 Mulliken charges:
               1
     1  C   -0.168494
     2  C   -0.219137
     3  C   -0.173667
     4  C    0.156589
     5  C   -0.156992
     6  C   -0.198050
     7  H    0.218117
     8  H    0.215476
     9  H    0.269158
    10  H    0.275650
    11  H    0.218827
    12  N    0.488514
    13  O   -0.460072
    14  O   -0.467852
    15  C   -0.170398
    16  C   -0.218528
    17  C   -0.170370
    18  C    0.158123
    19  C   -0.171157
    20  C   -0.218497
    21  H    0.226516
    22  H    0.225162
    23  H    0.278355
    24  H    0.273008
    25  H    0.223298
    26  N    0.488457
    27  O   -0.464661
    28  O   -0.457376
 Sum of Mulliken charges =  -0.00000

 Dipole moment (field-independent basis, Debye):
    X=             -6.6565    Y=              4.8509    Z=              0.2509  Tot=              8.2403
 Quadrupole moment (field-independent basis, Debye-Ang):
   XX=            -84.4736   YY=           -102.3699   ZZ=           -101.9778
   XY=             17.7649   XZ=             -4.6413   YZ=              2.7887

 Normal termination of Gaussian 16 at Thu May  6 21:13:18 2021.
