 Gaussian 16, Revision A.03,
 Gaussian 16:  EM64L-G16RevA.03 25-Dec-2016

 -------------
 #p 6-31g* mp2
 -------------

 ------------------------------------------------------
 Input file generated by CHIRIPA (05-May-2021 14:51:12)
 ------------------------------------------------------
 Symbolic Z-matrix:
 Charge =  0 Multiplicity = 1

                         Standard orientation:
 ---------------------------------------------------------------------
 Center     Atomic      Atomic             Coordinates (Angstroms)
 Number     Number       Type             X           Y           Z
 ---------------------------------------------------------------------
      1          6           0       -3.054538   -0.492761   -0.073224
      2          6           0       -3.746297   -1.606620   -0.859846
      3          6           0       -3.170776   -2.990170   -0.555941
      4          1           0       -1.980251   -0.503114   -0.302885
      5          1           0       -3.146383   -0.701072    1.001748
      6          1           0       -3.654372   -1.395550   -1.932979
      7          1           0       -4.819093   -1.593491   -0.628432
      8          1           0       -3.276438   -3.226176    0.507891
      9          1           0       -2.105099   -3.027110   -0.804068
     10          1           0       -3.679810   -3.771447   -1.128959
     11          6           0       -3.618832    0.896275   -0.366273
     12          6           0       -2.927073    2.010134    0.420349
     13          6           0       -3.502593    3.393684    0.116443
     14          1           0       -3.526987    1.104587   -1.441246
     15          1           0       -4.693119    0.906628   -0.136612
     16          1           0       -1.854277    1.997006    0.188935
     17          1           0       -3.018998    1.799064    1.493482
     18          1           0       -4.568271    3.430624    0.364571
     19          1           0       -3.396932    3.629690   -0.947388
     20          1           0       -2.993560    4.174962    0.689462
     21          6           0        2.583452   -0.307973    0.150536
     22          6           0        1.945896   -0.950345    1.382957
     23          6           0        0.438671   -1.156385    1.229279
     24          1           0        2.097847    0.658055   -0.044213
     25          1           0        2.386333   -0.939408   -0.726863
     26          1           0        2.145340   -0.318589    2.258013
     27          1           0        2.433205   -1.914866    1.574907
     28          1           0        0.223745   -1.804789    0.373721
     29          1           0       -0.065755   -0.199442    1.060709
     30          1           0        0.003357   -1.616783    2.121688
     31          6           0        4.089918   -0.095542    0.288962
     32          6           0        4.727474    0.546831   -0.943459
     33          6           0        6.234698    0.752871   -0.789782
     34          1           0        4.287036    0.535894    1.166361
     35          1           0        4.575522   -1.061568    0.483710
     36          1           0        4.240165    1.511352   -1.135410
     37          1           0        4.528029   -0.084925   -1.818516
     38          1           0        6.739124   -0.204072   -0.621211
     39          1           0        6.449625    1.401275    0.065776
     40          1           0        6.670014    1.213268   -1.682191
 ---------------------------------------------------------------------

 SCF Done:  E(RHF) =  -470.732372133     A.U. after   11 cycles
 E2 =    -0.1583632467D+01 EUMP2 =    -0.47231600460048D+03

 The electronic state is 1-A.
 Alpha  occ. eigenvalues --  -11.21614 -11.21605 -11.21574 -11.21515 -11.21419
 Alpha  occ. eigenvalues --  -11.21360 -11.21320 -11.21179 -11.21081 -11.21071
 Alpha  occ. eigenvalues --  -11.21012 -11.21011  -1.08444  -1.08356  -1.03538
 Alpha  occ. eigenvalues --   -1.03477  -0.96002  -0.95909  -0.87033  -0.86921
 Alpha  occ. eigenvalues --   -0.79679  -0.79508  -0.78325  -0.78066  -0.65072
 Alpha  occ. eigenvalues --   -0.65001  -0.60962  -0.60858  -0.59353  -0.59291
 Alpha  occ. eigenvalues --   -0.57668  -0.57491  -0.55326  -0.55159  -0.52725
 Alpha  occ. eigenvalues --   -0.52629  -0.52509  -0.52255  -0.49971  -0.49825
 Alpha  occ. eigenvalues --   -0.48090  -0.47803  -0.46689  -0.46527  -0.46005
 Alpha  occ. eigenvalues --   -0.45719  -0.45654  -0.45223  -0.43777  -0.43719
 Alpha virt. eigenvalues --    0.21574   0.23022   0.23388   0.24153   0.25717
 Alpha virt. eigenvalues --    0.26257   0.26891   0.27605   0.27722   0.29701
 Alpha virt. eigenvalues --    0.30233   0.31070   0.31767   0.32056   0.32392

 Mulliken charges:
               1
     1  C   -0.303770
     2  C   -0.299430
     3  C   -0.476581
     4  H    0.159302
     5  H    0.149102
     6  H    0.151117
     7  H    0.151258
     8  H    0.155287
     9  H    0.155947
    10  H    0.159707
    11  C   -0.297872
    12  C   -0.301044
    13  C   -0.475594
    14  H    0.148919
    15  H    0.149154
    16  H    0.151684
    17  H    0.152119
    18  H    0.155445
    19  H    0.155213
    20  H    0.159966
    21  C   -0.298221
    22  C   -0.300424
    23  C   -0.479264
    24  H    0.148906
    25  H    0.149004
    26  H    0.151819
    27  H    0.151702
    28  H    0.155766
    29  H    0.160027
    30  H    0.160468
    31  C   -0.298181
    32  C   -0.299652
    33  C   -0.475712
    34  H    0.149643
    35  H    0.149785
    36  H    0.151849
    37  H    0.151837
    38  H    0.155227
    39  H    0.155231
    40  H    0.160260
 Sum of Mulliken charges =  -0.00000

 Dipole moment (field-independent basis, Debye):
    X=              0.0152    Y=             -0.0042    Z=              0.0183  Tot=              0.0241
 Quadrupole moment (field-independent basis, Debye-Ang):
   XX=            -85.7926   YY=            -85.1604   ZZ=            -84.0775
   XY=              0.0012   XZ=             -0.6394   YZ=              0.3926

 Normal termination of Gaussian 16 at Wed May  5 16:49:06 2021.
