 Gaussian 16, Revision A.03,
 Gaussian 16:  EM64L-G16RevA.03 25-Dec-2016

 -------------
 #p 6-31g* mp2
 -------------

 ------------------------------------------------------
 Input file generated by CHIRIPA (05-May-2021 14:57:23)
 ------------------------------------------------------
 Symbolic Z-matrix:
 Charge =  0 Multiplicity = 1

                         Standard orientation:
 ---------------------------------------------------------------------
 Center     Atomic      Atomic             Coordinates (Angstroms)
 Number     Number       Type             X           Y           Z
 ---------------------------------------------------------------------
      1          6           0        1.767270    1.212868    0.563428
      2          6           0        2.970882    1.913575    0.693232
      3          6           0        4.190032    1.288206    0.415502
      4          6           0        4.168589   -0.044881    0.008429
      5          6           0        2.985974   -0.769776   -0.130271
      6          6           0        1.778638   -0.124214    0.152814
      7          1           0        0.824794    1.706512    0.781255
      8          1           0        2.965085    2.952055    1.011933
      9          1           0        5.136451    1.807055    0.507722
     10          1           0        3.023688   -1.804089   -0.449947
     11          1           0        0.845430   -0.670868    0.051139
     12          7           0        5.452995   -0.717620   -0.288427
     13          8           0        5.407143   -1.892828   -0.645387
     14          8           0        6.481246   -0.056967   -0.158520
     15          6           0       -3.605747    2.399697   -0.461060
     16          6           0       -4.901682    1.875154   -0.417177
     17          6           0       -5.108130    0.510531   -0.194165
     18          6           0       -3.990852   -0.304368   -0.018326
     19          6           0       -2.687355    0.188300   -0.056573
     20          6           0       -2.504660    1.556083   -0.280936
     21          1           0       -3.454600    3.460997   -0.634826
     22          1           0       -5.758673    2.527947   -0.556729
     23          1           0       -6.100524    0.078022   -0.155362
     24          1           0       -1.852787   -0.487399    0.086070
     25          1           0       -1.497080    1.960680   -0.314510
     26          7           0       -4.196835   -1.750706    0.218483
     27          8           0       -3.195862   -2.447558    0.370416
     28          8           0       -5.355359   -2.160106    0.247676
 ---------------------------------------------------------------------

 SCF Done:  E(RHF) =  -868.336253455     A.U. after   16 cycles
 E2 =    -0.2600340636D+01 EUMP2 =    -0.87093659409085D+03

 The electronic state is 1-A.
 Alpha  occ. eigenvalues --  -20.61499 -20.61481 -20.61043 -20.61035 -15.86553
 Alpha  occ. eigenvalues --  -15.86100 -11.32047 -11.31612 -11.28760 -11.28570
 Alpha  occ. eigenvalues --  -11.28376 -11.28190 -11.28173 -11.28108 -11.27782
 Alpha  occ. eigenvalues --  -11.27586 -11.27326 -11.27288  -1.60563  -1.60114
 Alpha  occ. eigenvalues --   -1.40116  -1.39662  -1.20232  -1.19814  -1.09591
 Alpha  occ. eigenvalues --   -1.09216  -1.05677  -1.05229  -0.96410  -0.96018
 Alpha  occ. eigenvalues --   -0.87063  -0.86647  -0.83260  -0.82833  -0.78302
 Alpha  occ. eigenvalues --   -0.77825  -0.72768  -0.72318  -0.71886  -0.71437
 Alpha  occ. eigenvalues --   -0.71345  -0.71011  -0.65895  -0.65704  -0.65481
 Alpha  occ. eigenvalues --   -0.65277  -0.63059  -0.62531  -0.56151  -0.55861
 Alpha  occ. eigenvalues --   -0.53961  -0.53782  -0.53550  -0.53312  -0.49536
 Alpha  occ. eigenvalues --   -0.49516  -0.49090  -0.49059  -0.45493  -0.45034
 Alpha  occ. eigenvalues --   -0.38185  -0.37850  -0.37272  -0.36813
 Alpha virt. eigenvalues --    0.04278   0.04683   0.10372   0.10814   0.15697
 Alpha virt. eigenvalues --    0.16018   0.17049   0.22253   0.23866   0.24860
 Alpha virt. eigenvalues --    0.27899   0.28759   0.30600   0.31288   0.33272

 Mulliken charges:
               1
     1  C   -0.176401
     2  C   -0.217967
     3  C   -0.170243
     4  C    0.159620
     5  C   -0.170212
     6  C   -0.222218
     7  H    0.219631
     8  H    0.223703
     9  H    0.277144
    10  H    0.280446
    11  H    0.226184
    12  N    0.487795
    13  O   -0.457709
    14  O   -0.459518
    15  C   -0.170136
    16  C   -0.218114
    17  C   -0.168732
    18  C    0.160203
    19  C   -0.175378
    20  C   -0.222986
    21  H    0.227933
    22  H    0.226823
    23  H    0.278686
    24  H    0.272909
    25  H    0.218794
    26  N    0.487839
    27  O   -0.461440
    28  O   -0.456655
 Sum of Mulliken charges =  -0.00000

 Dipole moment (field-independent basis, Debye):
    X=             -3.8848    Y=              7.3911    Z=              0.1702  Tot=              8.3516
 Quadrupole moment (field-independent basis, Debye-Ang):
   XX=           -140.1382   YY=           -105.0801   ZZ=           -106.2340
   XY=             -9.2858   XZ=              8.7282   YZ=              1.1414

 Normal termination of Gaussian 16 at Fri May  7 00:18:08 2021.
