 Gaussian 16, Revision A.03,
 Gaussian 16:  EM64L-G16RevA.03 25-Dec-2016

 -------------
 #p 6-31g* mp2
 -------------

 ------------------------------------------------------
 Input file generated by CHIRIPA (05-May-2021 14:55:24)
 ------------------------------------------------------
 Symbolic Z-matrix:
 Charge =  0 Multiplicity = 1

                         Standard orientation:
 ---------------------------------------------------------------------
 Center     Atomic      Atomic             Coordinates (Angstroms)
 Number     Number       Type             X           Y           Z
 ---------------------------------------------------------------------
      1          6           0       -0.837157    2.853111   -0.106981
      2          6           0       -1.659982    2.387143   -1.137687
      3          6           0       -2.340372    1.172624   -1.009002
      4          6           0       -2.174320    0.446464    0.169306
      5          6           0       -1.361675    0.884053    1.214013
      6          6           0       -0.690887    2.101404    1.063516
      7          1           0       -0.312343    3.797679   -0.215419
      8          1           0       -1.775456    2.968822   -2.047831
      9          1           0       -2.983689    0.788358   -1.791242
     10          1           0       -1.266367    0.282003    2.109485
     11          1           0       -0.052532    2.460814    1.865620
     12          7           0       -2.889536   -0.840792    0.317085
     13          8           0       -2.726525   -1.461792    1.365142
     14          8           0       -3.599590   -1.204368   -0.617940
     15          6           0        3.052612   -0.227992   -0.354210
     16          6           0        4.380271   -0.174855    0.402415
     17          6           0        5.209993    1.061344    0.054321
     18          1           0        3.252512   -0.211043   -1.434348
     19          1           0        2.473806    0.678509   -0.129191
     20          1           0        4.955807   -1.081837    0.177121
     21          1           0        4.177196   -0.192126    1.480876
     22          1           0        4.658607    1.975858    0.295647
     23          1           0        5.441642    1.081091   -1.015516
     24          1           0        6.154839    1.079185    0.606415
     25          6           0        2.211885   -1.458074   -0.016862
     26          6           0        0.884226   -1.511212   -0.773488
     27          6           0        0.054504   -2.747410   -0.425394
     28          1           0        2.790691   -2.364575   -0.241881
     29          1           0        2.011985   -1.475023    1.063276
     30          1           0        1.087301   -1.493941   -1.851949
     31          1           0        0.308690   -0.604229   -0.548194
     32          1           0       -0.177145   -2.767157    0.644443
     33          1           0        0.605890   -3.661925   -0.666720
     34          1           0       -0.890342   -2.765251   -0.977487
 ---------------------------------------------------------------------

 SCF Done:  E(RHF) =  -669.534503876     A.U. after   15 cycles
 E2 =    -0.2095878634D+01 EUMP2 =    -0.67163038250993D+03

 The electronic state is 1-A.
 Alpha  occ. eigenvalues --  -20.60918 -20.60913 -15.85924 -11.31267 -11.27872
 Alpha  occ. eigenvalues --  -11.27862 -11.27649 -11.26924 -11.26898 -11.21769
 Alpha  occ. eigenvalues --  -11.21462 -11.21345 -11.21273 -11.21169 -11.20337
 Alpha  occ. eigenvalues --   -1.59968  -1.39525  -1.19506  -1.08888  -1.08387
 Alpha  occ. eigenvalues --   -1.04900  -1.03422  -0.95863  -0.95716  -0.86863
 Alpha  occ. eigenvalues --   -0.86291  -0.82552  -0.79507  -0.78191  -0.77595
 Alpha  occ. eigenvalues --   -0.72169  -0.71333  -0.70596  -0.65153  -0.65042
 Alpha  occ. eigenvalues --   -0.64893  -0.62239  -0.60855  -0.59254  -0.57468
 Alpha  occ. eigenvalues --   -0.55396  -0.55157  -0.53328  -0.52982  -0.52499
 Alpha  occ. eigenvalues --   -0.52271  -0.49800  -0.48927  -0.48923  -0.47794
 Alpha  occ. eigenvalues --   -0.46569  -0.45720  -0.45587  -0.44822  -0.43657
 Alpha  occ. eigenvalues --   -0.37400  -0.36484
 Alpha virt. eigenvalues --    0.04888   0.11073   0.16352   0.21135   0.22875
 Alpha virt. eigenvalues --    0.24347   0.26411   0.27281   0.27459   0.27890
 Alpha virt. eigenvalues --    0.28484   0.30841   0.31505   0.31800   0.31972

 Mulliken charges:
               1
     1  C   -0.171389
     2  C   -0.216484
     3  C   -0.171434
     4  C    0.159649
     5  C   -0.176353
     6  C   -0.215190
     7  H    0.226653
     8  H    0.224374
     9  H    0.276192
    10  H    0.275585
    11  H    0.224309
    12  N    0.490813
    13  O   -0.457983
    14  O   -0.459847
    15  C   -0.298274
    16  C   -0.299371
    17  C   -0.474756
    18  H    0.149401
    19  H    0.144826
    20  H    0.153766
    21  H    0.150175
    22  H    0.150428
    23  H    0.155695
    24  H    0.160787
    25  C   -0.296069
    26  C   -0.309407
    27  C   -0.487723
    28  H    0.150476
    29  H    0.146473
    30  H    0.149072
    31  H    0.157681
    32  H    0.166316
    33  H    0.153545
    34  H    0.168065
 Sum of Mulliken charges =  -0.00000

 Dipole moment (field-independent basis, Debye):
    X=              2.3195    Y=              4.5235    Z=             -0.5029  Tot=              5.1083
 Quadrupole moment (field-independent basis, Debye-Ang):
   XX=           -106.0944   YY=            -91.4596   ZZ=            -90.3981
   XY=             -9.8843   XZ=              3.4533   YZ=              0.2677

 Normal termination of Gaussian 16 at Thu May  6 19:20:11 2021.
