 Gaussian 16, Revision A.03,
 Gaussian 16:  EM64L-G16RevA.03 25-Dec-2016

 -------------
 #p 6-31g* mp2
 -------------

 ------------------------------------------------------
 Input file generated by CHIRIPA (05-May-2021 14:57:23)
 ------------------------------------------------------
 Symbolic Z-matrix:
 Charge =  0 Multiplicity = 1

                         Standard orientation:
 ---------------------------------------------------------------------
 Center     Atomic      Atomic             Coordinates (Angstroms)
 Number     Number       Type             X           Y           Z
 ---------------------------------------------------------------------
      1          6           0       -4.412619    2.164377   -0.009041
      2          6           0       -4.667270    1.250341    1.018680
      3          6           0       -3.963618    0.044189    1.086647
      4          6           0       -3.007947   -0.216794    0.105897
      5          6           0       -2.731514    0.673653   -0.930433
      6          6           0       -3.447255    1.873629   -0.978608
      7          1           0       -4.963928    3.098946   -0.054152
      8          1           0       -5.416415    1.473486    1.773023
      9          1           0       -4.140715   -0.681278    1.871346
     10          1           0       -1.978741    0.423244   -1.668027
     11          1           0       -3.247389    2.581611   -1.777895
     12          7           0       -2.256623   -1.490424    0.167374
     13          8           0       -1.419732   -1.696738   -0.708802
     14          8           0       -2.518853   -2.258264    1.090572
     15          6           0        4.725483    1.625807    1.002010
     16          6           0        4.429721    0.406599    1.620540
     17          6           0        3.548121   -0.498052    1.021426
     18          6           0        2.977701   -0.149627   -0.201893
     19          6           0        3.252431    1.057320   -0.843058
     20          6           0        4.136932    1.946710   -0.225650
     21          1           0        5.411458    2.322633    1.474521
     22          1           0        4.885320    0.154727    2.573972
     23          1           0        3.301554   -1.448786    1.478293
     24          1           0        2.782705    1.280427   -1.793320
     25          1           0        4.364781    2.892843   -0.708313
     26          7           0        2.042855   -1.099263   -0.845831
     27          8           0        1.553451   -0.768684   -1.923717
     28          8           0        1.817228   -2.156184   -0.260470
 ---------------------------------------------------------------------

 SCF Done:  E(RHF) =  -868.335075777     A.U. after   16 cycles
 E2 =    -0.2601340824D+01 EUMP2 =    -0.87093641660072D+03

 The electronic state is 1-A.
 Alpha  occ. eigenvalues --  -20.59871 -20.59782 -20.59723 -20.59613 -15.84894
 Alpha  occ. eigenvalues --  -15.84723 -11.30684 -11.30480 -11.27332 -11.27261
 Alpha  occ. eigenvalues --  -11.27131 -11.27111 -11.27040 -11.26945 -11.26424
 Alpha  occ. eigenvalues --  -11.26377 -11.26226 -11.26194  -1.58871  -1.58751
 Alpha  occ. eigenvalues --   -1.38427  -1.38291  -1.18890  -1.18701  -1.08204
 Alpha  occ. eigenvalues --   -1.08030  -1.04355  -1.04155  -0.94976  -0.94781
 Alpha  occ. eigenvalues --   -0.85733  -0.85535  -0.81810  -0.81607  -0.76784
 Alpha  occ. eigenvalues --   -0.76589  -0.71105  -0.70990  -0.70304  -0.69998
 Alpha  occ. eigenvalues --   -0.69954  -0.69792  -0.64533  -0.64373  -0.64319
 Alpha  occ. eigenvalues --   -0.64162  -0.61699  -0.61484  -0.54837  -0.54658
 Alpha  occ. eigenvalues --   -0.52663  -0.52478  -0.52452  -0.52247  -0.47993
 Alpha  occ. eigenvalues --   -0.47892  -0.47638  -0.47547  -0.43756  -0.43561
 Alpha  occ. eigenvalues --   -0.36895  -0.36718  -0.35980  -0.35783
 Alpha virt. eigenvalues --    0.05688   0.05990   0.11668   0.11864   0.17152
 Alpha virt. eigenvalues --    0.17358   0.21749   0.21979   0.27636   0.27849
 Alpha virt. eigenvalues --    0.28646   0.28957   0.31232   0.31522   0.32890

 Mulliken charges:
               1
     1  C   -0.172200
     2  C   -0.218966
     3  C   -0.172046
     4  C    0.157279
     5  C   -0.174699
     6  C   -0.219395
     7  H    0.222367
     8  H    0.220583
     9  H    0.274195
    10  H    0.284534
    11  H    0.220912
    12  N    0.485115
    13  O   -0.442322
    14  O   -0.466153
    15  C   -0.172283
    16  C   -0.218518
    17  C   -0.171449
    18  C    0.159758
    19  C   -0.172821
    20  C   -0.218515
    21  H    0.223284
    22  H    0.222343
    23  H    0.277940
    24  H    0.272054
    25  H    0.220369
    26  N    0.488906
    27  O   -0.463813
    28  O   -0.446462
 Sum of Mulliken charges =  -0.00000

 Dipole moment (field-independent basis, Debye):
    X=              0.7471    Y=              7.4647    Z=              1.9353  Tot=              7.7476
 Quadrupole moment (field-independent basis, Debye-Ang):
   XX=            -71.0773   YY=           -106.5183   ZZ=           -100.2373
   XY=             -3.3794   XZ=              5.0780   YZ=             -4.3499

 Normal termination of Gaussian 16 at Thu May  6 01:50:12 2021.
