 Gaussian 16, Revision A.03,
 Gaussian 16:  EM64L-G16RevA.03 25-Dec-2016

 -------------
 #p 6-31g* mp2
 -------------

 ------------------------------------------------------
 Input file generated by CHIRIPA (05-May-2021 14:55:24)
 ------------------------------------------------------
 Symbolic Z-matrix:
 Charge =  0 Multiplicity = 1

                         Standard orientation:
 ---------------------------------------------------------------------
 Center     Atomic      Atomic             Coordinates (Angstroms)
 Number     Number       Type             X           Y           Z
 ---------------------------------------------------------------------
      1          6           0        1.644542    1.737258    1.452097
      2          6           0        1.996138    0.560675    2.121840
      3          6           0        2.663624   -0.467010    1.448880
      4          6           0        2.965325   -0.283745    0.100296
      5          6           0        2.628353    0.876788   -0.594617
      6          6           0        1.961213    1.891287    0.098393
      7          1           0        1.126157    2.530467    1.982656
      8          1           0        1.751484    0.438298    3.173131
      9          1           0        2.947582   -1.388227    1.942991
     10          1           0        2.885692    0.969737   -1.642737
     11          1           0        1.689392    2.803952   -0.424293
     12          7           0        3.671779   -1.364730   -0.622750
     13          8           0        3.926218   -1.178754   -1.810736
     14          8           0        3.957682   -2.377513    0.012204
     15          6           0       -3.069435    0.382666   -0.715732
     16          6           0       -2.564295    1.770642   -0.320334
     17          6           0       -1.409616    2.252064   -1.199393
     18          1           0       -2.238463   -0.333533   -0.656681
     19          1           0       -3.390813    0.402626   -1.766310
     20          1           0       -2.245256    1.748423    0.729588
     21          1           0       -3.396613    2.483584   -0.380151
     22          1           0       -1.719142    2.302664   -2.248313
     23          1           0       -0.561244    1.563327   -1.132270
     24          1           0       -1.064058    3.246245   -0.899303
     25          6           0       -4.223729   -0.112366    0.153910
     26          6           0       -4.728869   -1.500342   -0.241488
     27          6           0       -5.883548   -1.981764    0.637569
     28          1           0       -3.902352   -0.132327    1.204488
     29          1           0       -5.054702    0.603833    0.094857
     30          1           0       -3.896551   -2.213283   -0.181673
     31          1           0       -5.047908   -1.478123   -1.291411
     32          1           0       -6.731921   -1.293027    0.570447
     33          1           0       -5.574023   -2.032364    1.686491
     34          1           0       -6.229107   -2.975945    0.337480
 ---------------------------------------------------------------------

 SCF Done:  E(RHF) =  -669.534759756     A.U. after   15 cycles
 E2 =    -0.2092378777D+01 EUMP2 =    -0.67162713853304D+03

 The electronic state is 1-A.
 Alpha  occ. eigenvalues --  -20.60799 -20.60793 -15.85851 -11.31239 -11.27783
 Alpha  occ. eigenvalues --  -11.27769 -11.27518 -11.26827 -11.26775 -11.22134
 Alpha  occ. eigenvalues --  -11.21814 -11.21742 -11.21667 -11.21634 -11.21260
 Alpha  occ. eigenvalues --   -1.59874  -1.39426  -1.19407  -1.08816  -1.08763
 Alpha  occ. eigenvalues --   -1.04815  -1.03902  -0.96366  -0.95625  -0.87403
 Alpha  occ. eigenvalues --   -0.86189  -0.82458  -0.79981  -0.78578  -0.77501
 Alpha  occ. eigenvalues --   -0.72068  -0.71197  -0.70496  -0.65424  -0.65051
 Alpha  occ. eigenvalues --   -0.64806  -0.62171  -0.61293  -0.59750  -0.57970
 Alpha  occ. eigenvalues --   -0.55703  -0.55292  -0.53273  -0.53100  -0.52806
 Alpha  occ. eigenvalues --   -0.52703  -0.50255  -0.48828  -0.48823  -0.48290
 Alpha  occ. eigenvalues --   -0.46994  -0.46124  -0.46035  -0.44827  -0.44165
 Alpha  occ. eigenvalues --   -0.37363  -0.36346
 Alpha virt. eigenvalues --    0.05000   0.11227   0.16444   0.20750   0.22639
 Alpha virt. eigenvalues --    0.24040   0.26250   0.26308   0.27045   0.28137
 Alpha virt. eigenvalues --    0.28579   0.30039   0.31124   0.31510   0.31926

 Mulliken charges:
               1
     1  C   -0.171987
     2  C   -0.218458
     3  C   -0.171682
     4  C    0.159126
     5  C   -0.173719
     6  C   -0.216428
     7  H    0.226082
     8  H    0.223558
     9  H    0.275612
    10  H    0.276215
    11  H    0.228043
    12  N    0.488042
    13  O   -0.460065
    14  O   -0.460337
    15  C   -0.299358
    16  C   -0.297769
    17  C   -0.482770
    18  H    0.152672
    19  H    0.151254
    20  H    0.147182
    21  H    0.152735
    22  H    0.157785
    23  H    0.163571
    24  H    0.149468
    25  C   -0.298297
    26  C   -0.300206
    27  C   -0.475836
    28  H    0.147983
    29  H    0.149670
    30  H    0.153542
    31  H    0.153008
    32  H    0.155095
    33  H    0.154580
    34  H    0.161688
 Sum of Mulliken charges =  -0.00000

 Dipole moment (field-independent basis, Debye):
    X=             -2.5082    Y=              3.7409    Z=              2.5277  Tot=              5.1648
 Quadrupole moment (field-independent basis, Debye-Ang):
   XX=           -110.4603   YY=            -96.1764   ZZ=            -90.8218
   XY=             11.6133   XZ=              8.3979   YZ=             -2.9275

 Normal termination of Gaussian 16 at Thu May  6 06:20:49 2021.
