 Gaussian 16, Revision A.03,
 Gaussian 16:  EM64L-G16RevA.03 25-Dec-2016

 -------------
 #p 6-31g* mp2
 -------------

 ------------------------------------------------------
 Input file generated by CHIRIPA (05-May-2021 14:53:12)
 ------------------------------------------------------
 Symbolic Z-matrix:
 Charge =  0 Multiplicity = 1

                         Standard orientation:
 ---------------------------------------------------------------------
 Center     Atomic      Atomic             Coordinates (Angstroms)
 Number     Number       Type             X           Y           Z
 ---------------------------------------------------------------------
      1          6           0        5.139495    0.123908   -0.475962
      2          6           0        6.004364    0.986510    0.443769
      3          6           0        7.380359    1.288480   -0.150576
      4          1           0        5.664712   -0.817998   -0.685495
      5          1           0        5.018890    0.635845   -1.440726
      6          1           0        6.122154    0.473733    1.406993
      7          1           0        5.476943    1.926391    0.651291
      8          1           0        7.280652    1.821733   -1.101523
      9          1           0        7.929529    0.360821   -0.341527
     10          1           0        7.981982    1.906299    0.523375
     11          6           0        3.760884   -0.186505    0.104387
     12          6           0        2.896015   -1.049107   -0.815344
     13          6           0        1.520020   -1.351077   -0.221000
     14          1           0        3.881490   -0.698442    1.069151
     15          1           0        3.235667    0.755402    0.313920
     16          1           0        3.423436   -1.988988   -1.022867
     17          1           0        2.778225   -0.536330   -1.778569
     18          1           0        0.970851   -0.423418   -0.030049
     19          1           0        1.619728   -1.884330    0.729947
     20          1           0        0.918397   -1.968896   -0.894951
     21          6           0       -5.310172    1.459215   -0.827375
     22          6           0       -4.826229    0.360335   -1.544859
     23          6           0       -3.810581   -0.441590   -1.015782
     24          6           0       -3.299458   -0.114256    0.239166
     25          6           0       -3.760629    0.973941    0.978382
     26          6           0       -4.776767    1.761978    0.429739
     27          1           0       -6.099341    2.076776   -1.245975
     28          1           0       -5.238598    0.122830   -2.521378
     29          1           0       -3.417405   -1.298171   -1.549730
     30          1           0       -3.329754    1.185666    1.949432
     31          1           0       -5.150662    2.614768    0.989199
     32          7           0       -2.223978   -0.955867    0.809634
     33          8           0       -1.790399   -0.646350    1.917264
     34          8           0       -1.834959   -1.909102    0.138333
 ---------------------------------------------------------------------

 SCF Done:  E(RHF) =  -669.535654634     A.U. after   15 cycles
 E2 =    -0.2091418234D+01 EUMP2 =    -0.67162707286810D+03

 The electronic state is 1-A.
 Alpha  occ. eigenvalues --  -20.60850 -20.60832 -15.85869 -11.31245 -11.27812
 Alpha  occ. eigenvalues --  -11.27809 -11.27556 -11.26828 -11.26818 -11.21069
 Alpha  occ. eigenvalues --  -11.20727 -11.20646 -11.20536 -11.20476 -11.19459
 Alpha  occ. eigenvalues --   -1.59897  -1.39454  -1.19415  -1.08810  -1.07646
 Alpha  occ. eigenvalues --   -1.04818  -1.02658  -0.95649  -0.95064  -0.86218
 Alpha  occ. eigenvalues --   -0.86068  -0.82478  -0.78744  -0.77526  -0.77428
 Alpha  occ. eigenvalues --   -0.72093  -0.71213  -0.70524  -0.65070  -0.64821
 Alpha  occ. eigenvalues --   -0.64292  -0.62165  -0.60071  -0.58498  -0.56675
 Alpha  occ. eigenvalues --   -0.55321  -0.54373  -0.53151  -0.52911  -0.51736
 Alpha  occ. eigenvalues --   -0.51488  -0.49029  -0.48845  -0.48829  -0.47029
 Alpha  occ. eigenvalues --   -0.45819  -0.44964  -0.44904  -0.44838  -0.42841
 Alpha  occ. eigenvalues --   -0.37395  -0.36422
 Alpha virt. eigenvalues --    0.04983   0.11233   0.16463   0.21362   0.23575
 Alpha virt. eigenvalues --    0.25189   0.27278   0.27376   0.28173   0.28217
 Alpha virt. eigenvalues --    0.28958   0.30929   0.32202   0.32392   0.32482

 Mulliken charges:
               1
     1  C   -0.297305
     2  C   -0.298955
     3  C   -0.475204
     4  H    0.148550
     5  H    0.147074
     6  H    0.152033
     7  H    0.150728
     8  H    0.153849
     9  H    0.154653
    10  H    0.158624
    11  C   -0.297000
    12  C   -0.302677
    13  C   -0.467147
    14  H    0.150434
    15  H    0.147829
    16  H    0.148544
    17  H    0.145389
    18  H    0.148229
    19  H    0.160878
    20  H    0.167327
    21  C   -0.170744
    22  C   -0.218558
    23  C   -0.170753
    24  C    0.158562
    25  C   -0.171013
    26  C   -0.218569
    27  H    0.225783
    28  H    0.223624
    29  H    0.275570
    30  H    0.275777
    31  H    0.223631
    32  N    0.488552
    33  O   -0.459764
    34  O   -0.457950
 Sum of Mulliken charges =  -0.00000

 Dipole moment (field-independent basis, Debye):
    X=             -4.0813    Y=              2.8604    Z=             -1.9332  Tot=              5.3456
 Quadrupole moment (field-independent basis, Debye-Ang):
   XX=            -72.5219   YY=            -93.5153   ZZ=            -92.6379
   XY=            -10.3511   XZ=              6.7297   YZ=              3.3380

 Normal termination of Gaussian 16 at Thu May  6 13:38:13 2021.
