 Gaussian 16, Revision A.03,
 Gaussian 16:  EM64L-G16RevA.03 25-Dec-2016

 -------------
 #p 6-31g* mp2
 -------------

 ------------------------------------------------------
 Input file generated by CHIRIPA (05-May-2021 14:57:26)
 ------------------------------------------------------
 Symbolic Z-matrix:
 Charge =  0 Multiplicity = 1

                         Standard orientation:
 ---------------------------------------------------------------------
 Center     Atomic      Atomic             Coordinates (Angstroms)
 Number     Number       Type             X           Y           Z
 ---------------------------------------------------------------------
      1          6           0        3.245274   -2.228270    0.892497
      2          6           0        2.323603   -1.213746    1.171396
      3          6           0        2.557586    0.095878    0.741647
      4          6           0        3.728863    0.356740    0.032174
      5          6           0        4.666297   -0.632395   -0.261285
      6          6           0        4.411624   -1.934874    0.178306
      7          1           0        3.055474   -3.242842    1.230159
      8          1           0        1.416949   -1.438692    1.725853
      9          1           0        1.860957    0.900400    0.943810
     10          1           0        5.561116   -0.377502   -0.816035
     11          1           0        5.129177   -2.720763   -0.039733
     12          7           0        3.987522    1.739398   -0.427992
     13          8           0        5.027000    1.943336   -1.051316
     14          8           0        3.145885    2.593006   -0.156632
     15          6           0       -5.720802    1.225755    0.517657
     16          6           0       -4.550504    1.329065    1.276768
     17          6           0       -3.417175    0.583240    0.939335
     18          6           0       -3.489538   -0.259820   -0.168502
     19          6           0       -4.640842   -0.384521   -0.944543
     20          6           0       -5.762163    0.370799   -0.588625
     21          1           0       -6.596535    1.808818    0.786962
     22          1           0       -4.515501    1.992225    2.136442
     23          1           0       -2.498205    0.644008    1.509614
     24          1           0       -4.645373   -1.054123   -1.796031
     25          1           0       -6.669673    0.288554   -1.179985
     26          7           0       -2.296090   -1.054418   -0.535512
     27          8           0       -2.385474   -1.789953   -1.516143
     28          8           0       -1.293880   -0.926644    0.164406
 ---------------------------------------------------------------------

 SCF Done:  E(RHF) =  -868.339440245     A.U. after   16 cycles
 E2 =    -0.2598590723D+01 EUMP2 =    -0.87093803096772D+03

 The electronic state is 1-A.
 Alpha  occ. eigenvalues --  -20.61386 -20.61330 -20.60022 -20.60017 -15.86408
 Alpha  occ. eigenvalues --  -15.85065 -11.31576 -11.30202 -11.28145 -11.28104
 Alpha  occ. eigenvalues --  -11.27816 -11.27092 -11.27077 -11.26771 -11.26668
 Alpha  occ. eigenvalues --  -11.26416 -11.25780 -11.25572  -1.60421  -1.59099
 Alpha  occ. eigenvalues --   -1.39986  -1.38660  -1.19726  -1.18336  -1.09154
 Alpha  occ. eigenvalues --   -1.07780  -1.05103  -1.03688  -0.96026  -0.94659
 Alpha  occ. eigenvalues --   -0.86511  -0.85110  -0.82875  -0.81487  -0.77945
 Alpha  occ. eigenvalues --   -0.76564  -0.72646  -0.71726  -0.71295  -0.70837
 Alpha  occ. eigenvalues --   -0.70414  -0.69468  -0.65388  -0.65104  -0.63988
 Alpha  occ. eigenvalues --   -0.63684  -0.62459  -0.61043  -0.55605  -0.54229
 Alpha  occ. eigenvalues --   -0.53436  -0.53196  -0.52040  -0.51780  -0.49396
 Alpha  occ. eigenvalues --   -0.49353  -0.48058  -0.48027  -0.45434  -0.44116
 Alpha  occ. eigenvalues --   -0.37688  -0.36695  -0.36312  -0.35253
 Alpha virt. eigenvalues --    0.04584   0.05943   0.10962   0.12384   0.16119
 Alpha virt. eigenvalues --    0.17497   0.21042   0.22444   0.26940   0.27572
 Alpha virt. eigenvalues --    0.28668   0.29256   0.30789   0.31941   0.32324

 Mulliken charges:
               1
     1  C   -0.171521
     2  C   -0.209078
     3  C   -0.168265
     4  C    0.157409
     5  C   -0.172923
     6  C   -0.218451
     7  H    0.223792
     8  H    0.232102
     9  H    0.272567
    10  H    0.271933
    11  H    0.219775
    12  N    0.488423
    13  O   -0.463340
    14  O   -0.463572
    15  C   -0.170013
    16  C   -0.218000
    17  C   -0.169546
    18  C    0.158604
    19  C   -0.170331
    20  C   -0.218315
    21  H    0.227375
    22  H    0.225022
    23  H    0.271553
    24  H    0.276325
    25  H    0.224960
    26  N    0.491886
    27  O   -0.456431
    28  O   -0.471937
 Sum of Mulliken charges =  -0.00000

 Dipole moment (field-independent basis, Debye):
    X=             -5.5777    Y=             -2.1478    Z=              2.9199  Tot=              6.6520
 Quadrupole moment (field-independent basis, Debye-Ang):
   XX=            -78.3105   YY=           -109.8883   ZZ=           -102.2885
   XY=            -28.1621   XZ=              2.5741   YZ=              2.1904

 Normal termination of Gaussian 16 at Thu May  6 21:20:12 2021.
