 Gaussian 16, Revision A.03,
 Gaussian 16:  EM64L-G16RevA.03 25-Dec-2016

 -------------
 #p 6-31g* mp2
 -------------

 ------------------------------------------------------
 Input file generated by CHIRIPA (05-May-2021 14:57:24)
 ------------------------------------------------------
 Symbolic Z-matrix:
 Charge =  0 Multiplicity = 1

                         Standard orientation:
 ---------------------------------------------------------------------
 Center     Atomic      Atomic             Coordinates (Angstroms)
 Number     Number       Type             X           Y           Z
 ---------------------------------------------------------------------
      1          6           0        5.124437    1.028864    0.674202
      2          6           0        5.151761   -0.268948    0.153187
      3          6           0        3.995492   -0.843109   -0.383406
      4          6           0        2.823936   -0.087632   -0.382880
      5          6           0        2.764801    1.207734    0.128805
      6          6           0        3.933145    1.761771    0.660372
      7          1           0        6.027344    1.467070    1.089088
      8          1           0        6.075513   -0.840470    0.162604
      9          1           0        3.988488   -1.845783   -0.793301
     10          1           0        1.828991    1.752834    0.105476
     11          1           0        3.908973    2.769885    1.064313
     12          7           0        1.593455   -0.684818   -0.948286
     13          8           0        0.573948    0.001544   -0.936052
     14          8           0        1.671810   -1.827948   -1.392980
     15          6           0       -4.046193    2.120030   -0.597001
     16          6           0       -4.632884    0.885997   -0.896133
     17          6           0       -4.076634   -0.301029   -0.410230
     18          6           0       -2.928176   -0.216791    0.375416
     19          6           0       -2.320343    0.997430    0.690844
     20          6           0       -2.893827    2.171716    0.194138
     21          1           0       -4.484996    3.037191   -0.978659
     22          1           0       -5.527857    0.842829   -1.510303
     23          1           0       -4.510273   -1.269853   -0.626459
     24          1           0       -1.428508    1.008555    1.305599
     25          1           0       -2.436040    3.128669    0.428056
     26          7           0       -2.330177   -1.466699    0.895538
     27          8           0       -1.318117   -1.365547    1.585567
     28          8           0       -2.884849   -2.523862    0.603333
 ---------------------------------------------------------------------

 SCF Done:  E(RHF) =  -868.337853155     A.U. after   16 cycles
 E2 =    -0.2600787842D+01 EUMP2 =    -0.87093864099636D+03

 The electronic state is 1-A.
 Alpha  occ. eigenvalues --  -20.60538 -20.60498 -20.59622 -20.59617 -15.85563
 Alpha  occ. eigenvalues --  -15.84684 -11.31011 -11.30082 -11.27652 -11.27549
 Alpha  occ. eigenvalues --  -11.27349 -11.26732 -11.26727 -11.26665 -11.26601
 Alpha  occ. eigenvalues --  -11.26564 -11.25807 -11.25784  -1.59558  -1.58667
 Alpha  occ. eigenvalues --   -1.39125  -1.38233  -1.19186  -1.18298  -1.08564
 Alpha  occ. eigenvalues --   -1.07697  -1.04616  -1.03753  -0.95395  -0.94528
 Alpha  occ. eigenvalues --   -0.86010  -0.85154  -0.82241  -0.81394  -0.77278
 Alpha  occ. eigenvalues --   -0.76402  -0.71830  -0.70986  -0.70831  -0.70316
 Alpha  occ. eigenvalues --   -0.69893  -0.69479  -0.64854  -0.64633  -0.63995
 Alpha  occ. eigenvalues --   -0.63811  -0.61979  -0.61126  -0.55117  -0.54310
 Alpha  occ. eigenvalues --   -0.52919  -0.52724  -0.52022  -0.51894  -0.48580
 Alpha  occ. eigenvalues --   -0.48529  -0.47685  -0.47667  -0.44582  -0.43553
 Alpha  occ. eigenvalues --   -0.37157  -0.36277  -0.36217  -0.35319
 Alpha virt. eigenvalues --    0.05278   0.06201   0.11432   0.12328   0.16768
 Alpha virt. eigenvalues --    0.17634   0.21267   0.22246   0.26715   0.27815
 Alpha virt. eigenvalues --    0.28540   0.29289   0.31005   0.31719   0.32435

 Mulliken charges:
               1
     1  C   -0.170924
     2  C   -0.218180
     3  C   -0.169542
     4  C    0.162411
     5  C   -0.169455
     6  C   -0.217975
     7  H    0.224878
     8  H    0.223625
     9  H    0.277250
    10  H    0.268007
    11  H    0.220871
    12  N    0.494595
    13  O   -0.469618
    14  O   -0.454628
    15  C   -0.170628
    16  C   -0.219203
    17  C   -0.169715
    18  C    0.165742
    19  C   -0.153326
    20  C   -0.220070
    21  H    0.220812
    22  H    0.219587
    23  H    0.273785
    24  H    0.270029
    25  H    0.215333
    26  N    0.492619
    27  O   -0.463513
    28  O   -0.462766
 Sum of Mulliken charges =  -0.00000

 Dipole moment (field-independent basis, Debye):
    X=              2.4617    Y=              6.2227    Z=              0.0982  Tot=              6.6927
 Quadrupole moment (field-independent basis, Debye-Ang):
   XX=            -65.7020   YY=           -103.2636   ZZ=           -108.1947
   XY=             -7.0947   XZ=             10.0499   YZ=              3.6286

 Normal termination of Gaussian 16 at Thu May  6 22:46:27 2021.
