 Gaussian 16, Revision A.03,
 Gaussian 16:  EM64L-G16RevA.03 25-Dec-2016

 -------------
 #p 6-31g* mp2
 -------------

 ------------------------------------------------------
 Input file generated by CHIRIPA (05-May-2021 14:51:13)
 ------------------------------------------------------
 Symbolic Z-matrix:
 Charge =  0 Multiplicity = 1

                         Standard orientation:
 ---------------------------------------------------------------------
 Center     Atomic      Atomic             Coordinates (Angstroms)
 Number     Number       Type             X           Y           Z
 ---------------------------------------------------------------------
      1          6           0       -2.115130   -1.381090   -0.252014
      2          6           0       -0.993651   -1.729102    0.727352
      3          6           0        0.013338   -2.721186    0.144654
      4          1           0       -2.635007   -2.302912   -0.546831
      5          1           0       -1.675685   -0.963331   -1.168398
      6          1           0       -1.435162   -2.144798    1.642164
      7          1           0       -0.476506   -0.806323    1.020020
      8          1           0        0.480846   -2.311141   -0.756402
      9          1           0       -0.483257   -3.657221   -0.130723
     10          1           0        0.806370   -2.955992    0.861470
     11          6           0       -3.129746   -0.390344    0.316055
     12          6           0       -4.251225   -0.042331   -0.663312
     13          6           0       -5.258214    0.949752   -0.080613
     14          1           0       -3.569191   -0.808103    1.232439
     15          1           0       -2.609869    0.531478    0.610872
     16          1           0       -4.768370   -0.965111   -0.955980
     17          1           0       -3.809714    0.373364   -1.578124
     18          1           0       -4.761619    1.885787    0.194763
     19          1           0       -5.725722    0.539707    0.820442
     20          1           0       -6.051246    1.184558   -0.797430
     21          6           0        3.092893    0.434571   -0.430231
     22          6           0        3.546566   -0.803002    0.344740
     23          6           0        4.487297   -1.695686   -0.465159
     24          1           0        2.593154    0.117071   -1.355650
     25          1           0        3.976583    1.012363   -0.734603
     26          1           0        2.662218   -1.377564    0.648753
     27          1           0        4.045113   -0.482523    1.268514
     28          1           0        5.386739   -1.143547   -0.756273
     29          1           0        3.995986   -2.043673   -1.379556
     30          1           0        4.799247   -2.574441    0.107848
     31          6           0        2.151983    1.336863    0.366190
     32          6           0        1.698310    2.574436   -0.408780
     33          6           0        0.757580    3.467120    0.401119
     34          1           0        1.268293    0.759071    0.670563
     35          1           0        2.651722    1.654363    1.291609
     36          1           0        1.199764    2.253956   -1.332554
     37          1           0        2.582658    3.148997   -0.712794
     38          1           0        1.248890    3.815108    1.315515
     39          1           0       -0.141863    2.914981    0.692232
     40          1           0        0.445629    4.345875   -0.171888
 ---------------------------------------------------------------------

 SCF Done:  E(RHF) =  -470.732617798     A.U. after   11 cycles
 E2 =    -0.1584566182D+01 EUMP2 =    -0.47231718397991D+03

 The electronic state is 1-A.
 Alpha  occ. eigenvalues --  -11.21684 -11.21645 -11.21637 -11.21494 -11.21479
 Alpha  occ. eigenvalues --  -11.21418 -11.21402 -11.21341 -11.21168 -11.21125
 Alpha  occ. eigenvalues --  -11.21096 -11.21023  -1.08518  -1.08414  -1.03612
 Alpha  occ. eigenvalues --   -1.03512  -0.96054  -0.95978  -0.87092  -0.86973
 Alpha  occ. eigenvalues --   -0.79713  -0.79542  -0.78353  -0.78212  -0.65379
 Alpha  occ. eigenvalues --   -0.64869  -0.61079  -0.60864  -0.59461  -0.59301
 Alpha  occ. eigenvalues --   -0.57665  -0.57587  -0.55354  -0.55260  -0.52770
 Alpha  occ. eigenvalues --   -0.52659  -0.52500  -0.52382  -0.50146  -0.49788
 Alpha  occ. eigenvalues --   -0.48054  -0.47850  -0.46871  -0.46479  -0.46044
 Alpha  occ. eigenvalues --   -0.45823  -0.45749  -0.45347  -0.43837  -0.43770
 Alpha virt. eigenvalues --    0.19413   0.22237   0.24047   0.24367   0.25791
 Alpha virt. eigenvalues --    0.26255   0.27412   0.27541   0.27910   0.29921
 Alpha virt. eigenvalues --    0.30410   0.31447   0.31687   0.31828   0.32375

 Mulliken charges:
               1
     1  C   -0.298091
     2  C   -0.308274
     3  C   -0.479114
     4  H    0.150216
     5  H    0.149260
     6  H    0.152988
     7  H    0.158486
     8  H    0.155944
     9  H    0.156573
    10  H    0.162243
    11  C   -0.298912
    12  C   -0.299700
    13  C   -0.475828
    14  H    0.149985
    15  H    0.149490
    16  H    0.152105
    17  H    0.152028
    18  H    0.155493
    19  H    0.155267
    20  H    0.160427
    21  C   -0.297477
    22  C   -0.307940
    23  C   -0.475306
    24  H    0.148658
    25  H    0.149573
    26  H    0.162128
    27  H    0.151088
    28  H    0.154869
    29  H    0.155028
    30  H    0.159911
    31  C   -0.307354
    32  C   -0.299052
    33  C   -0.476170
    34  H    0.157392
    35  H    0.149937
    36  H    0.151312
    37  H    0.152328
    38  H    0.155661
    39  H    0.154345
    40  H    0.160483
 Sum of Mulliken charges =  -0.00000

 Dipole moment (field-independent basis, Debye):
    X=             -0.0351    Y=             -0.0312    Z=              0.0148  Tot=              0.0493
 Quadrupole moment (field-independent basis, Debye-Ang):
   XX=            -85.0199   YY=            -84.8853   ZZ=            -84.8245
   XY=              1.9710   XZ=              0.6493   YZ=             -0.6557

 Normal termination of Gaussian 16 at Wed May  5 16:50:09 2021.
