 Gaussian 16, Revision A.03,
 Gaussian 16:  EM64L-G16RevA.03 25-Dec-2016

 -------------
 #p 6-31g* mp2
 -------------

 ------------------------------------------------------
 Input file generated by CHIRIPA (05-May-2021 14:57:27)
 ------------------------------------------------------
 Symbolic Z-matrix:
 Charge =  0 Multiplicity = 1

                         Standard orientation:
 ---------------------------------------------------------------------
 Center     Atomic      Atomic             Coordinates (Angstroms)
 Number     Number       Type             X           Y           Z
 ---------------------------------------------------------------------
      1          6           0       -3.949909    1.603514   -0.920356
      2          6           0       -2.875131    1.139430   -1.685863
      3          6           0       -2.095776    0.068036   -1.239469
      4          6           0       -2.420857   -0.518475   -0.017333
      5          6           0       -3.485321   -0.078886    0.768141
      6          6           0       -4.251042    0.993950    0.302047
      7          1           0       -4.550035    2.436359   -1.274778
      8          1           0       -2.638950    1.610901   -2.635589
      9          1           0       -1.258104   -0.311350   -1.811998
     10          1           0       -3.696341   -0.569155    1.710757
     11          1           0       -5.085140    1.352256    0.898657
     12          7           0       -1.603005   -1.653475    0.465672
     13          8           0       -1.910017   -2.153068    1.545852
     14          8           0       -0.670448   -2.022004   -0.245074
     15          6           0        2.105570    2.561364    1.188117
     16          6           0        1.842963    1.376250    1.883144
     17          6           0        2.088506    0.135054    1.288425
     18          6           0        2.599161    0.115830   -0.008553
     19          6           0        2.871136    1.279159   -0.726874
     20          6           0        2.617915    2.509129   -0.112382
     21          1           0        1.911843    3.521195    1.657790
     22          1           0        1.445052    1.413781    2.893244
     23          1           0        1.894324   -0.797802    1.803684
     24          1           0        3.267608    1.209762   -1.732564
     25          1           0        2.822814    3.427893   -0.654539
     26          7           0        2.863171   -1.192225   -0.648622
     27          8           0        3.313217   -1.182158   -1.792299
     28          8           0        2.615057   -2.202779    0.005486
 ---------------------------------------------------------------------

 SCF Done:  E(RHF) =  -868.336808180     A.U. after   16 cycles
 E2 =    -0.2601475178D+01 EUMP2 =    -0.87093828335816D+03

 The electronic state is 1-A.
 Alpha  occ. eigenvalues --  -20.60739 -20.60678 -20.59956 -20.59797 -15.85751
 Alpha  occ. eigenvalues --  -15.84929 -11.31234 -11.30638 -11.27838 -11.27795
 Alpha  occ. eigenvalues --  -11.27594 -11.27311 -11.27158 -11.27101 -11.26874
 Alpha  occ. eigenvalues --  -11.26846 -11.26405 -11.26319  -1.59787  -1.58933
 Alpha  occ. eigenvalues --   -1.39336  -1.38476  -1.19423  -1.18855  -1.08799
 Alpha  occ. eigenvalues --   -1.08190  -1.04841  -1.04308  -0.95609  -0.94964
 Alpha  occ. eigenvalues --   -0.86235  -0.85683  -0.82438  -0.81795  -0.77473
 Alpha  occ. eigenvalues --   -0.76771  -0.71981  -0.71188  -0.71124  -0.70536
 Alpha  occ. eigenvalues --   -0.70184  -0.69958  -0.65070  -0.64844  -0.64498
 Alpha  occ. eigenvalues --   -0.64315  -0.62184  -0.61632  -0.55344  -0.54817
 Alpha  occ. eigenvalues --   -0.53172  -0.52935  -0.52631  -0.52396  -0.48742
 Alpha  occ. eigenvalues --   -0.48707  -0.47957  -0.47881  -0.44783  -0.43707
 Alpha  occ. eigenvalues --   -0.37419  -0.36865  -0.36450  -0.35939
 Alpha virt. eigenvalues --    0.05047   0.05779   0.11197   0.11707   0.16506
 Alpha virt. eigenvalues --    0.17200   0.21324   0.21812   0.27228   0.27705
 Alpha virt. eigenvalues --    0.28206   0.28767   0.30818   0.31341   0.32438

 Mulliken charges:
               1
     1  C   -0.171569
     2  C   -0.218933
     3  C   -0.170560
     4  C    0.158212
     5  C   -0.172351
     6  C   -0.218999
     7  H    0.224867
     8  H    0.223429
     9  H    0.278147
    10  H    0.274757
    11  H    0.222625
    12  N    0.486069
    13  O   -0.463321
    14  O   -0.452077
    15  C   -0.172195
    16  C   -0.220857
    17  C   -0.171766
    18  C    0.160648
    19  C   -0.174889
    20  C   -0.219791
    21  H    0.222129
    22  H    0.222843
    23  H    0.285167
    24  H    0.273072
    25  H    0.219537
    26  N    0.489187
    27  O   -0.469191
    28  O   -0.444190
 Sum of Mulliken charges =  -0.00000

 Dipole moment (field-independent basis, Debye):
    X=             -3.8339    Y=              8.2386    Z=              0.5882  Tot=              9.1060
 Quadrupole moment (field-independent basis, Debye-Ang):
   XX=            -95.5061   YY=           -108.0384   ZZ=            -98.6936
   XY=              4.0207   XZ=              6.3198   YZ=             -1.5826

 Normal termination of Gaussian 16 at Thu May  6 22:57:19 2021.
