 Gaussian 16, Revision A.03,
 Gaussian 16:  EM64L-G16RevA.03 25-Dec-2016

 -------------
 #p 6-31g* mp2
 -------------

 ------------------------------------------------------
 Input file generated by CHIRIPA (05-May-2021 14:55:24)
 ------------------------------------------------------
 Symbolic Z-matrix:
 Charge =  0 Multiplicity = 1

                         Standard orientation:
 ---------------------------------------------------------------------
 Center     Atomic      Atomic             Coordinates (Angstroms)
 Number     Number       Type             X           Y           Z
 ---------------------------------------------------------------------
      1          6           0       -3.562624    2.612496   -0.016918
      2          6           0       -3.429670    1.902020   -1.214444
      3          6           0       -3.077372    0.549142   -1.202005
      4          6           0       -2.864479   -0.064544    0.031428
      5          6           0       -2.989180    0.616269    1.241483
      6          6           0       -3.342343    1.968488    1.205069
      7          1           0       -3.836634    3.663188   -0.035893
      8          1           0       -3.600135    2.399579   -2.164929
      9          1           0       -2.967590   -0.024755   -2.114150
     10          1           0       -2.812840    0.093034    2.173441
     11          1           0       -3.444879    2.517752    2.136649
     12          7           0       -2.491059   -1.496427    0.057286
     13          8           0       -2.308914   -2.014085    1.157055
     14          8           0       -2.387588   -2.073967   -1.022704
     15          6           0        4.396194    0.054160    0.256637
     16          6           0        4.847800    1.363202   -0.391780
     17          6           0        6.151389    1.898032    0.201858
     18          1           0        4.271569    0.211303    1.336786
     19          1           0        5.189058   -0.697541    0.139564
     20          1           0        4.053753    2.111804   -0.274730
     21          1           0        4.971178    1.202973   -1.470539
     22          1           0        6.960362    1.171910    0.071815
     23          1           0        6.037724    2.085905    1.274418
     24          1           0        6.455822    2.834333   -0.276182
     25          6           0        3.094427   -0.493064   -0.326181
     26          6           0        2.642821   -1.802107    0.322235
     27          6           0        1.339231   -2.336937   -0.271402
     28          1           0        2.301562    0.258637   -0.209108
     29          1           0        3.219051   -0.650208   -1.406330
     30          1           0        2.519443   -1.641878    1.400994
     31          1           0        3.436867   -2.550709    0.205186
     32          1           0        1.452896   -2.524810   -1.343963
     33          1           0        0.530258   -1.610815   -0.141360
     34          1           0        1.034798   -3.273237    0.206637
 ---------------------------------------------------------------------

 SCF Done:  E(RHF) =  -669.535504100     A.U. after   15 cycles
 E2 =    -0.2091303817D+01 EUMP2 =    -0.67162680791699D+03

 The electronic state is 1-A.
 Alpha  occ. eigenvalues --  -20.60808 -20.60798 -15.85838 -11.31231 -11.27803
 Alpha  occ. eigenvalues --  -11.27797 -11.27547 -11.26819 -11.26808 -11.21407
 Alpha  occ. eigenvalues --  -11.21065 -11.20936 -11.20932 -11.20863 -11.19998
 Alpha  occ. eigenvalues --   -1.59874  -1.39425  -1.19405  -1.08798  -1.08011
 Alpha  occ. eigenvalues --   -1.04808  -1.03030  -0.95631  -0.95451  -0.86461
 Alpha  occ. eigenvalues --   -0.86206  -0.82460  -0.79112  -0.77809  -0.77505
 Alpha  occ. eigenvalues --   -0.72063  -0.71217  -0.70511  -0.65056  -0.64810
 Alpha  occ. eigenvalues --   -0.64651  -0.62154  -0.60432  -0.58861  -0.57058
 Alpha  occ. eigenvalues --   -0.55310  -0.54750  -0.53141  -0.52900  -0.52100
 Alpha  occ. eigenvalues --   -0.51879  -0.49429  -0.48820  -0.48809  -0.47414
 Alpha  occ. eigenvalues --   -0.46171  -0.45346  -0.45273  -0.44807  -0.43273
 Alpha  occ. eigenvalues --   -0.37389  -0.36412
 Alpha virt. eigenvalues --    0.05014   0.11242   0.16490   0.21379   0.23227
 Alpha virt. eigenvalues --    0.24790   0.26986   0.27291   0.27828   0.28160
 Alpha virt. eigenvalues --    0.28537   0.30848   0.31790   0.32172   0.32508

 Mulliken charges:
               1
     1  C   -0.170737
     2  C   -0.218580
     3  C   -0.170793
     4  C    0.156663
     5  C   -0.171235
     6  C   -0.218636
     7  H    0.225776
     8  H    0.223695
     9  H    0.276068
    10  H    0.275741
    11  H    0.223564
    12  N    0.487484
    13  O   -0.459332
    14  O   -0.458026
    15  C   -0.297630
    16  C   -0.298972
    17  C   -0.475357
    18  H    0.148643
    19  H    0.149579
    20  H    0.149706
    21  H    0.151516
    22  H    0.155492
    23  H    0.154511
    24  H    0.158740
    25  C   -0.297188
    26  C   -0.301685
    27  C   -0.467321
    28  H    0.146064
    29  H    0.148783
    30  H    0.150761
    31  H    0.149855
    32  H    0.153396
    33  H    0.149799
    34  H    0.169655
 Sum of Mulliken charges =  -0.00000

 Dipole moment (field-independent basis, Debye):
    X=             -1.4699    Y=              4.9324    Z=             -0.0991  Tot=              5.1478
 Quadrupole moment (field-independent basis, Debye-Ang):
   XX=            -89.2116   YY=            -95.7111   ZZ=            -89.3845
   XY=            -15.5390   XZ=             -0.2156   YZ=              0.5383

 Normal termination of Gaussian 16 at Wed May  5 22:23:52 2021.
