 Gaussian 16, Revision A.03,
 Gaussian 16:  EM64L-G16RevA.03 25-Dec-2016

 -------------
 #p 6-31g* mp2
 -------------

 ------------------------------------------------------
 Input file generated by CHIRIPA (05-May-2021 14:57:23)
 ------------------------------------------------------
 Symbolic Z-matrix:
 Charge =  0 Multiplicity = 1

                         Standard orientation:
 ---------------------------------------------------------------------
 Center     Atomic      Atomic             Coordinates (Angstroms)
 Number     Number       Type             X           Y           Z
 ---------------------------------------------------------------------
      1          6           0        3.910604    2.467185    0.157671
      2          6           0        4.755597    1.637636   -0.586880
      3          6           0        4.453377    0.282961   -0.754413
      4          6           0        3.292795   -0.211082   -0.160898
      5          6           0        2.430958    0.589968    0.586663
      6          6           0        2.753022    1.941630    0.741037
      7          1           0        4.153084    3.518359    0.282703
      8          1           0        5.655262    2.043053   -1.041067
      9          1           0        5.089940   -0.381705   -1.325748
     10          1           0        1.541198    0.157000    1.027439
     11          1           0        2.094944    2.583515    1.319796
     12          7           0        2.962343   -1.643621   -0.331293
     13          8           0        1.933900   -2.054535    0.201709
     14          8           0        3.738036   -2.328406   -0.994623
     15          6           0       -1.492696   -1.182892    1.392121
     16          6           0       -2.423297   -1.935473    0.668159
     17          6           0       -3.455005   -1.304553   -0.033316
     18          6           0       -3.526549    0.086921    0.011070
     19          6           0       -2.614611    0.864370    0.723272
     20          6           0       -1.591148    0.212168    1.417323
     21          1           0       -0.694443   -1.681271    1.934161
     22          1           0       -2.349292   -3.019038    0.646805
     23          1           0       -4.188896   -1.862795   -0.601813
     24          1           0       -2.714254    1.943019    0.725772
     25          1           0       -0.869841    0.799190    1.978721
     26          7           0       -4.614407    0.766112   -0.727621
     27          8           0       -4.655594    1.993271   -0.672656
     28          8           0       -5.405285    0.058443   -1.347584
 ---------------------------------------------------------------------

 SCF Done:  E(RHF) =  -868.338289288     A.U. after   16 cycles
 E2 =    -0.2600380559D+01 EUMP2 =    -0.87093866984666D+03

 The electronic state is 1-A.
 Alpha  occ. eigenvalues --  -20.61568 -20.61524 -20.60653 -20.60637 -15.86596
 Alpha  occ. eigenvalues --  -15.85705 -11.31847 -11.31006 -11.28470 -11.28364
 Alpha  occ. eigenvalues --  -11.28102 -11.27704 -11.27552 -11.27438 -11.27344
 Alpha  occ. eigenvalues --  -11.27234 -11.26721 -11.26425  -1.60610  -1.59726
 Alpha  occ. eigenvalues --   -1.40173  -1.39282  -1.20007  -1.19190  -1.09413
 Alpha  occ. eigenvalues --   -1.08567  -1.05410  -1.04609  -0.96277  -0.95406
 Alpha  occ. eigenvalues --   -0.86811  -0.86003  -0.83131  -0.82258  -0.78203
 Alpha  occ. eigenvalues --   -0.77343  -0.72841  -0.71925  -0.71917  -0.71123
 Alpha  occ. eigenvalues --   -0.71050  -0.70205  -0.65671  -0.65440  -0.64841
 Alpha  occ. eigenvalues --   -0.64645  -0.62780  -0.61950  -0.55889  -0.54991
 Alpha  occ. eigenvalues --   -0.53720  -0.53537  -0.52874  -0.52702  -0.49585
 Alpha  occ. eigenvalues --   -0.49551  -0.48681  -0.48675  -0.45601  -0.44703
 Alpha  occ. eigenvalues --   -0.37958  -0.37117  -0.36974  -0.36211
 Alpha virt. eigenvalues --    0.04355   0.05233   0.10630   0.11305   0.15865
 Alpha virt. eigenvalues --    0.16747   0.19078   0.22240   0.25318   0.26995
 Alpha virt. eigenvalues --    0.27989   0.29276   0.30540   0.31649   0.32234

 Mulliken charges:
               1
     1  C   -0.169438
     2  C   -0.218463
     3  C   -0.169291
     4  C    0.158029
     5  C   -0.170739
     6  C   -0.219450
     7  H    0.228307
     8  H    0.226172
     9  H    0.277361
    10  H    0.270615
    11  H    0.220703
    12  N    0.490458
    13  O   -0.470168
    14  O   -0.455928
    15  C   -0.162206
    16  C   -0.218278
    17  C   -0.169950
    18  C    0.157247
    19  C   -0.170403
    20  C   -0.225476
    21  H    0.237632
    22  H    0.229104
    23  H    0.276187
    24  H    0.272237
    25  H    0.210118
    26  N    0.488346
    27  O   -0.462901
    28  O   -0.459826
 Sum of Mulliken charges =  -0.00000

 Dipole moment (field-independent basis, Debye):
    X=              5.1967    Y=              2.4463    Z=              3.0704  Tot=              6.5129
 Quadrupole moment (field-independent basis, Debye-Ang):
   XX=           -120.1891   YY=           -103.5734   ZZ=           -104.4064
   XY=             27.3056   XZ=             -9.7019   YZ=              1.0259

 Normal termination of Gaussian 16 at Wed May  5 17:52:29 2021.
