 Gaussian 16, Revision A.03,
 Gaussian 16:  EM64L-G16RevA.03 25-Dec-2016

 -------------
 #p 6-31g* mp2
 -------------

 ------------------------------------------------------
 Input file generated by CHIRIPA (05-May-2021 14:51:11)
 ------------------------------------------------------
 Symbolic Z-matrix:
 Charge =  0 Multiplicity = 1

                         Standard orientation:
 ---------------------------------------------------------------------
 Center     Atomic      Atomic             Coordinates (Angstroms)
 Number     Number       Type             X           Y           Z
 ---------------------------------------------------------------------
      1          6           0        2.762375   -0.054636    0.323215
      2          6           0        2.035770   -1.271509    0.897017
      3          6           0        0.547658   -1.013447    1.135178
      4          1           0        2.641301    0.794265    1.009987
      5          1           0        2.284045    0.237295   -0.621968
      6          1           0        2.516196   -1.561903    1.840139
      7          1           0        2.158750   -2.117663    0.208893
      8          1           0        0.048395   -0.745451    0.198421
      9          1           0        0.407872   -0.186533    1.838935
     10          1           0        0.047729   -1.896363    1.545532
     11          6           0        4.250875   -0.297059    0.079641
     12          6           0        4.977480    0.919814   -0.494161
     13          6           0        6.465592    0.661753   -0.732322
     14          1           0        4.729206   -0.588990    1.024824
     15          1           0        4.371949   -1.145959   -0.607130
     16          1           0        4.854500    1.765969    0.193964
     17          1           0        4.497054    1.210209   -1.437282
     18          1           0        6.605378   -0.165162   -1.436078
     19          1           0        6.964855    0.393756    0.204436
     20          1           0        6.965521    1.544669   -1.142675
     21          6           0       -3.856938   -0.501745   -0.241204
     22          6           0       -2.897740   -1.666707   -0.487758
     23          6           0       -3.613484   -3.015619   -0.564846
     24          1           0       -4.407855   -0.680006    0.692422
     25          1           0       -4.605150   -0.475436   -1.045493
     26          1           0       -2.150728   -1.689969    0.316013
     27          1           0       -2.348904   -1.485559   -1.420806
     28          1           0       -4.346331   -3.016947   -1.378193
     29          1           0       -4.147028   -3.222518    0.368495
     30          1           0       -2.909021   -3.834371   -0.741587
     31          6           0       -3.156313    0.853439   -0.161653
     32          6           0       -4.115510    2.018402    0.084901
     33          6           0       -3.399767    3.367314    0.161990
     34          1           0       -2.408099    0.827130    0.642636
     35          1           0       -2.605396    1.031701   -1.095278
     36          1           0       -4.664346    1.837253    1.017950
     37          1           0       -4.862522    2.041663   -0.718870
     38          1           0       -2.866222    3.574213   -0.771351
     39          1           0       -2.666920    3.368641    0.975337
     40          1           0       -4.104230    4.186065    0.338731
 ---------------------------------------------------------------------

 SCF Done:  E(RHF) =  -470.732362035     A.U. after   11 cycles
 E2 =    -0.1583396998D+01 EUMP2 =    -0.47231575903292D+03

 The electronic state is 1-A.
 Alpha  occ. eigenvalues --  -11.21602 -11.21599 -11.21556 -11.21432 -11.21407
 Alpha  occ. eigenvalues --  -11.21347 -11.21328 -11.21268 -11.21072 -11.21047
 Alpha  occ. eigenvalues --  -11.21038 -11.21000  -1.08437  -1.08355  -1.03550
 Alpha  occ. eigenvalues --   -1.03448  -0.95994  -0.95917  -0.87043  -0.86914
 Alpha  occ. eigenvalues --   -0.79710  -0.79453  -0.78291  -0.78108  -0.65076
 Alpha  occ. eigenvalues --   -0.64983  -0.60995  -0.60827  -0.59406  -0.59242
 Alpha  occ. eigenvalues --   -0.57633  -0.57494  -0.55298  -0.55193  -0.52771
 Alpha  occ. eigenvalues --   -0.52607  -0.52393  -0.52332  -0.50009  -0.49817
 Alpha  occ. eigenvalues --   -0.47960  -0.47816  -0.46730  -0.46477  -0.45907
 Alpha  occ. eigenvalues --   -0.45739  -0.45665  -0.45380  -0.43759  -0.43683
 Alpha virt. eigenvalues --    0.22274   0.22976   0.23961   0.24566   0.25710
 Alpha virt. eigenvalues --    0.26025   0.26928   0.27509   0.27953   0.29580
 Alpha virt. eigenvalues --    0.30300   0.30944   0.31828   0.31970   0.32015

 Mulliken charges:
               1
     1  C   -0.298617
     2  C   -0.300027
     3  C   -0.480576
     4  H    0.149605
     5  H    0.149813
     6  H    0.151599
     7  H    0.152060
     8  H    0.162641
     9  H    0.154276
    10  H    0.159712
    11  C   -0.298312
    12  C   -0.299628
    13  C   -0.475705
    14  H    0.149519
    15  H    0.149633
    16  H    0.151971
    17  H    0.151933
    18  H    0.155165
    19  H    0.155174
    20  H    0.160271
    21  C   -0.297296
    22  C   -0.308185
    23  C   -0.475254
    24  H    0.149088
    25  H    0.148769
    26  H    0.164780
    27  H    0.149496
    28  H    0.154598
    29  H    0.154664
    30  H    0.159528
    31  C   -0.301124
    32  C   -0.299554
    33  C   -0.475567
    34  H    0.153279
    35  H    0.148534
    36  H    0.151809
    37  H    0.151776
    38  H    0.155024
    39  H    0.155085
    40  H    0.160043
 Sum of Mulliken charges =  -0.00000

 Dipole moment (field-independent basis, Debye):
    X=              0.0365    Y=              0.0020    Z=              0.0210  Tot=              0.0421
 Quadrupole moment (field-independent basis, Debye-Ang):
   XX=            -86.3367   YY=            -85.8774   ZZ=            -82.9408
   XY=             -0.3377   XZ=              0.4199   YZ=              0.0712

 Normal termination of Gaussian 16 at Thu May  6 00:39:56 2021.
