 Gaussian 16, Revision A.03,
 Gaussian 16:  EM64L-G16RevA.03 25-Dec-2016

 -------------
 #p 6-31g* mp2
 -------------

 ------------------------------------------------------
 Input file generated by CHIRIPA (05-May-2021 14:57:27)
 ------------------------------------------------------
 Symbolic Z-matrix:
 Charge =  0 Multiplicity = 1

                         Standard orientation:
 ---------------------------------------------------------------------
 Center     Atomic      Atomic             Coordinates (Angstroms)
 Number     Number       Type             X           Y           Z
 ---------------------------------------------------------------------
      1          6           0       -5.881480    0.469972   -0.782962
      2          6           0       -5.533296    0.944385    0.485982
      3          6           0       -4.266103    0.686580    1.017307
      4          6           0       -3.367736   -0.052184    0.248897
      5          6           0       -3.684906   -0.538457   -1.018475
      6          6           0       -4.957803   -0.268633   -1.529825
      7          1           0       -6.868082    0.674909   -1.187949
      8          1           0       -6.248610    1.518261    1.068252
      9          1           0       -3.970314    1.041852    1.996954
     10          1           0       -2.950487   -1.107724   -1.575236
     11          1           0       -5.225457   -0.638327   -2.515590
     12          7           0       -2.023197   -0.331473    0.800813
     13          8           0       -1.249768   -0.984691    0.103855
     14          8           0       -1.768235    0.108127    1.919912
     15          6           0        4.352884    2.407718   -0.282046
     16          6           0        5.252139    1.406036    0.098078
     17          6           0        4.840077    0.072042    0.170272
     18          6           0        3.515515   -0.226020   -0.145936
     19          6           0        2.595869    0.749479   -0.527960
     20          6           0        3.029951    2.076826   -0.593303
     21          1           0        4.681536    3.441416   -0.335467
     22          1           0        6.280146    1.660087    0.340367
     23          1           0        5.515341   -0.723283    0.461641
     24          1           0        1.577427    0.465418   -0.763547
     25          1           0        2.329386    2.852664   -0.888816
     26          7           0        3.067628   -1.634742   -0.073134
     27          8           0        1.895348   -1.871322   -0.356727
     28          8           0        3.897335   -2.475642    0.266143
 ---------------------------------------------------------------------

 SCF Done:  E(RHF) =  -868.336552585     A.U. after   16 cycles
 E2 =    -0.2600220197D+01 EUMP2 =    -0.87093677278210D+03

 The electronic state is 1-A.
 Alpha  occ. eigenvalues --  -20.60555 -20.60497 -20.59542 -20.59419 -15.85561
 Alpha  occ. eigenvalues --  -15.84531 -11.31062 -11.30141 -11.27660 -11.27624
 Alpha  occ. eigenvalues --  -11.27416 -11.26809 -11.26696 -11.26674 -11.26671
 Alpha  occ. eigenvalues --  -11.26616 -11.25882 -11.25834  -1.59606  -1.58565
 Alpha  occ. eigenvalues --   -1.39149  -1.38100  -1.19250  -1.18360  -1.08622
 Alpha  occ. eigenvalues --   -1.07726  -1.04667  -1.03802  -0.95428  -0.94508
 Alpha  occ. eigenvalues --   -0.86059  -0.85190  -0.82251  -0.81330  -0.77285
 Alpha  occ. eigenvalues --   -0.76320  -0.71765  -0.70953  -0.70712  -0.70349
 Alpha  occ. eigenvalues --   -0.69895  -0.69479  -0.64892  -0.64667  -0.64010
 Alpha  occ. eigenvalues --   -0.63826  -0.62008  -0.61133  -0.55165  -0.54333
 Alpha  occ. eigenvalues --   -0.52999  -0.52756  -0.52124  -0.51904  -0.48560
 Alpha  occ. eigenvalues --   -0.48519  -0.47562  -0.47452  -0.44518  -0.43441
 Alpha  occ. eigenvalues --   -0.37245  -0.36381  -0.36280  -0.35414
 Alpha virt. eigenvalues --    0.05217   0.06212   0.11371   0.12237   0.16671
 Alpha virt. eigenvalues --    0.17632   0.21506   0.22290   0.27420   0.28131
 Alpha virt. eigenvalues --    0.28417   0.29245   0.31045   0.31785   0.32656

 Mulliken charges:
               1
     1  C   -0.171255
     2  C   -0.218697
     3  C   -0.171645
     4  C    0.157144
     5  C   -0.172249
     6  C   -0.218737
     7  H    0.225042
     8  H    0.222689
     9  H    0.274968
    10  H    0.278599
    11  H    0.223576
    12  N    0.486094
    13  O   -0.450167
    14  O   -0.463046
    15  C   -0.171483
    16  C   -0.219278
    17  C   -0.171508
    18  C    0.157345
    19  C   -0.169927
    20  C   -0.219291
    21  H    0.221415
    22  H    0.219659
    23  H    0.273322
    24  H    0.285822
    25  H    0.219497
    26  N    0.486956
    27  O   -0.446043
    28  O   -0.468802
 Sum of Mulliken charges =  -0.00000

 Dipole moment (field-independent basis, Debye):
    X=             -3.4484    Y=              5.7389    Z=             -2.2387  Tot=              7.0596
 Quadrupole moment (field-independent basis, Debye-Ang):
   XX=            -60.0630   YY=           -107.1384   ZZ=           -102.9835
   XY=             11.9208   XZ=              4.8809   YZ=              1.7453

 Normal termination of Gaussian 16 at Fri May  7 11:15:44 2021.
