 Gaussian 16, Revision A.03,
 Gaussian 16:  EM64L-G16RevA.03 25-Dec-2016

 -------------
 #p 6-31g* mp2
 -------------

 ------------------------------------------------------
 Input file generated by CHIRIPA (05-May-2021 14:57:24)
 ------------------------------------------------------
 Symbolic Z-matrix:
 Charge =  0 Multiplicity = 1

                         Standard orientation:
 ---------------------------------------------------------------------
 Center     Atomic      Atomic             Coordinates (Angstroms)
 Number     Number       Type             X           Y           Z
 ---------------------------------------------------------------------
      1          6           0        1.338410   -0.793872   -1.166569
      2          6           0        1.582749    0.541062   -0.827791
      3          6           0        2.787286    0.910824   -0.222057
      4          6           0        3.729570   -0.084681    0.031635
      5          6           0        3.515594   -1.423120   -0.294072
      6          6           0        2.303911   -1.769982   -0.899100
      7          1           0        0.399921   -1.072218   -1.636844
      8          1           0        0.834747    1.301247   -1.034328
      9          1           0        3.002442    1.936864    0.050648
     10          1           0        4.280407   -2.158512   -0.075717
     11          1           0        2.116880   -2.807487   -1.161105
     12          7           0        5.008542    0.294648    0.672525
     13          8           0        5.822513   -0.601304    0.885501
     14          8           0        5.172812    1.480735    0.949744
     15          6           0       -4.234038   -2.195556    0.678828
     16          6           0       -3.371306   -1.984029   -0.401668
     17          6           0       -2.968410   -0.690288   -0.745843
     18          6           0       -3.449631    0.373688    0.015517
     19          6           0       -4.310157    0.195290    1.097627
     20          6           0       -4.699889   -1.107140    1.423713
     21          1           0       -4.541903   -3.203940    0.939166
     22          1           0       -3.007940   -2.827417   -0.981933
     23          1           0       -2.301364   -0.497985   -1.577400
     24          1           0       -4.655730    1.055941    1.657338
     25          1           0       -5.369986   -1.268422    2.263357
     26          7           0       -3.030072    1.747913   -0.339270
     27          8           0       -3.468083    2.668460    0.347297
     28          8           0       -2.271153    1.878463   -1.297204
 ---------------------------------------------------------------------

 SCF Done:  E(RHF) =  -868.338672598     A.U. after   16 cycles
 E2 =    -0.2599728387D+01 EUMP2 =    -0.87093840098448D+03

 The electronic state is 1-A.
 Alpha  occ. eigenvalues --  -20.61862 -20.61787 -20.60549 -20.60536 -15.86854
 Alpha  occ. eigenvalues --  -15.85593 -11.32109 -11.30939 -11.28757 -11.28594
 Alpha  occ. eigenvalues --  -11.28330 -11.27687 -11.27577 -11.27527 -11.27398
 Alpha  occ. eigenvalues --  -11.27294 -11.26613 -11.26324  -1.60879  -1.59620
 Alpha  occ. eigenvalues --   -1.40442  -1.39174  -1.20258  -1.19096  -1.09661
 Alpha  occ. eigenvalues --   -1.08514  -1.05655  -1.04472  -0.96524  -0.95358
 Alpha  occ. eigenvalues --   -0.87053  -0.85876  -0.83369  -0.82170  -0.78446
 Alpha  occ. eigenvalues --   -0.77202  -0.73076  -0.72186  -0.71813  -0.71376
 Alpha  occ. eigenvalues --   -0.70942  -0.70265  -0.65917  -0.65654  -0.64747
 Alpha  occ. eigenvalues --   -0.64441  -0.63020  -0.61791  -0.56133  -0.55070
 Alpha  occ. eigenvalues --   -0.53959  -0.53735  -0.52833  -0.52538  -0.49849
 Alpha  occ. eigenvalues --   -0.49810  -0.48571  -0.48567  -0.45860  -0.44583
 Alpha  occ. eigenvalues --   -0.38199  -0.37284  -0.37075  -0.36067
 Alpha virt. eigenvalues --    0.04044   0.05292   0.10376   0.11579   0.15558
 Alpha virt. eigenvalues --    0.16790   0.18997   0.21987   0.25093   0.26950
 Alpha virt. eigenvalues --    0.27866   0.29272   0.30618   0.30964   0.32620

 Mulliken charges:
               1
     1  C   -0.171813
     2  C   -0.226248
     3  C   -0.171919
     4  C    0.159018
     5  C   -0.172250
     6  C   -0.218546
     7  H    0.216304
     8  H    0.244276
     9  H    0.277911
    10  H    0.273952
    11  H    0.218934
    12  N    0.487906
    13  O   -0.462007
    14  O   -0.459311
    15  C   -0.169674
    16  C   -0.217660
    17  C   -0.174404
    18  C    0.160251
    19  C   -0.169500
    20  C   -0.217620
    21  H    0.228741
    22  H    0.222251
    23  H    0.269006
    24  H    0.278360
    25  H    0.227193
    26  N    0.489005
    27  O   -0.453129
    28  O   -0.469029
 Sum of Mulliken charges =  -0.00000

 Dipole moment (field-independent basis, Debye):
    X=             -6.3402    Y=             -6.0158    Z=             -0.8074  Tot=              8.7773
 Quadrupole moment (field-independent basis, Debye-Ang):
   XX=           -126.4887   YY=           -103.3338   ZZ=           -103.3133
   XY=              9.3383   XZ=            -16.0810   YZ=              2.1257

 Normal termination of Gaussian 16 at Wed May  5 19:26:13 2021.
