 Gaussian 16, Revision A.03,
 Gaussian 16:  EM64L-G16RevA.03 25-Dec-2016

 -------------
 #p 6-31g* mp2
 -------------

 ------------------------------------------------------
 Input file generated by CHIRIPA (05-May-2021 14:53:11)
 ------------------------------------------------------
 Symbolic Z-matrix:
 Charge =  0 Multiplicity = 1

                         Standard orientation:
 ---------------------------------------------------------------------
 Center     Atomic      Atomic             Coordinates (Angstroms)
 Number     Number       Type             X           Y           Z
 ---------------------------------------------------------------------
      1          6           0        3.247960    0.862311   -0.278830
      2          6           0        2.135377    1.072487   -1.306435
      3          6           0        1.357005    2.368578   -1.078222
      4          1           0        2.811098    0.856697    0.729170
      5          1           0        3.937844    1.716766   -0.315745
      6          1           0        1.448564    0.217228   -1.268556
      7          1           0        2.574914    1.077410   -2.312118
      8          1           0        2.024655    3.234277   -1.136612
      9          1           0        0.891904    2.369208   -0.087121
     10          1           0        0.566600    2.498813   -1.823983
     11          6           0        4.035102   -0.429174   -0.493780
     12          6           0        5.147684   -0.639350    0.533824
     13          6           0        5.926057   -1.935440    0.305612
     14          1           0        3.345218   -1.283628   -0.456866
     15          1           0        4.471964   -0.423559   -1.501781
     16          1           0        4.708148   -0.644273    1.539507
     17          1           0        5.834498    0.215909    0.495946
     18          1           0        6.391158   -1.936071   -0.685489
     19          1           0        5.258407   -2.801140    0.364002
     20          1           0        6.716461   -2.065675    1.051372
     21          6           0       -1.063600    1.161374    1.494410
     22          6           0       -0.897481   -0.213749    1.299564
     23          6           0       -1.877955   -0.960965    0.640105
     24          6           0       -3.017160   -0.297829    0.186504
     25          6           0       -3.211708    1.070914    0.365350
     26          6           0       -2.218147    1.798193    1.027505
     27          1           0       -0.296860    1.734085    2.007741
     28          1           0       -0.001871   -0.710961    1.661097
     29          1           0       -1.774977   -2.026708    0.475774
     30          1           0       -4.115315    1.538632   -0.006339
     31          1           0       -2.349843    2.866008    1.177411
     32          7           0       -4.062072   -1.078320   -0.513063
     33          8           0       -5.056579   -0.470517   -0.903150
     34          8           0       -3.866780   -2.283093   -0.658049
 ---------------------------------------------------------------------

 SCF Done:  E(RHF) =  -669.534711085     A.U. after   15 cycles
 E2 =    -0.2092936039D+01 EUMP2 =    -0.67162764712371D+03

 The electronic state is 1-A.
 Alpha  occ. eigenvalues --  -20.60801 -20.60796 -15.85857 -11.31238 -11.27833
 Alpha  occ. eigenvalues --  -11.27815 -11.27577 -11.26852 -11.26818 -11.22158
 Alpha  occ. eigenvalues --  -11.22140 -11.22074 -11.21964 -11.21596 -11.21522
 Alpha  occ. eigenvalues --   -1.59877  -1.39430  -1.19429  -1.09040  -1.08820
 Alpha  occ. eigenvalues --   -1.04831  -1.04073  -0.96539  -0.95652  -0.87552
 Alpha  occ. eigenvalues --   -0.86229  -0.82485  -0.80139  -0.78852  -0.77517
 Alpha  occ. eigenvalues --   -0.72075  -0.71201  -0.70578  -0.65694  -0.65082
 Alpha  occ. eigenvalues --   -0.64819  -0.62176  -0.61492  -0.59891  -0.58145
 Alpha  occ. eigenvalues --   -0.55970  -0.55297  -0.53257  -0.53125  -0.52923
 Alpha  occ. eigenvalues --   -0.52879  -0.50466  -0.48835  -0.48828  -0.48450
 Alpha  occ. eigenvalues --   -0.47180  -0.46396  -0.46322  -0.44832  -0.44347
 Alpha  occ. eigenvalues --   -0.37326  -0.36426
 Alpha virt. eigenvalues --    0.04985   0.11151   0.16373   0.19636   0.22703
 Alpha virt. eigenvalues --    0.24006   0.25547   0.26206   0.26892   0.28261
 Alpha virt. eigenvalues --    0.28777   0.30708   0.31250   0.31513   0.32057

 Mulliken charges:
               1
     1  C   -0.297135
     2  C   -0.301276
     3  C   -0.474651
     4  H    0.138938
     5  H    0.151665
     6  H    0.153931
     7  H    0.155131
     8  H    0.154276
     9  H    0.147684
    10  H    0.163904
    11  C   -0.298409
    12  C   -0.299515
    13  C   -0.475925
    14  H    0.147749
    15  H    0.153037
    16  H    0.148734
    17  H    0.153287
    18  H    0.157029
    19  H    0.155241
    20  H    0.161492
    21  C   -0.169621
    22  C   -0.218524
    23  C   -0.171470
    24  C    0.158650
    25  C   -0.170726
    26  C   -0.217298
    27  H    0.226213
    28  H    0.224012
    29  H    0.275853
    30  H    0.275965
    31  H    0.224290
    32  N    0.488092
    33  O   -0.460251
    34  O   -0.460372
 Sum of Mulliken charges =  -0.00000

 Dipole moment (field-independent basis, Debye):
    X=              3.6973    Y=              2.7378    Z=              2.3903  Tot=              5.1844
 Quadrupole moment (field-independent basis, Debye-Ang):
   XX=           -115.5903   YY=            -93.7646   ZZ=            -94.1151
   XY=            -11.3670   XZ=             -7.0690   YZ=             -1.0954

 Normal termination of Gaussian 16 at Thu May  6 05:40:28 2021.
