 Gaussian 16, Revision A.03,
 Gaussian 16:  EM64L-G16RevA.03 25-Dec-2016

 -------------
 #p 6-31g* mp2
 -------------

 ------------------------------------------------------
 Input file generated by CHIRIPA (05-May-2021 14:53:14)
 ------------------------------------------------------
 Symbolic Z-matrix:
 Charge =  0 Multiplicity = 1

                         Standard orientation:
 ---------------------------------------------------------------------
 Center     Atomic      Atomic             Coordinates (Angstroms)
 Number     Number       Type             X           Y           Z
 ---------------------------------------------------------------------
      1          6           0        5.311916    0.155718   -0.266434
      2          6           0        6.507656   -0.658526    0.228742
      3          6           0        7.842858    0.047475   -0.009149
      4          1           0        5.434355    0.359945   -1.338928
      5          1           0        5.307010    1.131388    0.238976
      6          1           0        6.509516   -1.632905   -0.276429
      7          1           0        6.382262   -0.861003    1.300141
      8          1           0        7.866309    1.011867    0.508536
      9          1           0        7.994286    0.235579   -1.076992
     10          1           0        8.684060   -0.552164    0.352338
     11          6           0        3.970007   -0.536912   -0.035630
     12          6           0        2.774267    0.277332   -0.530806
     13          6           0        1.439065   -0.428669   -0.292914
     14          1           0        3.974913   -1.512582   -0.541039
     15          1           0        3.847568   -0.741140    1.036865
     16          1           0        2.899661    0.479808   -1.602205
     17          1           0        2.772407    1.251711   -0.025635
     18          1           0        1.287637   -0.616773    0.774928
     19          1           0        1.415614   -1.393062   -0.810599
     20          1           0        0.597864    0.170970   -0.654401
     21          6           0       -1.974822    2.013337    0.523264
     22          6           0       -3.135864    2.255333   -0.218315
     23          6           0       -4.057586    1.229802   -0.449104
     24          6           0       -3.785357   -0.031342    0.078813
     25          6           0       -2.637633   -0.303769    0.821648
     26          6           0       -1.729844    0.736809    1.039969
     27          1           0       -1.264218    2.815839    0.697704
     28          1           0       -3.328720    3.245712   -0.620807
     29          1           0       -4.964412    1.389510   -1.019698
     30          1           0       -2.472819   -1.301449    1.210093
     31          1           0       -0.829000    0.545976    1.616258
     32          7           0       -4.753767   -1.124991   -0.158912
     33          8           0       -4.490772   -2.227263    0.316972
     34          8           0       -5.757466   -0.859213   -0.816626
 ---------------------------------------------------------------------

 SCF Done:  E(RHF) =  -669.534718061     A.U. after   15 cycles
 E2 =    -0.2091853138D+01 EUMP2 =    -0.67162657119926D+03

 The electronic state is 1-A.
 Alpha  occ. eigenvalues --  -20.60742 -20.60736 -15.85793 -11.31166 -11.27715
 Alpha  occ. eigenvalues --  -11.27696 -11.27458 -11.26758 -11.26695 -11.22239
 Alpha  occ. eigenvalues --  -11.21957 -11.21897 -11.21797 -11.21744 -11.21378
 Alpha  occ. eigenvalues --   -1.59816  -1.39369  -1.19334  -1.08922  -1.08731
 Alpha  occ. eigenvalues --   -1.04738  -1.04030  -0.96487  -0.95562  -0.87521
 Alpha  occ. eigenvalues --   -0.86121  -0.82393  -0.80106  -0.78719  -0.77435
 Alpha  occ. eigenvalues --   -0.72012  -0.71139  -0.70436  -0.65568  -0.64982
 Alpha  occ. eigenvalues --   -0.64748  -0.62124  -0.61402  -0.59857  -0.58090
 Alpha  occ. eigenvalues --   -0.55801  -0.55224  -0.53491  -0.53006  -0.52795
 Alpha  occ. eigenvalues --   -0.52663  -0.50410  -0.48769  -0.48767  -0.48413
 Alpha  occ. eigenvalues --   -0.47134  -0.46262  -0.46180  -0.44774  -0.44279
 Alpha  occ. eigenvalues --   -0.37300  -0.36281
 Alpha virt. eigenvalues --    0.05078   0.11282   0.16555   0.20608   0.22570
 Alpha virt. eigenvalues --    0.23917   0.25705   0.26419   0.27133   0.28200
 Alpha virt. eigenvalues --    0.28748   0.29857   0.31143   0.31597   0.32211

 Mulliken charges:
               1
     1  C   -0.298453
     2  C   -0.299986
     3  C   -0.475923
     4  H    0.150662
     5  H    0.148542
     6  H    0.153169
     7  H    0.151976
     8  H    0.154928
     9  H    0.155768
    10  H    0.161443
    11  C   -0.298536
    12  C   -0.299468
    13  C   -0.482095
    14  H    0.152054
    15  H    0.148717
    16  H    0.154865
    17  H    0.147180
    18  H    0.145411
    19  H    0.160987
    20  H    0.166309
    21  C   -0.174218
    22  C   -0.218060
    23  C   -0.171594
    24  C    0.158818
    25  C   -0.172843
    26  C   -0.215199
    27  H    0.225645
    28  H    0.223304
    29  H    0.275410
    30  H    0.275779
    31  H    0.228152
    32  N    0.488053
    33  O   -0.460253
    34  O   -0.460545
 Sum of Mulliken charges =  -0.00000

 Dipole moment (field-independent basis, Debye):
    X=              3.5014    Y=              3.8228    Z=              0.7852  Tot=              5.2431
 Quadrupole moment (field-independent basis, Debye-Ang):
   XX=           -120.2115   YY=            -93.3906   ZZ=            -93.0469
   XY=            -17.4192   XZ=             -1.2885   YZ=             -1.1081

 Normal termination of Gaussian 16 at Wed May  5 23:29:01 2021.
