 Gaussian 16, Revision A.03,
 Gaussian 16:  EM64L-G16RevA.03 25-Dec-2016

 -------------
 #p 6-31g* mp2
 -------------

 ------------------------------------------------------
 Input file generated by CHIRIPA (05-May-2021 14:53:13)
 ------------------------------------------------------
 Symbolic Z-matrix:
 Charge =  0 Multiplicity = 1

                         Standard orientation:
 ---------------------------------------------------------------------
 Center     Atomic      Atomic             Coordinates (Angstroms)
 Number     Number       Type             X           Y           Z
 ---------------------------------------------------------------------
      1          6           0        3.727406    0.223298    0.192971
      2          6           0        3.134016    1.511702   -0.377894
      3          6           0        1.737811    1.812155    0.168120
      4          1           0        3.054849   -0.614999   -0.034781
      5          1           0        3.769941    0.301247    1.288193
      6          1           0        3.093895    1.431895   -1.471803
      7          1           0        3.808159    2.346998   -0.148923
      8          1           0        1.764812    1.918488    1.257416
      9          1           0        1.046491    0.998185   -0.072981
     10          1           0        1.332542    2.737446   -0.253133
     11          6           0        5.122942   -0.090586   -0.343391
     12          6           0        5.716332   -1.378991    0.227474
     13          6           0        7.112538   -1.679444   -0.318540
     14          1           0        5.080407   -0.168536   -1.438612
     15          1           0        5.795499    0.747710   -0.115639
     16          1           0        5.042190   -2.214287   -0.001497
     17          1           0        5.756453   -1.299183    1.321384
     18          1           0        7.803858   -0.865474   -0.077439
     19          1           0        7.085536   -1.785777   -1.407836
     20          1           0        7.517806   -2.604735    0.102714
     21          6           0       -1.879285    1.874053    0.467594
     22          6           0       -1.973734    0.836297    1.400687
     23          6           0       -2.844613   -0.235801    1.184527
     24          6           0       -3.609711   -0.238029    0.019233
     25          6           0       -3.538051    0.781054   -0.929253
     26          6           0       -2.660368    1.843174   -0.692352
     27          1           0       -1.200124    2.703009    0.643568
     28          1           0       -1.368348    0.857638    2.302406
     29          1           0       -2.937534   -1.052309    1.890287
     30          1           0       -4.154311    0.731967   -1.818766
     31          1           0       -2.589093    2.647735   -1.418746
     32          7           0       -4.535273   -1.367729   -0.220585
     33          8           0       -5.198536   -1.346211   -1.255117
     34          8           0       -4.579941   -2.253315    0.630520
 ---------------------------------------------------------------------

 SCF Done:  E(RHF) =  -669.535324924     A.U. after   15 cycles
 E2 =    -0.2091522213D+01 EUMP2 =    -0.67162684713654D+03

 The electronic state is 1-A.
 Alpha  occ. eigenvalues --  -20.60727 -20.60722 -15.85782 -11.31128 -11.27715
 Alpha  occ. eigenvalues --  -11.27708 -11.27404 -11.26701 -11.26689 -11.22280
 Alpha  occ. eigenvalues --  -11.22013 -11.21934 -11.21921 -11.21782 -11.21336
 Alpha  occ. eigenvalues --   -1.59804  -1.39358  -1.19310  -1.08938  -1.08699
 Alpha  occ. eigenvalues --   -1.04712  -1.04071  -0.96555  -0.95530  -0.87581
 Alpha  occ. eigenvalues --   -0.86103  -0.82370  -0.80151  -0.78720  -0.77422
 Alpha  occ. eigenvalues --   -0.72000  -0.71129  -0.70401  -0.65558  -0.64957
 Alpha  occ. eigenvalues --   -0.64709  -0.62060  -0.61462  -0.59951  -0.58139
 Alpha  occ. eigenvalues --   -0.55838  -0.55232  -0.53338  -0.53095  -0.52811
 Alpha  occ. eigenvalues --   -0.52785  -0.50465  -0.48757  -0.48756  -0.48457
 Alpha  occ. eigenvalues --   -0.47153  -0.46271  -0.46170  -0.44768  -0.44323
 Alpha  occ. eigenvalues --   -0.37224  -0.36324
 Alpha virt. eigenvalues --    0.05106   0.11303   0.16577   0.20718   0.22447
 Alpha virt. eigenvalues --    0.23894   0.26063   0.26509   0.26699   0.27435
 Alpha virt. eigenvalues --    0.28649   0.30088   0.30999   0.31461   0.32253

 Mulliken charges:
               1
     1  C   -0.299235
     2  C   -0.299851
     3  C   -0.481609
     4  H    0.151648
     5  H    0.148781
     6  H    0.154379
     7  H    0.152930
     8  H    0.150640
     9  H    0.163966
    10  H    0.152890
    11  C   -0.298737
    12  C   -0.300126
    13  C   -0.476004
    14  H    0.150695
    15  H    0.149969
    16  H    0.153198
    17  H    0.151858
    18  H    0.155262
    19  H    0.155909
    20  H    0.161502
    21  C   -0.167054
    22  C   -0.220248
    23  C   -0.171354
    24  C    0.157931
    25  C   -0.170952
    26  C   -0.220744
    27  H    0.229995
    28  H    0.223898
    29  H    0.275369
    30  H    0.275346
    31  H    0.223037
    32  N    0.488136
    33  O   -0.460726
    34  O   -0.460702
 Sum of Mulliken charges =  -0.00000

 Dipole moment (field-independent basis, Debye):
    X=              3.3978    Y=              3.9406    Z=              0.8167  Tot=              5.2669
 Quadrupole moment (field-independent basis, Debye-Ang):
   XX=           -119.2076   YY=            -96.3673   ZZ=            -90.7180
   XY=            -15.5639   XZ=             -1.0758   YZ=             -1.9270

 Normal termination of Gaussian 16 at Wed May  5 21:47:01 2021.
