 Gaussian 16, Revision A.03,
 Gaussian 16:  EM64L-G16RevA.03 25-Dec-2016

 -------------
 #p 6-31g* mp2
 -------------

 ------------------------------------------------------
 Input file generated by CHIRIPA (05-May-2021 14:53:14)
 ------------------------------------------------------
 Symbolic Z-matrix:
 Charge =  0 Multiplicity = 1

                         Standard orientation:
 ---------------------------------------------------------------------
 Center     Atomic      Atomic             Coordinates (Angstroms)
 Number     Number       Type             X           Y           Z
 ---------------------------------------------------------------------
      1          6           0       -4.101847   -0.391038    0.042336
      2          6           0       -4.722399    1.005256    0.099468
      3          6           0       -6.139038    0.999480    0.674702
      4          1           0       -4.742704   -1.045627   -0.564097
      5          1           0       -4.085999   -0.819318    1.054126
      6          1           0       -4.735806    1.431328   -0.911917
      7          1           0       -4.079891    1.656647    0.705676
      8          1           0       -6.139467    0.598890    1.693588
      9          1           0       -6.799109    0.372290    0.066804
     10          1           0       -6.563580    2.007756    0.706403
     11          6           0       -2.685671   -0.401624   -0.530432
     12          6           0       -2.065118   -1.797917   -0.587564
     13          6           0       -0.648480   -1.792141   -1.162799
     14          1           0       -2.701519    0.026656   -1.542223
     15          1           0       -2.044814    0.252966    0.076000
     16          1           0       -2.707626   -2.449309   -1.193773
     17          1           0       -2.051712   -2.223989    0.423821
     18          1           0        0.011591   -1.164951   -0.554901
     19          1           0       -0.648050   -1.391551   -2.181685
     20          1           0       -0.223938   -2.800417   -1.194499
     21          6           0        2.467562    2.725868   -0.512149
     22          6           0        2.147223    2.351310    0.796900
     23          6           0        2.245391    1.015441    1.197357
     24          6           0        2.669145    0.076041    0.258608
     25          6           0        2.995421    0.417980   -1.052846
     26          6           0        2.889893    1.759711   -1.431225
     27          1           0        2.388443    3.765880   -0.814659
     28          1           0        1.818960    3.099493    1.512797
     29          1           0        2.003674    0.697904    2.204412
     30          1           0        3.319752   -0.350462   -1.744021
     31          1           0        3.139330    2.047709   -2.448517
     32          7           0        2.776966   -1.341287    0.670868
     33          8           0        3.152740   -2.149806   -0.175139
     34          8           0        2.483662   -1.616830    1.832196
 ---------------------------------------------------------------------

 SCF Done:  E(RHF) =  -669.535473383     A.U. after   15 cycles
 E2 =    -0.2092169702D+01 EUMP2 =    -0.67162764308544D+03

 The electronic state is 1-A.
 Alpha  occ. eigenvalues --  -20.60780 -20.60771 -15.85822 -11.31195 -11.27781
 Alpha  occ. eigenvalues --  -11.27759 -11.27516 -11.26794 -11.26778 -11.21627
 Alpha  occ. eigenvalues --  -11.21323 -11.21298 -11.21230 -11.21094 -11.20696
 Alpha  occ. eigenvalues --   -1.59848  -1.39401  -1.19381  -1.08775  -1.08313
 Alpha  occ. eigenvalues --   -1.04780  -1.03383  -0.95833  -0.95604  -0.86853
 Alpha  occ. eigenvalues --   -0.86177  -0.82434  -0.79462  -0.78128  -0.77479
 Alpha  occ. eigenvalues --   -0.72046  -0.71188  -0.70481  -0.65030  -0.64946
 Alpha  occ. eigenvalues --   -0.64782  -0.62126  -0.60786  -0.59193  -0.57440
 Alpha  occ. eigenvalues --   -0.55284  -0.55142  -0.53152  -0.52872  -0.52494
 Alpha  occ. eigenvalues --   -0.52226  -0.49793  -0.48807  -0.48799  -0.47770
 Alpha  occ. eigenvalues --   -0.46504  -0.45671  -0.45591  -0.44802  -0.43620
 Alpha  occ. eigenvalues --   -0.37331  -0.36380
 Alpha virt. eigenvalues --    0.05046   0.11254   0.16527   0.21408   0.22944
 Alpha virt. eigenvalues --    0.24392   0.26675   0.27301   0.27520   0.27930
 Alpha virt. eigenvalues --    0.28350   0.30793   0.31398   0.31922   0.32263

 Mulliken charges:
               1
     1  C   -0.298325
     2  C   -0.298976
     3  C   -0.475590
     4  H    0.150026
     5  H    0.150668
     6  H    0.150785
     7  H    0.149571
     8  H    0.155700
     9  H    0.155719
    10  H    0.159089
    11  C   -0.297489
    12  C   -0.300503
    13  C   -0.476338
    14  H    0.147237
    15  H    0.147418
    16  H    0.151374
    17  H    0.156030
    18  H    0.149433
    19  H    0.150253
    20  H    0.171513
    21  C   -0.170592
    22  C   -0.218134
    23  C   -0.173124
    24  C    0.155579
    25  C   -0.169935
    26  C   -0.217994
    27  H    0.225723
    28  H    0.223460
    29  H    0.275605
    30  H    0.276106
    31  H    0.223587
    32  N    0.492503
    33  O   -0.459460
    34  O   -0.460920
 Sum of Mulliken charges =  -0.00000

 Dipole moment (field-independent basis, Debye):
    X=             -0.3101    Y=              4.9111    Z=             -1.4615  Tot=              5.1333
 Quadrupole moment (field-independent basis, Debye-Ang):
   XX=            -98.1788   YY=            -94.0183   ZZ=            -90.6951
   XY=             13.3613   XZ=             -5.0417   YZ=              2.5298

 Normal termination of Gaussian 16 at Wed May  5 17:06:47 2021.
