 Gaussian 16, Revision A.03,
 Gaussian 16:  EM64L-G16RevA.03 25-Dec-2016

 -------------
 #p 6-31g* mp2
 -------------

 ------------------------------------------------------
 Input file generated by CHIRIPA (05-May-2021 14:55:24)
 ------------------------------------------------------
 Symbolic Z-matrix:
 Charge =  0 Multiplicity = 1

                         Standard orientation:
 ---------------------------------------------------------------------
 Center     Atomic      Atomic             Coordinates (Angstroms)
 Number     Number       Type             X           Y           Z
 ---------------------------------------------------------------------
      1          6           0       -0.906758   -2.514489    1.348453
      2          6           0       -1.312081   -1.333237    1.978435
      3          6           0       -1.865435   -0.286146    1.235504
      4          6           0       -1.999460   -0.454977   -0.141748
      5          6           0       -1.605102   -1.619698   -0.798404
      6          6           0       -1.054302   -2.653704   -0.035516
      7          1           0       -0.477891   -3.322813    1.933332
      8          1           0       -1.198697   -1.222335    3.053093
      9          1           0       -2.187583    0.639096    1.697636
     10          1           0       -1.730776   -1.700890   -1.871266
     11          1           0       -0.740399   -3.569953   -0.527450
     12          7           0       -2.583919    0.646605   -0.938821
     13          8           0       -2.691318    0.473076   -2.150840
     14          8           0       -2.923553    1.662696   -0.336454
     15          6           0        1.737109    1.073278    0.181026
     16          6           0        1.707555    2.563422    0.522470
     17          6           0        0.302437    3.065768    0.855770
     18          1           0        1.067576    0.885132   -0.669427
     19          1           0        1.333911    0.501953    1.028619
     20          1           0        2.111973    3.131666   -0.324972
     21          1           0        2.377383    2.748072    1.372089
     22          1           0       -0.106367    2.524614    1.715208
     23          1           0       -0.373284    2.910386    0.008505
     24          1           0        0.304429    4.133369    1.096773
     25          6           0        3.134913    0.556242   -0.154450
     26          6           0        3.164468   -0.933901   -0.495895
     27          6           0        4.569586   -1.436247   -0.829193
     28          1           0        3.538112    1.127567   -1.002043
     29          1           0        3.804447    0.744388    0.696004
     30          1           0        2.494640   -1.118553   -1.345512
     31          1           0        2.760050   -1.502145    0.351549
     32          1           0        5.245307   -1.280866    0.018072
     33          1           0        4.978389   -0.895093   -1.688631
     34          1           0        4.567594   -2.503849   -1.070196
 ---------------------------------------------------------------------

 SCF Done:  E(RHF) =  -669.535719334     A.U. after   15 cycles
 E2 =    -0.2094610174D+01 EUMP2 =    -0.67163032950782D+03

 The electronic state is 1-A.
 Alpha  occ. eigenvalues --  -20.60903 -20.60883 -15.85915 -11.31226 -11.27816
 Alpha  occ. eigenvalues --  -11.27796 -11.27566 -11.26827 -11.26817 -11.21764
 Alpha  occ. eigenvalues --  -11.21399 -11.21352 -11.21267 -11.21232 -11.20593
 Alpha  occ. eigenvalues --   -1.59957  -1.39512  -1.19413  -1.08820  -1.08384
 Alpha  occ. eigenvalues --   -1.04816  -1.03460  -0.95892  -0.95659  -0.86905
 Alpha  occ. eigenvalues --   -0.86212  -0.82498  -0.79536  -0.78202  -0.77539
 Alpha  occ. eigenvalues --   -0.72144  -0.71274  -0.70531  -0.65085  -0.65015
 Alpha  occ. eigenvalues --   -0.64820  -0.62171  -0.60856  -0.59296  -0.57508
 Alpha  occ. eigenvalues --   -0.55337  -0.55166  -0.53223  -0.52922  -0.52563
 Alpha  occ. eigenvalues --   -0.52261  -0.49842  -0.48912  -0.48901  -0.47860
 Alpha  occ. eigenvalues --   -0.46595  -0.45723  -0.45655  -0.44778  -0.43708
 Alpha  occ. eigenvalues --   -0.37362  -0.36361
 Alpha virt. eigenvalues --    0.04946   0.11177   0.16394   0.21098   0.22876
 Alpha virt. eigenvalues --    0.24119   0.26175   0.26821   0.27288   0.27728
 Alpha virt. eigenvalues --    0.28782   0.30814   0.31311   0.31792   0.32125

 Mulliken charges:
               1
     1  C   -0.170302
     2  C   -0.219970
     3  C   -0.167990
     4  C    0.160928
     5  C   -0.171634
     6  C   -0.216665
     7  H    0.225917
     8  H    0.223526
     9  H    0.277267
    10  H    0.275517
    11  H    0.223879
    12  N    0.486520
    13  O   -0.459865
    14  O   -0.457653
    15  C   -0.300600
    16  C   -0.300135
    17  C   -0.479388
    18  H    0.149348
    19  H    0.148304
    20  H    0.153217
    21  H    0.148358
    22  H    0.143656
    23  H    0.172019
    24  H    0.160525
    25  C   -0.298165
    26  C   -0.298246
    27  C   -0.475532
    28  H    0.151075
    29  H    0.148275
    30  H    0.151113
    31  H    0.147323
    32  H    0.154948
    33  H    0.157030
    34  H    0.157400
 Sum of Mulliken charges =  -0.00000

 Dipole moment (field-independent basis, Debye):
    X=              1.8901    Y=             -3.8616    Z=              2.7357  Tot=              5.0959
 Quadrupole moment (field-independent basis, Debye-Ang):
   XX=           -104.8690   YY=            -90.2576   ZZ=            -91.4930
   XY=              6.9550   XZ=             -6.1651   YZ=              1.2269

 Normal termination of Gaussian 16 at Thu May  6 11:02:14 2021.
