 Gaussian 16, Revision A.03,
 Gaussian 16:  EM64L-G16RevA.03 25-Dec-2016

 -------------
 #p 6-31g* mp2
 -------------

 ------------------------------------------------------
 Input file generated by CHIRIPA (05-May-2021 14:57:26)
 ------------------------------------------------------
 Symbolic Z-matrix:
 Charge =  0 Multiplicity = 1

                         Standard orientation:
 ---------------------------------------------------------------------
 Center     Atomic      Atomic             Coordinates (Angstroms)
 Number     Number       Type             X           Y           Z
 ---------------------------------------------------------------------
      1          6           0       -3.979109   -2.477164   -0.299043
      2          6           0       -4.894167   -1.497356   -0.698002
      3          6           0       -4.625864   -0.143204   -0.477018
      4          6           0       -3.427385    0.197102    0.148386
      5          6           0       -2.495695   -0.755749    0.557432
      6          6           0       -2.784899   -2.103891    0.326298
      7          1           0       -4.195651   -3.526767   -0.474651
      8          1           0       -5.822407   -1.784323   -1.183868
      9          1           0       -5.316628    0.635937   -0.775683
     10          1           0       -1.578818   -0.438896    1.039467
     11          1           0       -2.072404   -2.862662    0.637203
     12          7           0       -3.132281    1.627501    0.387704
     13          8           0       -2.069296    1.901316    0.940627
     14          8           0       -3.969552    2.447748    0.017827
     15          6           0        2.633369    2.392226   -0.450289
     16          6           0        1.734922    1.320166   -0.450135
     17          6           0        2.190603    0.011928   -0.261938
     18          6           0        3.557486   -0.188891   -0.075943
     19          6           0        4.477506    0.858405   -0.070965
     20          6           0        3.999385    2.158337   -0.261036
     21          1           0        2.270670    3.405269   -0.597213
     22          1           0        0.673511    1.498828   -0.596874
     23          1           0        1.517005   -0.836400   -0.257293
     24          1           0        5.529836    0.648914    0.077808
     25          1           0        4.699432    2.988987   -0.260681
     26          7           0        4.051773   -1.569466    0.124286
     27          8           0        5.260842   -1.719886    0.286039
     28          8           0        3.220767   -2.475001    0.115678
 ---------------------------------------------------------------------

 SCF Done:  E(RHF) =  -868.339876629     A.U. after   16 cycles
 E2 =    -0.2598853206D+01 EUMP2 =    -0.87093872983513D+03

 The electronic state is 1-A.
 Alpha  occ. eigenvalues --  -20.61602 -20.61543 -20.60723 -20.60700 -15.86594
 Alpha  occ. eigenvalues --  -15.85760 -11.31743 -11.30951 -11.28291 -11.28250
 Alpha  occ. eigenvalues --  -11.27917 -11.27496 -11.27466 -11.27214 -11.27192
 Alpha  occ. eigenvalues --  -11.27073 -11.26443 -11.26312  -1.60637  -1.59790
 Alpha  occ. eigenvalues --   -1.40198  -1.39351  -1.19878  -1.19071  -1.09304
 Alpha  occ. eigenvalues --   -1.08476  -1.05242  -1.04444  -0.96180  -0.95359
 Alpha  occ. eigenvalues --   -0.86645  -0.85832  -0.83017  -0.82199  -0.78106
 Alpha  occ. eigenvalues --   -0.77287  -0.72815  -0.71985  -0.71947  -0.71108
 Alpha  occ. eigenvalues --   -0.70967  -0.70155  -0.65525  -0.65221  -0.64712
 Alpha  occ. eigenvalues --   -0.64399  -0.62598  -0.61790  -0.55720  -0.54890
 Alpha  occ. eigenvalues --   -0.53586  -0.53315  -0.52779  -0.52510  -0.49589
 Alpha  occ. eigenvalues --   -0.49550  -0.48754  -0.48715  -0.45638  -0.44798
 Alpha  occ. eigenvalues --   -0.37827  -0.37003  -0.36840  -0.36043
 Alpha virt. eigenvalues --    0.04363   0.05223   0.10790   0.11623   0.15907
 Alpha virt. eigenvalues --    0.16775   0.20279   0.22065   0.25641   0.27437
 Alpha virt. eigenvalues --    0.28432   0.29330   0.30476   0.31429   0.32734

 Mulliken charges:
               1
     1  C   -0.170004
     2  C   -0.218086
     3  C   -0.170924
     4  C    0.158211
     5  C   -0.176823
     6  C   -0.218552
     7  H    0.229287
     8  H    0.225617
     9  H    0.276230
    10  H    0.273333
    11  H    0.230207
    12  N    0.488096
    13  O   -0.467337
    14  O   -0.456187
    15  C   -0.171092
    16  C   -0.219261
    17  C   -0.174542
    18  C    0.159142
    19  C   -0.172202
    20  C   -0.218283
    21  H    0.230447
    22  H    0.236368
    23  H    0.266287
    24  H    0.274223
    25  H    0.223143
    26  N    0.488515
    27  O   -0.460110
    28  O   -0.465702
 Sum of Mulliken charges =  -0.00000

 Dipole moment (field-independent basis, Debye):
    X=             -3.0824    Y=             -0.1137    Z=             -1.5911  Tot=              3.4707
 Quadrupole moment (field-independent basis, Debye-Ang):
   XX=           -101.5260   YY=           -108.2096   ZZ=           -105.6422
   XY=             36.4222   XZ=              3.0695   YZ=             -1.6887

 Normal termination of Gaussian 16 at Thu May  6 09:55:56 2021.
