 Gaussian 16, Revision A.03,
 Gaussian 16:  EM64L-G16RevA.03 25-Dec-2016

 -------------
 #p 6-31g* mp2
 -------------

 ------------------------------------------------------
 Input file generated by CHIRIPA (05-May-2021 14:51:14)
 ------------------------------------------------------
 Symbolic Z-matrix:
 Charge =  0 Multiplicity = 1

                         Standard orientation:
 ---------------------------------------------------------------------
 Center     Atomic      Atomic             Coordinates (Angstroms)
 Number     Number       Type             X           Y           Z
 ---------------------------------------------------------------------
      1          6           0        4.033146   -0.287308   -0.072795
      2          6           0        4.617738    1.085226   -0.408036
      3          6           0        6.014857    0.998491   -1.023122
      4          1           0        4.708765   -0.807238    0.620139
      5          1           0        3.995058   -0.895207   -0.987346
      6          1           0        4.653427    1.690837    0.506610
      7          1           0        3.940554    1.602026   -1.100102
      8          1           0        5.992138    0.416780   -1.950321
      9          1           0        6.709061    0.506096   -0.334479
     10          1           0        6.413757    1.990956   -1.254967
     11          6           0        2.636805   -0.217098    0.542859
     12          6           0        2.052213   -1.589632    0.878101
     13          6           0        0.655094   -1.502897    1.493186
     14          1           0        2.674893    0.390802    1.457410
     15          1           0        1.961186    0.302832   -0.150075
     16          1           0        2.729398   -2.106432    1.570167
     17          1           0        2.016524   -2.195243   -0.036546
     18          1           0       -0.039110   -1.010502    0.804543
     19          1           0        0.677814   -0.921186    2.420385
     20          1           0        0.256194   -2.495361    1.725031
     21          6           0       -3.290893    0.830420    0.262114
     22          6           0       -3.441766    2.204625   -0.391174
     23          6           0       -3.351344    3.351236    0.616247
     24          1           0       -4.068069    0.708744    1.029014
     25          1           0       -2.325682    0.784835    0.785261
     26          1           0       -4.405802    2.247115   -0.914096
     27          1           0       -2.664259    2.322967   -1.156742
     28          1           0       -2.384751    3.337190    1.130156
     29          1           0       -4.136188    3.260908    1.374180
     30          1           0       -3.461782    4.324428    0.127820
     31          6           0       -3.379058   -0.326014   -0.732178
     32          6           0       -3.228185   -1.700218   -0.078890
     33          6           0       -3.318607   -2.846830   -1.086311
     34          1           0       -4.344270   -0.280430   -1.255325
     35          1           0       -2.601882   -0.204338   -1.499078
     36          1           0       -4.005692   -1.818561    0.686678
     37          1           0       -2.264150   -1.742710    0.444032
     38          1           0       -2.533763   -2.756503   -1.844244
     39          1           0       -4.285200   -2.832785   -1.600220
     40          1           0       -3.208169   -3.820022   -0.597884
 ---------------------------------------------------------------------

 SCF Done:  E(RHF) =  -470.733074299     A.U. after   11 cycles
 E2 =    -0.1582950093D+01 EUMP2 =    -0.47231602439183D+03

 The electronic state is 1-A.
 Alpha  occ. eigenvalues --  -11.21672 -11.21640 -11.21580 -11.21477 -11.21464
 Alpha  occ. eigenvalues --  -11.21402 -11.21368 -11.21309 -11.21158 -11.21101
 Alpha  occ. eigenvalues --  -11.21049 -11.21021  -1.08490  -1.08389  -1.03596
 Alpha  occ. eigenvalues --   -1.03479  -0.96046  -0.95940  -0.87074  -0.86949
 Alpha  occ. eigenvalues --   -0.79691  -0.79518  -0.78313  -0.78185  -0.65177
 Alpha  occ. eigenvalues --   -0.64989  -0.61084  -0.60804  -0.59418  -0.59298
 Alpha  occ. eigenvalues --   -0.57656  -0.57542  -0.55342  -0.55229  -0.52754
 Alpha  occ. eigenvalues --   -0.52633  -0.52466  -0.52360  -0.50078  -0.49828
 Alpha  occ. eigenvalues --   -0.48007  -0.47846  -0.46813  -0.46485  -0.45924
 Alpha  occ. eigenvalues --   -0.45779  -0.45726  -0.45447  -0.43834  -0.43737
 Alpha virt. eigenvalues --    0.20992   0.23065   0.24043   0.24813   0.25660
 Alpha virt. eigenvalues --    0.26725   0.27167   0.27390   0.27922   0.29253
 Alpha virt. eigenvalues --    0.31024   0.31372   0.31679   0.31814   0.32253

 Mulliken charges:
               1
     1  C   -0.298351
     2  C   -0.299700
     3  C   -0.475747
     4  H    0.149872
     5  H    0.149639
     6  H    0.152025
     7  H    0.151907
     8  H    0.155246
     9  H    0.155269
    10  H    0.160400
    11  C   -0.298634
    12  C   -0.299709
    13  C   -0.481471
    14  H    0.149690
    15  H    0.149331
    16  H    0.152393
    17  H    0.152241
    18  H    0.159784
    19  H    0.155875
    20  H    0.161363
    21  C   -0.300922
    22  C   -0.299410
    23  C   -0.475729
    24  H    0.149869
    25  H    0.151589
    26  H    0.151920
    27  H    0.151477
    28  H    0.155363
    29  H    0.155181
    30  H    0.160102
    31  C   -0.297821
    32  C   -0.308295
    33  C   -0.475055
    34  H    0.149474
    35  H    0.148300
    36  H    0.151513
    37  H    0.161894
    38  H    0.154353
    39  H    0.154868
    40  H    0.159905
 Sum of Mulliken charges =  -0.00000

 Dipole moment (field-independent basis, Debye):
    X=              0.0477    Y=             -0.0078    Z=              0.0342  Tot=              0.0593
 Quadrupole moment (field-independent basis, Debye-Ang):
   XX=            -84.6702   YY=            -85.7068   ZZ=            -84.4570
   XY=             -0.1227   XZ=              0.6218   YZ=             -0.5239

 Normal termination of Gaussian 16 at Thu May  6 05:37:29 2021.
