 Gaussian 16, Revision A.03,
 Gaussian 16:  EM64L-G16RevA.03 25-Dec-2016

 -------------
 #p 6-31g* mp2
 -------------

 ------------------------------------------------------
 Input file generated by CHIRIPA (05-May-2021 14:51:11)
 ------------------------------------------------------
 Symbolic Z-matrix:
 Charge =  0 Multiplicity = 1

                         Standard orientation:
 ---------------------------------------------------------------------
 Center     Atomic      Atomic             Coordinates (Angstroms)
 Number     Number       Type             X           Y           Z
 ---------------------------------------------------------------------
      1          6           0        2.222033   -0.264298    0.538608
      2          6           0        3.032463   -1.540717    0.310697
      3          6           0        2.629897   -2.673216    1.255778
      4          1           0        2.349426    0.062327    1.579776
      5          1           0        1.154066   -0.488455    0.409787
      6          1           0        4.098684   -1.313910    0.438550
      7          1           0        2.903278   -1.864234   -0.730103
      8          1           0        1.573387   -2.928030    1.123650
      9          1           0        2.775585   -2.374580    2.298943
     10          1           0        3.221744   -3.576038    1.075526
     11          6           0        2.612927    0.876958   -0.398657
     12          6           0        1.802498    2.153377   -0.170747
     13          6           0        2.205064    3.285877   -1.115828
     14          1           0        3.680894    1.101116   -0.269837
     15          1           0        2.485534    0.550334   -1.439826
     16          1           0        1.931682    2.476894    0.870053
     17          1           0        0.736276    1.926570   -0.298599
     18          1           0        2.059375    2.987240   -2.158993
     19          1           0        3.261573    3.540691   -0.983700
     20          1           0        1.613217    4.188698   -0.935575
     21          6           0       -2.283242    0.445604   -0.067281
     22          6           0       -3.212578    1.224128    0.864503
     23          6           0       -2.931702    2.727083    0.858966
     24          1           0       -1.241116    0.626407    0.229748
     25          1           0       -2.389178    0.835593   -1.089083
     26          1           0       -3.105940    0.831862    1.883999
     27          1           0       -4.252622    1.041298    0.565342
     28          1           0       -3.057222    3.138739   -0.147705
     29          1           0       -1.904025    2.928114    1.178445
     30          1           0       -3.607383    3.264252    1.531842
     31          6           0       -2.551718   -1.058265   -0.072670
     32          6           0       -1.622383   -1.836789   -1.004453
     33          6           0       -1.903258   -3.339744   -0.998916
     34          1           0       -2.445782   -1.448254    0.949133
     35          1           0       -3.593846   -1.239068   -0.369698
     36          1           0       -0.582338   -1.653958   -0.705292
     37          1           0       -1.729021   -1.444522   -2.023949
     38          1           0       -2.930935   -3.540774   -1.318396
     39          1           0       -1.777738   -3.751400    0.007754
     40          1           0       -1.227576   -3.876913   -1.671793
 ---------------------------------------------------------------------

 SCF Done:  E(RHF) =  -470.732682554     A.U. after   11 cycles
 E2 =    -0.1584973314D+01 EUMP2 =    -0.47231765586774D+03

 The electronic state is 1-A.
 Alpha  occ. eigenvalues --  -11.21664 -11.21633 -11.21623 -11.21576 -11.21447
 Alpha  occ. eigenvalues --  -11.21421 -11.21383 -11.21360 -11.21127 -11.21106
 Alpha  occ. eigenvalues --  -11.21077 -11.21054  -1.08517  -1.08420  -1.03590
 Alpha  occ. eigenvalues --   -1.03526  -0.96023  -0.95989  -0.87048  -0.86997
 Alpha  occ. eigenvalues --   -0.79692  -0.79560  -0.78501  -0.78095  -0.65408
 Alpha  occ. eigenvalues --   -0.64817  -0.61143  -0.60793  -0.59427  -0.59315
 Alpha  occ. eigenvalues --   -0.57651  -0.57585  -0.55351  -0.55242  -0.52718
 Alpha  occ. eigenvalues --   -0.52683  -0.52471  -0.52396  -0.50045  -0.49869
 Alpha  occ. eigenvalues --   -0.48106  -0.47811  -0.46826  -0.46725  -0.46401
 Alpha  occ. eigenvalues --   -0.45785  -0.45775  -0.44832  -0.43825  -0.43789
 Alpha virt. eigenvalues --    0.19841   0.22134   0.23521   0.24899   0.25436
 Alpha virt. eigenvalues --    0.26467   0.26908   0.27168   0.28648   0.29849
 Alpha virt. eigenvalues --    0.31107   0.31534   0.31594   0.31901   0.32172

 Mulliken charges:
               1
     1  C   -0.309172
     2  C   -0.299359
     3  C   -0.477003
     4  H    0.149579
     5  H    0.158380
     6  H    0.152386
     7  H    0.152220
     8  H    0.155648
     9  H    0.155187
    10  H    0.160660
    11  C   -0.297405
    12  C   -0.308131
    13  C   -0.475243
    14  H    0.149671
    15  H    0.149805
    16  H    0.151043
    17  H    0.160352
    18  H    0.155216
    19  H    0.154998
    20  H    0.160503
    21  C   -0.309561
    22  C   -0.298941
    23  C   -0.477265
    24  H    0.160173
    25  H    0.149033
    26  H    0.152076
    27  H    0.152021
    28  H    0.155024
    29  H    0.156882
    30  H    0.160402
    31  C   -0.297053
    32  C   -0.308261
    33  C   -0.475456
    34  H    0.149539
    35  H    0.150094
    36  H    0.158475
    37  H    0.152054
    38  H    0.155627
    39  H    0.155361
    40  H    0.160440
 Sum of Mulliken charges =  -0.00000

 Dipole moment (field-independent basis, Debye):
    X=             -0.0138    Y=             -0.0013    Z=             -0.0023  Tot=              0.0141
 Quadrupole moment (field-independent basis, Debye-Ang):
   XX=            -83.9001   YY=            -86.7251   ZZ=            -84.1036
   XY=             -0.1385   XZ=              1.0660   YZ=              0.5751

 Normal termination of Gaussian 16 at Thu May  6 00:41:48 2021.
