 Gaussian 16, Revision A.03,
 Gaussian 16:  EM64L-G16RevA.03 25-Dec-2016

 -------------
 #p 6-31g* mp2
 -------------

 ------------------------------------------------------
 Input file generated by CHIRIPA (05-May-2021 14:55:24)
 ------------------------------------------------------
 Symbolic Z-matrix:
 Charge =  0 Multiplicity = 1

                         Standard orientation:
 ---------------------------------------------------------------------
 Center     Atomic      Atomic             Coordinates (Angstroms)
 Number     Number       Type             X           Y           Z
 ---------------------------------------------------------------------
      1          6           0       -3.997534    2.551123    0.011583
      2          6           0       -2.919462    2.122857    0.793164
      3          6           0       -2.560827    0.772063    0.828988
      4          6           0       -3.305414   -0.127336    0.067436
      5          6           0       -4.384680    0.268451   -0.721125
      6          6           0       -4.725420    1.624187   -0.741739
      7          1           0       -4.269180    3.602371   -0.010338
      8          1           0       -2.352385    2.840496    1.379221
      9          1           0       -1.730769    0.413245    1.425370
     10          1           0       -4.931087   -0.470444   -1.294616
     11          1           0       -5.563142    1.953925   -1.349637
     12          7           0       -2.935216   -1.559977    0.097310
     13          8           0       -3.607142   -2.332494   -0.582668
     14          8           0       -1.980139   -1.883237    0.800139
     15          6           0        5.059573   -0.167336    0.058993
     16          6           0        5.802918    1.099249   -0.366666
     17          6           0        7.303494    1.027854   -0.082121
     18          1           0        5.223071   -0.337709    1.131926
     19          1           0        5.492221   -1.031338   -0.464181
     20          1           0        5.368089    1.960786    0.156108
     21          1           0        5.637476    1.266732   -1.438670
     22          1           0        7.757251    0.186661   -0.616070
     23          1           0        7.486334    0.884659    0.987770
     24          1           0        7.815304    1.943565   -0.394187
     25          6           0        3.558481   -0.111143   -0.219024
     26          6           0        2.815136   -1.377728    0.206634
     27          6           0        1.314559   -1.306332   -0.077911
     28          1           0        3.125834    0.752860    0.304149
     29          1           0        3.394984    0.059230   -1.291958
     30          1           0        2.980579   -1.545211    1.278640
     31          1           0        3.249966   -2.239265   -0.316140
     32          1           0        1.131720   -1.163137   -1.147802
     33          1           0        0.860803   -0.465140    0.456039
     34          1           0        0.802750   -2.222043    0.234156
 ---------------------------------------------------------------------

 SCF Done:  E(RHF) =  -669.535683444     A.U. after   15 cycles
 E2 =    -0.2091402438D+01 EUMP2 =    -0.67162708588283D+03

 The electronic state is 1-A.
 Alpha  occ. eigenvalues --  -20.60837 -20.60813 -15.85856 -11.31209 -11.27777
 Alpha  occ. eigenvalues --  -11.27771 -11.27521 -11.26794 -11.26784 -11.21441
 Alpha  occ. eigenvalues --  -11.21125 -11.21041 -11.20977 -11.20941 -11.20149
 Alpha  occ. eigenvalues --   -1.59887  -1.39443  -1.19380  -1.08780  -1.08090
 Alpha  occ. eigenvalues --   -1.04783  -1.03114  -0.95646  -0.95514  -0.86554
 Alpha  occ. eigenvalues --   -0.86181  -0.82453  -0.79197  -0.77909  -0.77488
 Alpha  occ. eigenvalues --   -0.72090  -0.71197  -0.70492  -0.65038  -0.64796
 Alpha  occ. eigenvalues --   -0.64726  -0.62136  -0.60525  -0.58913  -0.57141
 Alpha  occ. eigenvalues --   -0.55290  -0.54855  -0.53113  -0.52881  -0.52162
 Alpha  occ. eigenvalues --   -0.51973  -0.49534  -0.48846  -0.48828  -0.47494
 Alpha  occ. eigenvalues --   -0.46260  -0.45446  -0.45379  -0.44849  -0.43271
 Alpha  occ. eigenvalues --   -0.37358  -0.36382
 Alpha virt. eigenvalues --    0.05007   0.11236   0.16490   0.21107   0.23145
 Alpha virt. eigenvalues --    0.24464   0.26206   0.27131   0.27692   0.27893
 Alpha virt. eigenvalues --    0.29116   0.30510   0.31515   0.32060   0.32652

 Mulliken charges:
               1
     1  C   -0.170630
     2  C   -0.218868
     3  C   -0.171274
     4  C    0.158155
     5  C   -0.170816
     6  C   -0.218572
     7  H    0.225661
     8  H    0.223478
     9  H    0.277738
    10  H    0.275605
    11  H    0.223492
    12  N    0.489173
    13  O   -0.460144
    14  O   -0.459457
    15  C   -0.297758
    16  C   -0.299041
    17  C   -0.475457
    18  H    0.149072
    19  H    0.149986
    20  H    0.149871
    21  H    0.151399
    22  H    0.155531
    23  H    0.154891
    24  H    0.159082
    25  C   -0.296956
    26  C   -0.301574
    27  C   -0.474734
    28  H    0.144662
    29  H    0.148517
    30  H    0.150598
    31  H    0.151657
    32  H    0.149857
    33  H    0.143477
    34  H    0.183376
 Sum of Mulliken charges =  -0.00000

 Dipole moment (field-independent basis, Debye):
    X=             -1.4860    Y=              4.9111    Z=             -0.0916  Tot=              5.1318
 Quadrupole moment (field-independent basis, Debye-Ang):
   XX=            -85.4991   YY=            -95.9999   ZZ=            -92.5178
   XY=            -16.2377   XZ=              2.7784   YZ=              1.4525

 Normal termination of Gaussian 16 at Wed May  5 20:46:57 2021.
