 Gaussian 16, Revision A.03,
 Gaussian 16:  EM64L-G16RevA.03 25-Dec-2016

 -------------
 #p 6-31g* mp2
 -------------

 ------------------------------------------------------
 Input file generated by CHIRIPA (05-May-2021 14:53:11)
 ------------------------------------------------------
 Symbolic Z-matrix:
 Charge =  0 Multiplicity = 1

                         Standard orientation:
 ---------------------------------------------------------------------
 Center     Atomic      Atomic             Coordinates (Angstroms)
 Number     Number       Type             X           Y           Z
 ---------------------------------------------------------------------
      1          6           0       -2.978189   -0.562741   -0.720836
      2          6           0       -2.865812   -1.917512   -0.020871
      3          6           0       -2.392261   -3.029367   -0.957526
      4          1           0       -3.672417   -0.651190   -1.567695
      5          1           0       -2.000536   -0.294693   -1.144794
      6          1           0       -3.843047   -2.182280    0.402833
      7          1           0       -2.171917   -1.825780    0.824535
      8          1           0       -1.406722   -2.791358   -1.370644
      9          1           0       -3.087347   -3.149883   -1.794742
     10          1           0       -2.318982   -3.989104   -0.436570
     11          6           0       -3.450473    0.558898    0.202527
     12          6           0       -3.562851    1.913669   -0.497438
     13          6           0       -4.036402    3.025524    0.439216
     14          1           0       -4.428126    0.290850    0.626485
     15          1           0       -2.756245    0.647347    1.049385
     16          1           0       -4.256745    1.821938   -1.342845
     17          1           0       -2.585615    2.178437   -0.921142
     18          1           0       -3.341315    3.146040    1.276433
     19          1           0       -5.021940    2.787515    0.852334
     20          1           0       -4.109680    3.985261   -0.081739
     21          6           0        4.074022    1.750980   -0.726417
     22          6           0        4.373895    0.393163   -0.877854
     23          6           0        3.515225   -0.584842   -0.367229
     24          6           0        2.360108   -0.167632    0.292265
     25          6           0        2.033765    1.177334    0.459169
     26          6           0        2.906972    2.138049   -0.059565
     27          1           0        4.746705    2.504002   -1.126233
     28          1           0        5.279535    0.089642   -1.395286
     29          1           0        3.723047   -1.642952   -0.470326
     30          1           0        1.123528    1.449140    0.979753
     31          1           0        2.671537    3.191820    0.059524
     32          7           0        1.443378   -1.193850    0.837134
     33          8           0        0.432008   -0.800319    1.414111
     34          8           0        1.753572   -2.372300    0.676908
 ---------------------------------------------------------------------

 SCF Done:  E(RHF) =  -669.536542711     A.U. after   15 cycles
 E2 =    -0.2091836490D+01 EUMP2 =    -0.67162837920158D+03

 The electronic state is 1-A.
 Alpha  occ. eigenvalues --  -20.61073 -20.61063 -15.86087 -11.31366 -11.27923
 Alpha  occ. eigenvalues --  -11.27916 -11.27648 -11.26917 -11.26907 -11.21160
 Alpha  occ. eigenvalues --  -11.20782 -11.20586 -11.20417 -11.20137 -11.19838
 Alpha  occ. eigenvalues --   -1.60118  -1.39676  -1.19527  -1.08940  -1.07561
 Alpha  occ. eigenvalues --   -1.04916  -1.02656  -0.95788  -0.95146  -0.86319
 Alpha  occ. eigenvalues --   -0.86175  -0.82624  -0.78768  -0.77684  -0.77302
 Alpha  occ. eigenvalues --   -0.72310  -0.71432  -0.70634  -0.65186  -0.64918
 Alpha  occ. eigenvalues --   -0.64176  -0.62264  -0.60039  -0.58570  -0.56730
 Alpha  occ. eigenvalues --   -0.55421  -0.54440  -0.53249  -0.53007  -0.51870
 Alpha  occ. eigenvalues --   -0.51573  -0.49181  -0.49057  -0.49035  -0.47074
 Alpha  occ. eigenvalues --   -0.45806  -0.45168  -0.44859  -0.44561  -0.42910
 Alpha  occ. eigenvalues --   -0.37502  -0.36515
 Alpha virt. eigenvalues --    0.04817   0.11135   0.16300   0.21116   0.23408
 Alpha virt. eigenvalues --    0.25157   0.26815   0.27411   0.28173   0.28518
 Alpha virt. eigenvalues --    0.28954   0.31035   0.32117   0.32419   0.32742

 Mulliken charges:
               1
     1  C   -0.293680
     2  C   -0.310456
     3  C   -0.472562
     4  H    0.143893
     5  H    0.144730
     6  H    0.144625
     7  H    0.181068
     8  H    0.154694
     9  H    0.147002
    10  H    0.161413
    11  C   -0.300477
    12  C   -0.298288
    13  C   -0.474866
    14  H    0.147722
    15  H    0.157302
    16  H    0.150797
    17  H    0.146085
    18  H    0.152833
    19  H    0.156041
    20  H    0.156748
    21  C   -0.170408
    22  C   -0.218540
    23  C   -0.170601
    24  C    0.157878
    25  C   -0.170917
    26  C   -0.218481
    27  H    0.226357
    28  H    0.224145
    29  H    0.276095
    30  H    0.275564
    31  H    0.224272
    32  N    0.489310
    33  O   -0.461443
    34  O   -0.457855
 Sum of Mulliken charges =  -0.00000

 Dipole moment (field-independent basis, Debye):
    X=              3.5338    Y=              3.5217    Z=             -1.7475  Tot=              5.2862
 Quadrupole moment (field-independent basis, Debye-Ang):
   XX=            -77.8714   YY=            -94.7507   ZZ=            -96.5047
   XY=              6.2525   XZ=             -5.0329   YZ=              2.0363

 Normal termination of Gaussian 16 at Thu May  6 00:54:35 2021.
