 Gaussian 16, Revision A.03,
 Gaussian 16:  EM64L-G16RevA.03 25-Dec-2016

 -------------
 #p 6-31g* mp2
 -------------

 ------------------------------------------------------
 Input file generated by CHIRIPA (05-May-2021 14:55:25)
 ------------------------------------------------------
 Symbolic Z-matrix:
 Charge =  0 Multiplicity = 1

                         Standard orientation:
 ---------------------------------------------------------------------
 Center     Atomic      Atomic             Coordinates (Angstroms)
 Number     Number       Type             X           Y           Z
 ---------------------------------------------------------------------
      1          6           0        4.593308    0.986019   -0.375393
      2          6           0        3.525160    1.498533    0.368187
      3          6           0        2.413544    0.701212    0.656520
      4          6           0        2.403217   -0.610054    0.183483
      5          6           0        3.451923   -1.149529   -0.559802
      6          6           0        4.553351   -0.334049   -0.836201
      7          1           0        5.452881    1.612450   -0.594742
      8          1           0        3.553464    2.523350    0.727344
      9          1           0        1.572928    1.072532    1.230022
     10          1           0        3.394974   -2.174967   -0.904260
     11          1           0        5.381454   -0.734742   -1.413900
     12          7           0        1.231792   -1.463754    0.482412
     13          8           0        1.246954   -2.615731    0.054210
     14          8           0        0.320648   -0.964742    1.139253
     15          6           0       -2.727590    1.033681   -0.374830
     16          6           0       -2.796111    2.457403    0.178616
     17          6           0       -1.597475    3.311222   -0.236186
     18          1           0       -1.799517    0.557391   -0.030196
     19          1           0       -2.668535    1.076392   -1.471227
     20          1           0       -2.856415    2.411981    1.273565
     21          1           0       -3.724222    2.930294   -0.167220
     22          1           0       -1.536922    3.386268   -1.326737
     23          1           0       -0.664184    2.865011    0.122234
     24          1           0       -1.666853    4.325030    0.170311
     25          6           0       -3.918893    0.167865    0.031237
     26          6           0       -3.850372   -1.255858   -0.522207
     27          6           0       -5.049008   -2.109676   -0.107406
     28          1           0       -3.977948    0.125154    1.127634
     29          1           0       -4.846966    0.644155   -0.313397
     30          1           0       -2.922261   -1.728748   -0.176373
     31          1           0       -3.790068   -1.210435   -1.617158
     32          1           0       -5.982299   -1.663465   -0.465827
     33          1           0       -5.109561   -2.184723    0.983145
     34          1           0       -4.979631   -3.123484   -0.513903
 ---------------------------------------------------------------------

 SCF Done:  E(RHF) =  -669.536685461     A.U. after   15 cycles
 E2 =    -0.2091709759D+01 EUMP2 =    -0.67162839522017D+03

 The electronic state is 1-A.
 Alpha  occ. eigenvalues --  -20.61051 -20.61045 -15.86060 -11.31331 -11.27890
 Alpha  occ. eigenvalues --  -11.27883 -11.27612 -11.26885 -11.26874 -11.21055
 Alpha  occ. eigenvalues --  -11.20888 -11.20471 -11.20420 -11.20368 -11.20126
 Alpha  occ. eigenvalues --   -1.60096  -1.39655  -1.19493  -1.08907  -1.07556
 Alpha  occ. eigenvalues --   -1.04882  -1.02773  -0.95758  -0.95248  -0.86293
 Alpha  occ. eigenvalues --   -0.86273  -0.82595  -0.78839  -0.77665  -0.77314
 Alpha  occ. eigenvalues --   -0.72289  -0.71397  -0.70604  -0.65153  -0.64886
 Alpha  occ. eigenvalues --   -0.64163  -0.62234  -0.60168  -0.58646  -0.56843
 Alpha  occ. eigenvalues --   -0.55390  -0.54545  -0.53212  -0.52973  -0.51994
 Alpha  occ. eigenvalues --   -0.51689  -0.49230  -0.49049  -0.49036  -0.47166
 Alpha  occ. eigenvalues --   -0.45874  -0.45293  -0.44878  -0.44443  -0.42980
 Alpha  occ. eigenvalues --   -0.37465  -0.36477
 Alpha virt. eigenvalues --    0.04812   0.11144   0.16292   0.20656   0.23388
 Alpha virt. eigenvalues --    0.24611   0.26334   0.27522   0.27888   0.28804
 Alpha virt. eigenvalues --    0.29197   0.30804   0.31460   0.32199   0.32734

 Mulliken charges:
               1
     1  C   -0.170442
     2  C   -0.218459
     3  C   -0.172209
     4  C    0.158563
     5  C   -0.170629
     6  C   -0.218473
     7  H    0.226254
     8  H    0.224468
     9  H    0.277175
    10  H    0.275867
    11  H    0.223986
    12  N    0.489088
    13  O   -0.457899
    14  O   -0.461351
    15  C   -0.309826
    16  C   -0.298267
    17  C   -0.474335
    18  H    0.171077
    19  H    0.143849
    20  H    0.152113
    21  H    0.149747
    22  H    0.154628
    23  H    0.147248
    24  H    0.157093
    25  C   -0.295962
    26  C   -0.304520
    27  C   -0.475184
    28  H    0.150525
    29  H    0.143971
    30  H    0.169835
    31  H    0.147000
    32  H    0.150491
    33  H    0.155243
    34  H    0.159338
 Sum of Mulliken charges =  -0.00000

 Dipole moment (field-independent basis, Debye):
    X=              4.3950    Y=              2.8099    Z=             -0.9882  Tot=              5.3093
 Quadrupole moment (field-independent basis, Debye-Ang):
   XX=            -75.6274   YY=            -96.7226   ZZ=            -94.0412
   XY=              2.5024   XZ=             -2.8363   YZ=              3.3133

 Normal termination of Gaussian 16 at Wed May  5 17:40:29 2021.
