 Gaussian 16, Revision A.03,
 Gaussian 16:  EM64L-G16RevA.03 25-Dec-2016

 -------------
 #p 6-31g* mp2
 -------------

 ------------------------------------------------------
 Input file generated by CHIRIPA (05-May-2021 14:57:23)
 ------------------------------------------------------
 Symbolic Z-matrix:
 Charge =  0 Multiplicity = 1

                         Standard orientation:
 ---------------------------------------------------------------------
 Center     Atomic      Atomic             Coordinates (Angstroms)
 Number     Number       Type             X           Y           Z
 ---------------------------------------------------------------------
      1          6           0       -2.673702   -2.581021    0.113676
      2          6           0       -3.998980   -2.134351    0.139094
      3          6           0       -4.290759   -0.770867    0.037490
      4          6           0       -3.227964    0.122317   -0.088928
      5          6           0       -1.897153   -0.291715   -0.117375
      6          6           0       -1.628861   -1.659901   -0.014251
      7          1           0       -2.456164   -3.642035    0.193195
      8          1           0       -4.812434   -2.847434    0.238348
      9          1           0       -5.307564   -0.397720    0.054411
     10          1           0       -1.107501    0.443047   -0.217330
     11          1           0       -0.598670   -2.003924   -0.034279
     12          7           0       -3.524425    1.568265   -0.197296
     13          8           0       -2.570171    2.334961   -0.307814
     14          8           0       -4.705432    1.907525   -0.169664
     15          6           0        2.783720    2.596233    0.311910
     16          6           0        3.999583    2.127321   -0.196342
     17          6           0        4.229621    0.755230   -0.334163
     18          6           0        3.217328   -0.123788    0.047783
     19          6           0        1.995361    0.312479    0.557451
     20          6           0        1.787247    1.688914    0.686523
     21          1           0        2.613536    3.663795    0.415575
     22          1           0        4.775260    2.829647   -0.488077
     23          1           0        5.161573    0.364929   -0.724738
     24          1           0        1.241115   -0.411967    0.839778
     25          1           0        0.842013    2.050218    1.081542
     26          7           0        3.449254   -1.578659   -0.093491
     27          8           0        2.541394   -2.332531    0.250171
     28          8           0        4.534507   -1.937568   -0.545209
 ---------------------------------------------------------------------

 SCF Done:  E(RHF) =  -868.339777828     A.U. after   16 cycles
 E2 =    -0.2600819800D+01 EUMP2 =    -0.87094059762878D+03

 The electronic state is 1-A.
 Alpha  occ. eigenvalues --  -20.61495 -20.61442 -20.61161 -20.61122 -15.86498
 Alpha  occ. eigenvalues --  -15.86186 -11.31661 -11.31383 -11.28254 -11.28146
 Alpha  occ. eigenvalues --  -11.27941 -11.27892 -11.27770 -11.27514 -11.27102
 Alpha  occ. eigenvalues --  -11.27084 -11.26858 -11.26762  -1.60524  -1.60214
 Alpha  occ. eigenvalues --   -1.40092  -1.39777  -1.19786  -1.19509  -1.09187
 Alpha  occ. eigenvalues --   -1.08910  -1.05184  -1.04878  -0.96077  -0.95791
 Alpha  occ. eigenvalues --   -0.86555  -0.86271  -0.82930  -0.82641  -0.78107
 Alpha  occ. eigenvalues --   -0.77658  -0.72725  -0.72411  -0.71829  -0.71530
 Alpha  occ. eigenvalues --   -0.70900  -0.70562  -0.65450  -0.65245  -0.65084
 Alpha  occ. eigenvalues --   -0.64781  -0.62776  -0.61973  -0.55596  -0.55313
 Alpha  occ. eigenvalues --   -0.53491  -0.53297  -0.53197  -0.52879  -0.49499
 Alpha  occ. eigenvalues --   -0.49440  -0.49178  -0.49133  -0.45535  -0.45221
 Alpha  occ. eigenvalues --   -0.37692  -0.37436  -0.36756  -0.36494
 Alpha virt. eigenvalues --    0.04438   0.04764   0.10876   0.11154   0.15904
 Alpha virt. eigenvalues --    0.16261   0.19744   0.22379   0.25533   0.26816
 Alpha virt. eigenvalues --    0.28237   0.28978   0.30500   0.31396   0.32799

 Mulliken charges:
               1
     1  C   -0.170619
     2  C   -0.218256
     3  C   -0.170919
     4  C    0.158724
     5  C   -0.180121
     6  C   -0.232496
     7  H    0.231481
     8  H    0.224730
     9  H    0.275523
    10  H    0.270939
    11  H    0.244211
    12  N    0.488758
    13  O   -0.468006
    14  O   -0.457902
    15  C   -0.169430
    16  C   -0.217906
    17  C   -0.170267
    18  C    0.158380
    19  C   -0.179419
    20  C   -0.222891
    21  H    0.232097
    22  H    0.226132
    23  H    0.276534
    24  H    0.271477
    25  H    0.235976
    26  N    0.490380
    27  O   -0.471947
    28  O   -0.455163
 Sum of Mulliken charges =  -0.00000

 Dipole moment (field-independent basis, Debye):
    X=              0.3881    Y=              0.0735    Z=              0.8552  Tot=              0.9420
 Quadrupole moment (field-independent basis, Debye-Ang):
   XX=           -106.6386   YY=           -107.1595   ZZ=           -105.7905
   XY=             36.5073   XZ=             -2.1306   YZ=              0.3971

 Normal termination of Gaussian 16 at Thu May  6 06:35:36 2021.
