 Gaussian 16, Revision A.03,
 Gaussian 16:  EM64L-G16RevA.03 25-Dec-2016

 -------------
 #p 6-31g* mp2
 -------------

 ------------------------------------------------------
 Input file generated by CHIRIPA (05-May-2021 14:53:18)
 ------------------------------------------------------
 Symbolic Z-matrix:
 Charge =  0 Multiplicity = 1

                         Standard orientation:
 ---------------------------------------------------------------------
 Center     Atomic      Atomic             Coordinates (Angstroms)
 Number     Number       Type             X           Y           Z
 ---------------------------------------------------------------------
      1          6           0       -2.733894    1.018201   -0.168165
      2          6           0       -1.744581    1.982530    0.487056
      3          6           0       -2.222334    3.434509    0.450978
      4          1           0       -2.900181    1.325214   -1.209815
      5          1           0       -3.704758    1.098467    0.340141
      6          1           0       -0.775485    1.899464   -0.021441
      7          1           0       -1.580482    1.673072    1.527212
      8          1           0       -3.177671    3.538867    0.975422
      9          1           0       -2.368100    3.766546   -0.582030
     10          1           0       -1.500078    4.106684    0.924673
     11          6           0       -2.270315   -0.437143   -0.139945
     12          6           0       -3.259627   -1.401472   -0.795167
     13          6           0       -2.781874   -2.853452   -0.759088
     14          1           0       -1.299450   -0.517410   -0.648251
     15          1           0       -2.104027   -0.744157    0.901705
     16          1           0       -3.423726   -1.092015   -1.835322
     17          1           0       -4.228723   -1.318407   -0.286669
     18          1           0       -2.636108   -3.185488    0.273920
     19          1           0       -1.826538   -2.957810   -1.283532
     20          1           0       -3.504130   -3.525627   -1.232783
     21          6           0        1.315321   -2.443442    1.142268
     22          6           0        2.025469   -2.406835   -0.062253
     23          6           0        2.385056   -1.184455   -0.637606
     24          6           0        2.016588   -0.012696    0.021561
     25          6           0        1.309019   -0.016339    1.222653
     26          6           0        0.959989   -1.250181    1.779753
     27          1           0        1.040086   -3.397468    1.582126
     28          1           0        2.302760   -3.331955   -0.559554
     29          1           0        2.934800   -1.127148   -1.569225
     30          1           0        1.046675    0.922547    1.694972
     31          1           0        0.408476   -1.275573    2.715292
     32          7           0        2.391679    1.287451   -0.577878
     33          8           0        2.055175    2.305689    0.022617
     34          8           0        3.015075    1.263649   -1.636862
 ---------------------------------------------------------------------

 SCF Done:  E(RHF) =  -669.534947783     A.U. after   15 cycles
 E2 =    -0.2095451724D+01 EUMP2 =    -0.67163039950746D+03

 The electronic state is 1-A.
 Alpha  occ. eigenvalues --  -20.60932 -20.60913 -15.85938 -11.31215 -11.27811
 Alpha  occ. eigenvalues --  -11.27739 -11.27523 -11.26795 -11.26747 -11.21766
 Alpha  occ. eigenvalues --  -11.21432 -11.21412 -11.21399 -11.21291 -11.20704
 Alpha  occ. eigenvalues --   -1.59982  -1.39539  -1.19399  -1.08807  -1.08442
 Alpha  occ. eigenvalues --   -1.04786  -1.03519  -0.95966  -0.95653  -0.86995
 Alpha  occ. eigenvalues --   -0.86188  -0.82488  -0.79625  -0.78319  -0.77497
 Alpha  occ. eigenvalues --   -0.72165  -0.71301  -0.70499  -0.65129  -0.65006
 Alpha  occ. eigenvalues --   -0.64784  -0.62145  -0.60919  -0.59345  -0.57577
 Alpha  occ. eigenvalues --   -0.55301  -0.55260  -0.53230  -0.52899  -0.52598
 Alpha  occ. eigenvalues --   -0.52371  -0.49933  -0.48955  -0.48919  -0.47912
 Alpha  occ. eigenvalues --   -0.46675  -0.45807  -0.45778  -0.44728  -0.43757
 Alpha  occ. eigenvalues --   -0.37355  -0.36293
 Alpha virt. eigenvalues --    0.04968   0.11170   0.16352   0.20827   0.22936
 Alpha virt. eigenvalues --    0.24073   0.25716   0.26853   0.27703   0.28024
 Alpha virt. eigenvalues --    0.28827   0.30540   0.31218   0.31699   0.31984

 Mulliken charges:
               1
     1  C   -0.298324
     2  C   -0.305577
     3  C   -0.474782
     4  H    0.151778
     5  H    0.147607
     6  H    0.164451
     7  H    0.138908
     8  H    0.151056
     9  H    0.157543
    10  H    0.166165
    11  C   -0.298004
    12  C   -0.299613
    13  C   -0.474546
    14  H    0.153283
    15  H    0.142269
    16  H    0.153766
    17  H    0.151588
    18  H    0.149115
    19  H    0.154338
    20  H    0.160574
    21  C   -0.169449
    22  C   -0.219326
    23  C   -0.171937
    24  C    0.156307
    25  C   -0.167801
    26  C   -0.216258
    27  H    0.226084
    28  H    0.223684
    29  H    0.275472
    30  H    0.278676
    31  H    0.222872
    32  N    0.487785
    33  O   -0.458635
    34  O   -0.459069
 Sum of Mulliken charges =  -0.00000

 Dipole moment (field-independent basis, Debye):
    X=             -1.1794    Y=             -4.4817    Z=              2.0448  Tot=              5.0654
 Quadrupole moment (field-independent basis, Debye-Ang):
   XX=            -99.9949   YY=            -94.9911   ZZ=            -91.3193
   XY=            -10.3012   XZ=              2.1503   YZ=              1.6106

 Normal termination of Gaussian 16 at Wed May  5 17:18:27 2021.
