 Gaussian 16, Revision A.03,
 Gaussian 16:  EM64L-G16RevA.03 25-Dec-2016

 -------------
 #p 6-31g* mp2
 -------------

 ------------------------------------------------------
 Input file generated by CHIRIPA (05-May-2021 14:57:22)
 ------------------------------------------------------
 Symbolic Z-matrix:
 Charge =  0 Multiplicity = 1

                         Standard orientation:
 ---------------------------------------------------------------------
 Center     Atomic      Atomic             Coordinates (Angstroms)
 Number     Number       Type             X           Y           Z
 ---------------------------------------------------------------------
      1          6           0       -5.671702    0.630943    0.214444
      2          6           0       -4.914088    0.938872   -0.920334
      3          6           0       -3.590639    0.501955   -1.030496
      4          6           0       -3.054130   -0.244210    0.017686
      5          6           0       -3.783363   -0.567189    1.161012
      6          6           0       -5.104921   -0.119782    1.249670
      7          1           0       -6.699054    0.974425    0.291668
      8          1           0       -5.351650    1.521728   -1.725855
      9          1           0       -2.981535    0.726065   -1.897781
     10          1           0       -3.319708   -1.149964    1.947660
     11          1           0       -5.690926   -0.360420    2.132130
     12          7           0       -1.654055   -0.712308   -0.087555
     13          8           0       -1.204583   -1.368198    0.849685
     14          8           0       -1.032660   -0.414449   -1.105290
     15          6           0        3.216802    2.661631    0.337006
     16          6           0        3.963656    1.846250    1.193676
     17          6           0        4.008591    0.462825    0.997047
     18          6           0        3.291461   -0.074103   -0.070999
     19          6           0        2.538228    0.711849   -0.941751
     20          6           0        2.507722    2.092831   -0.726098
     21          1           0        3.187499    3.735361    0.497141
     22          1           0        4.515322    2.285234    2.020117
     23          1           0        4.578731   -0.191738    1.645048
     24          1           0        1.998685    0.245225   -1.756964
     25          1           0        1.926861    2.723622   -1.392994
     26          7           0        3.331393   -1.537381   -0.289230
     27          8           0        2.690833   -1.985912   -1.237460
     28          8           0        4.002497   -2.208059    0.492082
 ---------------------------------------------------------------------

 SCF Done:  E(RHF) =  -868.337757323     A.U. after   16 cycles
 E2 =    -0.2599623329D+01 EUMP2 =    -0.87093738065173D+03

 The electronic state is 1-A.
 Alpha  occ. eigenvalues --  -20.60883 -20.60849 -20.59420 -20.59351 -15.85918
 Alpha  occ. eigenvalues --  -15.84449 -11.31309 -11.29913 -11.27899 -11.27857
 Alpha  occ. eigenvalues --  -11.27623 -11.26909 -11.26882 -11.26618 -11.26437
 Alpha  occ. eigenvalues --  -11.26428 -11.25677 -11.25594  -1.59924  -1.58453
 Alpha  occ. eigenvalues --   -1.39484  -1.38004  -1.19481  -1.18145  -1.08869
 Alpha  occ. eigenvalues --   -1.07542  -1.04889  -1.03573  -0.95701  -0.94345
 Alpha  occ. eigenvalues --   -0.86285  -0.84975  -0.82537  -0.81183  -0.77580
 Alpha  occ. eigenvalues --   -0.76177  -0.72142  -0.71246  -0.70685  -0.70589
 Alpha  occ. eigenvalues --   -0.69756  -0.69292  -0.65136  -0.64891  -0.63816
 Alpha  occ. eigenvalues --   -0.63614  -0.62237  -0.60906  -0.55386  -0.54147
 Alpha  occ. eigenvalues --   -0.53216  -0.52982  -0.51902  -0.51689  -0.48882
 Alpha  occ. eigenvalues --   -0.48869  -0.47460  -0.47406  -0.44883  -0.43386
 Alpha  occ. eigenvalues --   -0.37462  -0.36495  -0.36178  -0.35162
 Alpha virt. eigenvalues --    0.04951   0.06384   0.11159   0.12481   0.16445
 Alpha virt. eigenvalues --    0.17798   0.21290   0.22451   0.27198   0.28109
 Alpha virt. eigenvalues --    0.28395   0.29406   0.30855   0.31933   0.32406

 Mulliken charges:
               1
     1  C   -0.170890
     2  C   -0.218520
     3  C   -0.171360
     4  C    0.158716
     5  C   -0.170684
     6  C   -0.218528
     7  H    0.225808
     8  H    0.223036
     9  H    0.273345
    10  H    0.277037
    11  H    0.224095
    12  N    0.489757
    13  O   -0.454740
    14  O   -0.465407
    15  C   -0.171785
    16  C   -0.220077
    17  C   -0.170879
    18  C    0.158308
    19  C   -0.159832
    20  C   -0.221764
    21  H    0.219666
    22  H    0.218211
    23  H    0.272560
    24  H    0.286238
    25  H    0.218602
    26  N    0.489723
    27  O   -0.453423
    28  O   -0.467216
 Sum of Mulliken charges =  -0.00000

 Dipole moment (field-independent basis, Debye):
    X=             -5.3800    Y=              6.5561    Z=              1.0514  Tot=              8.5459
 Quadrupole moment (field-independent basis, Debye-Ang):
   XX=            -76.0397   YY=           -107.2771   ZZ=            -98.2268
   XY=             12.5787   XZ=              3.0838   YZ=             -3.2909

 Normal termination of Gaussian 16 at Fri May  7 07:53:31 2021.
