 Gaussian 16, Revision A.03,
 Gaussian 16:  EM64L-G16RevA.03 25-Dec-2016

 -------------
 #p 6-31g* mp2
 -------------

 ------------------------------------------------------
 Input file generated by CHIRIPA (05-May-2021 14:53:13)
 ------------------------------------------------------
 Symbolic Z-matrix:
 Charge =  0 Multiplicity = 1

                         Standard orientation:
 ---------------------------------------------------------------------
 Center     Atomic      Atomic             Coordinates (Angstroms)
 Number     Number       Type             X           Y           Z
 ---------------------------------------------------------------------
      1          6           0        4.288241   -0.034716    0.401142
      2          6           0        4.797239    0.824860   -0.756458
      3          6           0        6.247696    1.270575   -0.568563
      4          1           0        4.380945    0.531297    1.338148
      5          1           0        4.933769   -0.917917    0.504310
      6          1           0        4.150119    1.705474   -0.858295
      7          1           0        4.703134    0.256805   -1.690842
      8          1           0        6.910212    0.402613   -0.489084
      9          1           0        6.354055    1.859512    0.348193
     10          1           0        6.591130    1.883822   -1.407515
     11          6           0        2.839736   -0.488055    0.227809
     12          6           0        2.330738   -1.347630    1.385409
     13          6           0        0.880280   -1.793346    1.197514
     14          1           0        2.194207    0.395146    0.124641
     15          1           0        2.747031   -1.054068   -0.709197
     16          1           0        2.424843   -0.779576    2.319793
     17          1           0        2.977858   -2.228244    1.487246
     18          1           0        0.773922   -2.382283    0.280758
     19          1           0        0.217765   -0.925384    1.118035
     20          1           0        0.536847   -2.406593    2.036467
     21          6           0       -3.242171    2.563583    0.522223
     22          6           0       -4.164353    1.547605    0.794051
     23          6           0       -3.921087    0.236729    0.373370
     24          6           0       -2.740107   -0.023888   -0.319923
     25          6           0       -1.801903    0.966682   -0.605990
     26          6           0       -2.065963    2.270395   -0.175699
     27          1           0       -3.439224    3.579121    0.852752
     28          1           0       -5.078653    1.772386    1.335877
     29          1           0       -4.617882   -0.568931    0.570363
     30          1           0       -0.899347    0.711918   -1.148121
     31          1           0       -1.347989    3.057413   -0.388214
     32          7           0       -2.471564   -1.407863   -0.770366
     33          8           0       -1.423637   -1.611556   -1.379457
     34          8           0       -3.314095   -2.262724   -0.505802
 ---------------------------------------------------------------------

 SCF Done:  E(RHF) =  -669.535617824     A.U. after   15 cycles
 E2 =    -0.2092487105D+01 EUMP2 =    -0.67162810492892D+03

 The electronic state is 1-A.
 Alpha  occ. eigenvalues --  -20.60822 -20.60797 -15.85841 -11.31228 -11.27789
 Alpha  occ. eigenvalues --  -11.27785 -11.27538 -11.26815 -11.26805 -11.21549
 Alpha  occ. eigenvalues --  -11.21238 -11.21173 -11.21112 -11.21038 -11.20248
 Alpha  occ. eigenvalues --   -1.59870  -1.39427  -1.19399  -1.08790  -1.08200
 Alpha  occ. eigenvalues --   -1.04803  -1.03229  -0.95685  -0.95600  -0.86677
 Alpha  occ. eigenvalues --   -0.86198  -0.82460  -0.79318  -0.78022  -0.77487
 Alpha  occ. eigenvalues --   -0.72078  -0.71182  -0.70503  -0.65053  -0.64855
 Alpha  occ. eigenvalues --   -0.64787  -0.62149  -0.60628  -0.59063  -0.57269
 Alpha  occ. eigenvalues --   -0.55303  -0.54951  -0.53127  -0.52892  -0.52347
 Alpha  occ. eigenvalues --   -0.52084  -0.49604  -0.48834  -0.48828  -0.47646
 Alpha  occ. eigenvalues --   -0.46354  -0.45628  -0.45474  -0.44618  -0.43507
 Alpha  occ. eigenvalues --   -0.37367  -0.36397
 Alpha virt. eigenvalues --    0.05009   0.11153   0.16481   0.21063   0.23035
 Alpha virt. eigenvalues --    0.24362   0.26218   0.27265   0.27682   0.28288
 Alpha virt. eigenvalues --    0.28799   0.30921   0.31506   0.31972   0.32434

 Mulliken charges:
               1
     1  C   -0.297985
     2  C   -0.298984
     3  C   -0.475493
     4  H    0.147875
     5  H    0.150831
     6  H    0.147586
     7  H    0.153555
     8  H    0.156169
     9  H    0.154213
    10  H    0.159451
    11  C   -0.296657
    12  C   -0.300451
    13  C   -0.479632
    14  H    0.139871
    15  H    0.155544
    16  H    0.147386
    17  H    0.152043
    18  H    0.177311
    19  H    0.144764
    20  H    0.157437
    21  C   -0.170761
    22  C   -0.218418
    23  C   -0.170878
    24  C    0.159312
    25  C   -0.172677
    26  C   -0.219199
    27  H    0.225749
    28  H    0.223652
    29  H    0.275813
    30  H    0.277789
    31  H    0.223637
    32  N    0.489280
    33  O   -0.458211
    34  O   -0.459922
 Sum of Mulliken charges =  -0.00000

 Dipole moment (field-independent basis, Debye):
    X=             -1.0572    Y=              4.7332    Z=              1.4780  Tot=              5.0701
 Quadrupole moment (field-independent basis, Debye-Ang):
   XX=            -87.0692   YY=            -94.2797   ZZ=            -95.6952
   XY=            -13.0057   XZ=             -6.4740   YZ=             -1.6820

 Normal termination of Gaussian 16 at Wed May  5 18:35:09 2021.
