 Gaussian 16, Revision A.03,
 Gaussian 16:  EM64L-G16RevA.03 25-Dec-2016

 -------------
 #p 6-31g* mp2
 -------------

 ------------------------------------------------------
 Input file generated by CHIRIPA (05-May-2021 14:57:24)
 ------------------------------------------------------
 Symbolic Z-matrix:
 Charge =  0 Multiplicity = 1

                         Standard orientation:
 ---------------------------------------------------------------------
 Center     Atomic      Atomic             Coordinates (Angstroms)
 Number     Number       Type             X           Y           Z
 ---------------------------------------------------------------------
      1          6           0        1.896339    1.045981    0.424902
      2          6           0        2.813553    1.663049   -0.432109
      3          6           0        4.086351    1.116750   -0.622081
      4          6           0        4.410016   -0.052840    0.063915
      5          6           0        3.518177   -0.691088    0.924469
      6          6           0        2.250954   -0.127050    1.099267
      7          1           0        0.909764    1.477249    0.566583
      8          1           0        2.540896    2.574121   -0.957134
      9          1           0        4.815842    1.573774   -1.279644
     10          1           0        3.818867   -1.598442    1.434089
     11          1           0        1.540669   -0.608443    1.765451
     12          7           0        5.754520   -0.640571   -0.129167
     13          8           0        6.015277   -1.671697    0.486806
     14          8           0        6.522127   -0.058981   -0.892823
     15          6           0       -6.614306   -0.728083    0.018697
     16          6           0       -5.659112   -1.617708   -0.483988
     17          6           0       -4.312173   -1.249378   -0.552062
     18          6           0       -3.953901    0.022107   -0.106801
     19          6           0       -4.882084    0.930833    0.399146
     20          6           0       -6.223432    0.541111    0.457886
     21          1           0       -7.658469   -1.022519    0.067954
     22          1           0       -5.959787   -2.604025   -0.825779
     23          1           0       -3.551958   -1.918358   -0.936717
     24          1           0       -4.551983    1.907262    0.732368
     25          1           0       -6.963074    1.234074    0.848751
     26          7           0       -2.530916    0.423364   -0.173927
     27          8           0       -2.240920    1.549267    0.224672
     28          8           0       -1.732520   -0.395631   -0.623870
 ---------------------------------------------------------------------

 SCF Done:  E(RHF) =  -868.341144927     A.U. after   16 cycles
 E2 =    -0.2598387275D+01 EUMP2 =    -0.87093953220172D+03

 The electronic state is 1-A.
 Alpha  occ. eigenvalues --  -20.62007 -20.61999 -20.59827 -20.59822 -15.86986
 Alpha  occ. eigenvalues --  -15.84875 -11.32012 -11.29951 -11.28540 -11.28524
 Alpha  occ. eigenvalues --  -11.28208 -11.27469 -11.27455 -11.26540 -11.26530
 Alpha  occ. eigenvalues --  -11.25934 -11.25383 -11.25360  -1.61054  -1.58911
 Alpha  occ. eigenvalues --   -1.40610  -1.38473  -1.20150  -1.18088  -1.09611
 Alpha  occ. eigenvalues --   -1.07475  -1.05496  -1.03474  -0.96501  -0.94365
 Alpha  occ. eigenvalues --   -0.86910  -0.84852  -0.83342  -0.81237  -0.78429
 Alpha  occ. eigenvalues --   -0.76374  -0.73211  -0.72342  -0.71248  -0.71099
 Alpha  occ. eigenvalues --   -0.70234  -0.69046  -0.65802  -0.65492  -0.63717
 Alpha  occ. eigenvalues --   -0.63460  -0.62844  -0.60854  -0.56011  -0.53851
 Alpha  occ. eigenvalues --   -0.53772  -0.53579  -0.51793  -0.51553  -0.49991
 Alpha  occ. eigenvalues --   -0.49939  -0.47870  -0.47825  -0.46086  -0.43946
 Alpha  occ. eigenvalues --   -0.38108  -0.37083  -0.35940  -0.35106
 Alpha virt. eigenvalues --    0.04072   0.06189   0.10577   0.12581   0.15644
 Alpha virt. eigenvalues --    0.17788   0.20764   0.22911   0.26702   0.27633
 Alpha virt. eigenvalues --    0.28536   0.29912   0.30433   0.31815   0.32708

 Mulliken charges:
               1
     1  C   -0.169776
     2  C   -0.221614
     3  C   -0.172127
     4  C    0.156223
     5  C   -0.172690
     6  C   -0.218308
     7  H    0.247911
     8  H    0.221599
     9  H    0.271123
    10  H    0.270712
    11  H    0.221799
    12  N    0.488435
    13  O   -0.464279
    14  O   -0.464038
    15  C   -0.169471
    16  C   -0.218598
    17  C   -0.170530
    18  C    0.157585
    19  C   -0.170520
    20  C   -0.218569
    21  H    0.228495
    22  H    0.226289
    23  H    0.276974
    24  H    0.275540
    25  H    0.225745
    26  N    0.488782
    27  O   -0.467516
    28  O   -0.459175
 Sum of Mulliken charges =  -0.00000

 Dipole moment (field-independent basis, Debye):
    X=            -10.5165    Y=              0.6572    Z=              0.8994  Tot=             10.5753
 Quadrupole moment (field-independent basis, Debye-Ang):
   XX=           -108.1989   YY=            -98.8826   ZZ=           -103.3915
   XY=             15.2630   XZ=              0.9622   YZ=             -0.2761

 Normal termination of Gaussian 16 at Thu May  6 18:00:41 2021.
