 Gaussian 16, Revision A.03,
 Gaussian 16:  EM64L-G16RevA.03 25-Dec-2016

 -------------
 #p 6-31g* mp2
 -------------

 ------------------------------------------------------
 Input file generated by CHIRIPA (05-May-2021 14:57:24)
 ------------------------------------------------------
 Symbolic Z-matrix:
 Charge =  0 Multiplicity = 1

                         Standard orientation:
 ---------------------------------------------------------------------
 Center     Atomic      Atomic             Coordinates (Angstroms)
 Number     Number       Type             X           Y           Z
 ---------------------------------------------------------------------
      1          6           0        1.032304    1.287373    1.290943
      2          6           0        1.815673    1.899355    0.306905
      3          6           0        2.905121    1.226082   -0.253767
      4          6           0        3.183913   -0.063914    0.195092
      5          6           0        2.422281   -0.700487    1.173857
      6          6           0        1.337570   -0.008311    1.720522
      7          1           0        0.187834    1.817730    1.721046
      8          1           0        1.580944    2.905514   -0.028641
      9          1           0        3.528219    1.676175   -1.017039
     10          1           0        2.680978   -1.704379    1.488016
     11          1           0        0.730939   -0.486067    2.484586
     12          7           0        4.334756   -0.786685   -0.391052
     13          8           0        4.559512   -1.922411    0.021558
     14          8           0        4.990239   -0.203779   -1.251981
     15          6           0       -2.140393    2.300670   -0.586165
     16          6           0       -1.455663    1.229833   -1.170095
     17          6           0       -1.919634   -0.079657   -1.013529
     18          6           0       -3.076787   -0.282965   -0.263227
     19          6           0       -3.781141    0.763061    0.330916
     20          6           0       -3.298904    2.064283    0.161159
     21          1           0       -1.772875    3.314702   -0.712913
     22          1           0       -0.555680    1.410435   -1.751007
     23          1           0       -1.409075   -0.927083   -1.454683
     24          1           0       -4.675463    0.551636    0.904419
     25          1           0       -3.832723    2.893978    0.615790
     26          7           0       -3.577642   -1.664886   -0.090496
     27          8           0       -4.599480   -1.817497    0.575231
     28          8           0       -2.938889   -2.569260   -0.624107
 ---------------------------------------------------------------------

 SCF Done:  E(RHF) =  -868.336387133     A.U. after   16 cycles
 E2 =    -0.2602685374D+01 EUMP2 =    -0.87093907250720D+03

 The electronic state is 1-A.
 Alpha  occ. eigenvalues --  -20.61337 -20.61328 -20.61104 -20.61089 -15.86388
 Alpha  occ. eigenvalues --  -15.86162 -11.31887 -11.31617 -11.28432 -11.28356
 Alpha  occ. eigenvalues --  -11.28304 -11.28234 -11.28194 -11.27967 -11.27552
 Alpha  occ. eigenvalues --  -11.27435 -11.27321 -11.27140  -1.60410  -1.60176
 Alpha  occ. eigenvalues --   -1.39957  -1.39726  -1.20070  -1.19831  -1.09474
 Alpha  occ. eigenvalues --   -1.09184  -1.05456  -1.05255  -0.96265  -0.96004
 Alpha  occ. eigenvalues --   -0.86885  -0.86616  -0.83066  -0.82841  -0.78086
 Alpha  occ. eigenvalues --   -0.77874  -0.72599  -0.72373  -0.71742  -0.71508
 Alpha  occ. eigenvalues --   -0.71189  -0.70908  -0.65710  -0.65522  -0.65440
 Alpha  occ. eigenvalues --   -0.65219  -0.62788  -0.62583  -0.56009  -0.55761
 Alpha  occ. eigenvalues --   -0.54152  -0.53570  -0.53336  -0.53191  -0.49371
 Alpha  occ. eigenvalues --   -0.49349  -0.49142  -0.49122  -0.45331  -0.45112
 Alpha  occ. eigenvalues --   -0.38540  -0.37837  -0.36886  -0.36513
 Alpha virt. eigenvalues --    0.04386   0.04657   0.10013   0.11317   0.15768
 Alpha virt. eigenvalues --    0.16090   0.19897   0.21591   0.25858   0.26905
 Alpha virt. eigenvalues --    0.27693   0.28445   0.30152   0.30708   0.31896

 Mulliken charges:
               1
     1  C   -0.162706
     2  C   -0.227195
     3  C   -0.173490
     4  C    0.157011
     5  C   -0.169425
     6  C   -0.220984
     7  H    0.227341
     8  H    0.216646
     9  H    0.275518
    10  H    0.279494
    11  H    0.227901
    12  N    0.488133
    13  O   -0.457522
    14  O   -0.460956
    15  C   -0.181952
    16  C   -0.211974
    17  C   -0.171159
    18  C    0.157383
    19  C   -0.173236
    20  C   -0.220087
    21  H    0.222497
    22  H    0.226978
    23  H    0.279488
    24  H    0.277034
    25  H    0.224565
    26  N    0.487418
    27  O   -0.459338
    28  O   -0.457382
 Sum of Mulliken charges =  -0.00000

 Dipole moment (field-independent basis, Debye):
    X=             -2.3126    Y=              7.1618    Z=              1.5034  Tot=              7.6746
 Quadrupole moment (field-independent basis, Debye-Ang):
   XX=           -139.3987   YY=           -105.3334   ZZ=           -101.3444
   XY=             -7.8775   XZ=              4.3644   YZ=             -2.3238

 Normal termination of Gaussian 16 at Fri May  7 09:34:27 2021.
