 Gaussian 16, Revision A.03,
 Gaussian 16:  EM64L-G16RevA.03 25-Dec-2016

 -------------
 #p 6-31g* mp2
 -------------

 ------------------------------------------------------
 Input file generated by CHIRIPA (05-May-2021 14:55:20)
 ------------------------------------------------------
 Symbolic Z-matrix:
 Charge =  0 Multiplicity = 1

                         Standard orientation:
 ---------------------------------------------------------------------
 Center     Atomic      Atomic             Coordinates (Angstroms)
 Number     Number       Type             X           Y           Z
 ---------------------------------------------------------------------
      1          6           0        0.645413    0.274778    0.724402
      2          6           0        1.373732   -0.752648    1.333063
      3          6           0        2.706271   -0.984301    0.979193
      4          6           0        3.281645   -0.165757    0.008512
      5          6           0        2.582253    0.865810   -0.615995
      6          6           0        1.250930    1.079310   -0.246473
      7          1           0       -0.389263    0.447680    1.005376
      8          1           0        0.906061   -1.379028    2.087369
      9          1           0        3.293273   -1.772714    1.434441
     10          1           0        3.075658    1.473679   -1.364637
     11          1           0        0.687736    1.877955   -0.720840
     12          7           0        4.691701   -0.401388   -0.374400
     13          8           0        5.175635    0.333712   -1.232346
     14          8           0        5.286268   -1.316714    0.190671
     15          6           0       -3.328274    0.601366    0.154163
     16          6           0       -3.566276    2.094796   -0.071687
     17          6           0       -2.407644    2.959858    0.425338
     18          1           0       -3.166905    0.420200    1.225649
     19          1           0       -2.401875    0.303520   -0.356196
     20          1           0       -4.492683    2.389444    0.437792
     21          1           0       -3.727288    2.272401   -1.142737
     22          1           0       -1.479497    2.694306   -0.091020
     23          1           0       -2.249241    2.812014    1.498488
     24          1           0       -2.598728    4.023810    0.254012
     25          6           0       -4.477809   -0.276446   -0.337512
     26          6           0       -4.239806   -1.769876   -0.111662
     27          6           0       -5.398439   -2.634937   -0.608686
     28          1           0       -5.404208    0.021400    0.172848
     29          1           0       -4.639178   -0.095281   -1.408999
     30          1           0       -4.078795   -1.947482    0.959388
     31          1           0       -3.313400   -2.064525   -0.621141
     32          1           0       -5.556842   -2.487095   -1.681837
     33          1           0       -6.326586   -2.369386   -0.092328
     34          1           0       -5.207353   -3.698890   -0.437362
 ---------------------------------------------------------------------

 SCF Done:  E(RHF) =  -669.534804888     A.U. after   15 cycles
 E2 =    -0.2092779122D+01 EUMP2 =    -0.67162758401005D+03

 The electronic state is 1-A.
 Alpha  occ. eigenvalues --  -20.60692 -20.60687 -15.85746 -11.31087 -11.27665
 Alpha  occ. eigenvalues --  -11.27659 -11.27289 -11.26650 -11.26639 -11.22769
 Alpha  occ. eigenvalues --  -11.22650 -11.22448 -11.22421 -11.22312 -11.21711
 Alpha  occ. eigenvalues --   -1.59769  -1.39323  -1.19256  -1.09513  -1.08643
 Alpha  occ. eigenvalues --   -1.04667  -1.04547  -0.97023  -0.95487  -0.88039
 Alpha  occ. eigenvalues --   -0.86061  -0.82334  -0.80641  -0.79341  -0.77385
 Alpha  occ. eigenvalues --   -0.71964  -0.71092  -0.70345  -0.66142  -0.64904
 Alpha  occ. eigenvalues --   -0.64699  -0.62128  -0.61829  -0.60399  -0.58628
 Alpha  occ. eigenvalues --   -0.56344  -0.55152  -0.53663  -0.53480  -0.52974
 Alpha  occ. eigenvalues --   -0.52741  -0.50946  -0.48914  -0.48720  -0.48719
 Alpha  occ. eigenvalues --   -0.47658  -0.46815  -0.46740  -0.44807  -0.44734
 Alpha  occ. eigenvalues --   -0.37209  -0.36273
 Alpha virt. eigenvalues --    0.05137   0.11357   0.16573   0.19577   0.22339
 Alpha virt. eigenvalues --    0.23855   0.24320   0.25949   0.26419   0.27545
 Alpha virt. eigenvalues --    0.29287   0.29836   0.30665   0.31436   0.31638

 Mulliken charges:
               1
     1  C   -0.176723
     2  C   -0.221206
     3  C   -0.170763
     4  C    0.158198
     5  C   -0.170697
     6  C   -0.226387
     7  H    0.238403
     8  H    0.223306
     9  H    0.275117
    10  H    0.275369
    11  H    0.226903
    12  N    0.487962
    13  O   -0.460758
    14  O   -0.460720
    15  C   -0.306902
    16  C   -0.298875
    17  C   -0.483074
    18  H    0.146431
    19  H    0.148141
    20  H    0.157194
    21  H    0.155997
    22  H    0.147797
    23  H    0.156738
    24  H    0.168288
    25  C   -0.297736
    26  C   -0.301161
    27  C   -0.476302
    28  H    0.152643
    29  H    0.153058
    30  H    0.150528
    31  H    0.153046
    32  H    0.157124
    33  H    0.156510
    34  H    0.162550
 Sum of Mulliken charges =  -0.00000

 Dipole moment (field-independent basis, Debye):
    X=             -5.3011    Y=              0.8532    Z=              1.3161  Tot=              5.5282
 Quadrupole moment (field-independent basis, Debye-Ang):
   XX=           -127.3361   YY=            -92.6335   ZZ=            -92.3212
   XY=              2.5961   XZ=              4.1352   YZ=             -3.2168

 Normal termination of Gaussian 16 at Wed May  5 15:54:11 2021.
