 Gaussian 16, Revision A.03,
 Gaussian 16:  EM64L-G16RevA.03 25-Dec-2016

 -------------
 #p 6-31g* mp2
 -------------

 ------------------------------------------------------
 Input file generated by CHIRIPA (05-May-2021 14:57:27)
 ------------------------------------------------------
 Symbolic Z-matrix:
 Charge =  0 Multiplicity = 1

                         Standard orientation:
 ---------------------------------------------------------------------
 Center     Atomic      Atomic             Coordinates (Angstroms)
 Number     Number       Type             X           Y           Z
 ---------------------------------------------------------------------
      1          6           0        3.494532    2.531546   -0.467012
      2          6           0        2.412974    1.663351   -0.648650
      3          6           0        2.569458    0.286202   -0.465563
      4          6           0        3.827115   -0.190664   -0.099249
      5          6           0        4.923950    0.648811    0.089231
      6          6           0        4.744364    2.022402   -0.099299
      7          1           0        3.363999    3.599967   -0.611352
      8          1           0        1.441190    2.055947   -0.934216
      9          1           0        1.749140   -0.408450   -0.599556
     10          1           0        5.880571    0.227820    0.373944
     11          1           0        5.586097    2.694292    0.042458
     12          7           0        4.005006   -1.646707    0.097458
     13          8           0        5.123221   -2.041809    0.420143
     14          8           0        3.022852   -2.365281   -0.074772
     15          6           0       -1.343009   -0.107548    0.711795
     16          6           0       -1.934808   -1.195867    0.062291
     17          6           0       -3.294085   -1.174542   -0.263990
     18          6           0       -4.035117   -0.043679    0.075584
     19          6           0       -3.474362    1.056300    0.722803
     20          6           0       -2.113317    1.013085    1.039401
     21          1           0       -0.286402   -0.132617    0.961497
     22          1           0       -1.339023   -2.067494   -0.193351
     23          1           0       -3.777711   -2.003265   -0.766727
     24          1           0       -4.094043    1.911198    0.964800
     25          1           0       -1.656386    1.859737    1.543824
     26          7           0       -5.475058   -0.009516   -0.264710
     27          8           0       -6.106149    0.998580    0.045295
     28          8           0       -5.945330   -0.991484   -0.834992
 ---------------------------------------------------------------------

 SCF Done:  E(RHF) =  -868.337899408     A.U. after   16 cycles
 E2 =    -0.2599985459D+01 EUMP2 =    -0.87093788486679D+03

 The electronic state is 1-A.
 Alpha  occ. eigenvalues --  -20.61647 -20.61611 -20.60968 -20.60959 -15.86686
 Alpha  occ. eigenvalues --  -15.86020 -11.32093 -11.31458 -11.28718 -11.28591
 Alpha  occ. eigenvalues --  -11.28335 -11.28040 -11.27975 -11.27788 -11.27688
 Alpha  occ. eigenvalues --  -11.27607 -11.27113 -11.26990  -1.60702  -1.60039
 Alpha  occ. eigenvalues --   -1.40258  -1.39590  -1.20250  -1.19630  -1.09623
 Alpha  occ. eigenvalues --   -1.09025  -1.05663  -1.05030  -0.96463  -0.95846
 Alpha  occ. eigenvalues --   -0.87049  -0.86427  -0.83298  -0.82664  -0.78356
 Alpha  occ. eigenvalues --   -0.77692  -0.72903  -0.72235  -0.72026  -0.71397
 Alpha  occ. eigenvalues --   -0.71363  -0.70716  -0.65896  -0.65648  -0.65277
 Alpha  occ. eigenvalues --   -0.65021  -0.63011  -0.62359  -0.56142  -0.55553
 Alpha  occ. eigenvalues --   -0.53964  -0.53724  -0.53371  -0.53108  -0.49669
 Alpha  occ. eigenvalues --   -0.49646  -0.49000  -0.48987  -0.45655  -0.44979
 Alpha  occ. eigenvalues --   -0.38202  -0.37660  -0.37256  -0.36633
 Alpha virt. eigenvalues --    0.04138   0.04801   0.10331   0.10970   0.15613
 Alpha virt. eigenvalues --    0.16200   0.19543   0.21812   0.25570   0.26540
 Alpha virt. eigenvalues --    0.27523   0.29308   0.30200   0.30666   0.31475

 Mulliken charges:
               1
     1  C   -0.170552
     2  C   -0.221127
     3  C   -0.178512
     4  C    0.160722
     5  C   -0.170164
     6  C   -0.217493
     7  H    0.228594
     8  H    0.225730
     9  H    0.270346
    10  H    0.278252
    11  H    0.226890
    12  N    0.488404
    13  O   -0.455899
    14  O   -0.464433
    15  C   -0.180446
    16  C   -0.221203
    17  C   -0.170559
    18  C    0.159113
    19  C   -0.171157
    20  C   -0.220886
    21  H    0.227466
    22  H    0.232610
    23  H    0.277929
    24  H    0.275681
    25  H    0.221804
    26  N    0.487950
    27  O   -0.460372
    28  O   -0.458690
 Sum of Mulliken charges =  -0.00000

 Dipole moment (field-independent basis, Debye):
    X=              4.6136    Y=              5.0107    Z=              0.4780  Tot=              6.8279
 Quadrupole moment (field-independent basis, Debye-Ang):
   XX=           -144.8927   YY=           -102.7916   ZZ=           -104.9689
   XY=             21.1857   XZ=             -5.9478   YZ=              1.8168

 Normal termination of Gaussian 16 at Fri May  7 00:30:40 2021.
