 Gaussian 16, Revision A.03,
 Gaussian 16:  EM64L-G16RevA.03 25-Dec-2016

 -------------
 #p 6-31g* mp2
 -------------

 ------------------------------------------------------
 Input file generated by CHIRIPA (05-May-2021 14:57:23)
 ------------------------------------------------------
 Symbolic Z-matrix:
 Charge =  0 Multiplicity = 1

                         Standard orientation:
 ---------------------------------------------------------------------
 Center     Atomic      Atomic             Coordinates (Angstroms)
 Number     Number       Type             X           Y           Z
 ---------------------------------------------------------------------
      1          6           0       -1.322065    1.740326    1.220325
      2          6           0       -2.371314    2.193054    0.413706
      3          6           0       -3.289592    1.289868   -0.129956
      4          6           0       -3.127953   -0.065149    0.154811
      5          6           0       -2.093066   -0.547117    0.954814
      6          6           0       -1.186529    0.374094    1.487833
      7          1           0       -0.613285    2.448943    1.638521
      8          1           0       -2.479034    3.253515    0.204268
      9          1           0       -4.111156    1.613087   -0.757635
     10          1           0       -2.011610   -1.610274    1.145813
     11          1           0       -0.372640    0.019640    2.113926
     12          7           0       -4.093878   -1.030852   -0.415106
     13          8           0       -3.929587   -2.219527   -0.149216
     14          8           0       -4.996971   -0.580810   -1.116906
     15          6           0        2.408052    2.323279   -0.705076
     16          6           0        3.688625    1.972790   -0.264835
     17          6           0        4.010451    0.636579   -0.008878
     18          6           0        3.022963   -0.327706   -0.204623
     19          6           0        1.738133   -0.010089   -0.642365
     20          6           0        1.438602    1.332467   -0.892107
     21          1           0        2.166710    3.363745   -0.901495
     22          1           0        4.443510    2.740151   -0.118714
     23          1           0        4.993917    0.337372    0.332720
     24          1           0        1.006676   -0.797337   -0.778862
     25          1           0        0.443264    1.601741   -1.233922
     26          7           0        3.351866   -1.745652    0.063056
     27          8           0        2.464116   -2.576356   -0.117131
     28          8           0        4.491179   -1.999484    0.447983
 ---------------------------------------------------------------------

 SCF Done:  E(RHF) =  -868.336631715     A.U. after   16 cycles
 E2 =    -0.2603020104D+01 EUMP2 =    -0.87093965181886D+03

 The electronic state is 1-A.
 Alpha  occ. eigenvalues --  -20.61242 -20.61233 -20.61157 -20.61134 -15.86292
 Alpha  occ. eigenvalues --  -15.86210 -11.31764 -11.31726 -11.28403 -11.28284
 Alpha  occ. eigenvalues --  -11.28255 -11.28215 -11.28118 -11.28030 -11.27453
 Alpha  occ. eigenvalues --  -11.27329 -11.27302 -11.27220  -1.60318  -1.60224
 Alpha  occ. eigenvalues --   -1.39867  -1.39770  -1.19998  -1.19878  -1.09364
 Alpha  occ. eigenvalues --   -1.09260  -1.05414  -1.05249  -0.96130  -0.96100
 Alpha  occ. eigenvalues --   -0.86764  -0.86676  -0.82936  -0.82912  -0.77982
 Alpha  occ. eigenvalues --   -0.77920  -0.72500  -0.72417  -0.71652  -0.71558
 Alpha  occ. eigenvalues --   -0.71053  -0.70989  -0.65603  -0.65523  -0.65353
 Alpha  occ. eigenvalues --   -0.65262  -0.62703  -0.62611  -0.55865  -0.55818
 Alpha  occ. eigenvalues --   -0.54086  -0.53520  -0.53381  -0.53168  -0.49266
 Alpha  occ. eigenvalues --   -0.49258  -0.49195  -0.49163  -0.45256  -0.45133
 Alpha  occ. eigenvalues --   -0.38401  -0.37852  -0.37223  -0.36268
 Alpha virt. eigenvalues --    0.04491   0.04533   0.10464   0.10782   0.15968
 Alpha virt. eigenvalues --    0.16161   0.20582   0.21247   0.26653   0.26903
 Alpha virt. eigenvalues --    0.27291   0.28286   0.30365   0.30557   0.31965

 Mulliken charges:
               1
     1  C   -0.173180
     2  C   -0.226054
     3  C   -0.171538
     4  C    0.157803
     5  C   -0.176498
     6  C   -0.219160
     7  H    0.226836
     8  H    0.222955
     9  H    0.277390
    10  H    0.283139
    11  H    0.230563
    12  N    0.487901
    13  O   -0.455858
    14  O   -0.459917
    15  C   -0.177863
    16  C   -0.218122
    17  C   -0.172436
    18  C    0.156597
    19  C   -0.174668
    20  C   -0.219089
    21  H    0.223734
    22  H    0.224332
    23  H    0.276689
    24  H    0.277616
    25  H    0.229408
    26  N    0.487570
    27  O   -0.459421
    28  O   -0.458728
 Sum of Mulliken charges =  -0.00000

 Dipole moment (field-independent basis, Debye):
    X=              2.1529    Y=              8.2319    Z=              1.1278  Tot=              8.5832
 Quadrupole moment (field-independent basis, Debye-Ang):
   XX=           -127.9889   YY=           -106.3111   ZZ=           -103.7319
   XY=              4.1143   XZ=             -5.8999   YZ=             -1.8510

 Normal termination of Gaussian 16 at Thu May  6 12:55:27 2021.
