 Gaussian 16, Revision A.03,
 Gaussian 16:  EM64L-G16RevA.03 25-Dec-2016

 -------------
 #p 6-31g* mp2
 -------------

 ------------------------------------------------------
 Input file generated by CHIRIPA (05-May-2021 14:57:27)
 ------------------------------------------------------
 Symbolic Z-matrix:
 Charge =  0 Multiplicity = 1

                         Standard orientation:
 ---------------------------------------------------------------------
 Center     Atomic      Atomic             Coordinates (Angstroms)
 Number     Number       Type             X           Y           Z
 ---------------------------------------------------------------------
      1          6           0       -0.667936   -0.651257    1.475082
      2          6           0       -1.128932    0.666526    1.561394
      3          6           0       -2.319956    1.044577    0.934426
      4          6           0       -3.027945    0.074758    0.226264
      5          6           0       -2.594737   -1.246130    0.121976
      6          6           0       -1.401017   -1.601704    0.756915
      7          1           0        0.258327   -0.936206    1.965222
      8          1           0       -0.561684    1.406770    2.118451
      9          1           0       -2.699869    2.057748    0.985104
     10          1           0       -3.182027   -1.961758   -0.440505
     11          1           0       -1.045414   -2.625847    0.688192
     12          7           0       -4.290256    0.463086   -0.441698
     13          8           0       -4.895566   -0.410139   -1.059529
     14          8           0       -4.650443    1.633329   -0.334767
     15          6           0        3.489870    2.415443   -0.161380
     16          6           0        2.543715    2.017286   -1.111528
     17          6           0        2.164961    0.675689   -1.217412
     18          6           0        2.755131   -0.245313   -0.353268
     19          6           0        3.700589    0.120311    0.603664
     20          6           0        4.064275    1.467356    0.691679
     21          1           0        3.778243    3.459745   -0.086068
     22          1           0        2.095971    2.751400   -1.775341
     23          1           0        1.434931    0.340032   -1.943917
     24          1           0        4.129500   -0.634491    1.251528
     25          1           0        4.799329    1.773698    1.430527
     26          7           0        2.362137   -1.668486   -0.455904
     27          8           0        2.896786   -2.460472    0.317107
     28          8           0        1.526901   -1.965036   -1.307418
 ---------------------------------------------------------------------

 SCF Done:  E(RHF) =  -868.339217404     A.U. after   16 cycles
 E2 =    -0.2601400803D+01 EUMP2 =    -0.87094061820623D+03

 The electronic state is 1-A.
 Alpha  occ. eigenvalues --  -20.61764 -20.61718 -20.60545 -20.60526 -15.86750
 Alpha  occ. eigenvalues --  -15.85583 -11.31957 -11.30857 -11.28540 -11.28454
 Alpha  occ. eigenvalues --  -11.28206 -11.27494 -11.27425 -11.27423 -11.27275
 Alpha  occ. eigenvalues --  -11.27057 -11.26478 -11.26221  -1.60818  -1.59616
 Alpha  occ. eigenvalues --   -1.40367  -1.39171  -1.20121  -1.18989  -1.09546
 Alpha  occ. eigenvalues --   -1.08407  -1.05482  -1.04353  -0.96402  -0.95267
 Alpha  occ. eigenvalues --   -0.86885  -0.85753  -0.83227  -0.82086  -0.78299
 Alpha  occ. eigenvalues --   -0.77147  -0.72975  -0.72207  -0.71799  -0.71202
 Alpha  occ. eigenvalues --   -0.70939  -0.70064  -0.65760  -0.65465  -0.64630
 Alpha  occ. eigenvalues --   -0.64318  -0.62816  -0.61688  -0.55980  -0.54885
 Alpha  occ. eigenvalues --   -0.53854  -0.53554  -0.52700  -0.52420  -0.49751
 Alpha  occ. eigenvalues --   -0.49733  -0.48566  -0.48550  -0.45799  -0.44597
 Alpha  occ. eigenvalues --   -0.38154  -0.37190  -0.36815  -0.35910
 Alpha virt. eigenvalues --    0.04140   0.05370   0.10534   0.11709   0.15721
 Alpha virt. eigenvalues --    0.16867   0.20790   0.21826   0.26733   0.27604
 Alpha virt. eigenvalues --    0.27891   0.28397   0.30436   0.31317   0.32010

 Mulliken charges:
               1
     1  C   -0.181750
     2  C   -0.217628
     3  C   -0.175425
     4  C    0.157832
     5  C   -0.172986
     6  C   -0.209027
     7  H    0.226563
     8  H    0.219525
     9  H    0.271850
    10  H    0.276629
    11  H    0.236984
    12  N    0.487895
    13  O   -0.459500
    14  O   -0.463431
    15  C   -0.171353
    16  C   -0.219910
    17  C   -0.166931
    18  C    0.154388
    19  C   -0.176068
    20  C   -0.219675
    21  H    0.228312
    22  H    0.227696
    23  H    0.279638
    24  H    0.275324
    25  H    0.225168
    26  N    0.486056
    27  O   -0.463721
    28  O   -0.456454
 Sum of Mulliken charges =  -0.00000

 Dipole moment (field-independent basis, Debye):
    X=              5.9662    Y=              3.5305    Z=              2.5383  Tot=              7.3826
 Quadrupole moment (field-independent basis, Debye-Ang):
   XX=           -123.6515   YY=           -103.0740   ZZ=           -101.7346
   XY=             18.7277   XZ=             -2.8179   YZ=             -1.3475

 Normal termination of Gaussian 16 at Thu May  6 22:57:53 2021.
