 Gaussian 16, Revision A.03,
 Gaussian 16:  EM64L-G16RevA.03 25-Dec-2016

 -------------
 #p 6-31g* mp2
 -------------

 ------------------------------------------------------
 Input file generated by CHIRIPA (05-May-2021 14:55:21)
 ------------------------------------------------------
 Symbolic Z-matrix:
 Charge =  0 Multiplicity = 1

                         Standard orientation:
 ---------------------------------------------------------------------
 Center     Atomic      Atomic             Coordinates (Angstroms)
 Number     Number       Type             X           Y           Z
 ---------------------------------------------------------------------
      1          6           0       -3.479503   -1.899294   -1.012093
      2          6           0       -4.329620   -0.989490   -0.374849
      3          6           0       -3.850050    0.253567    0.048671
      4          6           0       -2.508821    0.555370   -0.182219
      5          6           0       -1.636971   -0.329795   -0.814399
      6          6           0       -2.138256   -1.567128   -1.229450
      7          1           0       -3.860479   -2.862707   -1.337804
      8          1           0       -5.371704   -1.244759   -0.204721
      9          1           0       -4.486249    0.976697    0.544404
     10          1           0       -0.602957   -0.046929   -0.970026
     11          1           0       -1.475745   -2.271724   -1.724090
     12          7           0       -1.989627    1.868309    0.261660
     13          8           0       -0.803961    2.110221    0.046455
     14          8           0       -2.778179    2.630619    0.816372
     15          6           0        2.676968   -0.844111    0.351606
     16          6           0        2.100731   -0.983793    1.761012
     17          6           0        0.812747   -1.807075    1.794159
     18          1           0        1.925439   -0.378242   -0.300403
     19          1           0        2.869746   -1.844919   -0.059022
     20          1           0        1.910390    0.017013    2.169390
     21          1           0        2.853789   -1.449210    2.409787
     22          1           0        0.991281   -2.817237    1.411667
     23          1           0        0.042522   -1.342684    1.169904
     24          1           0        0.418067   -1.894261    2.811256
     25          6           0        3.964671   -0.023683    0.302155
     26          6           0        4.540907    0.115999   -1.107250
     27          6           0        5.828891    0.939281   -1.140397
     28          1           0        3.771893    0.977124    0.712784
     29          1           0        4.716200   -0.489552    0.954165
     30          1           0        3.787850    0.581415   -1.756025
     31          1           0        4.731249   -0.884807   -1.515628
     32          1           0        6.599117    0.474890   -0.516142
     33          1           0        5.650357    1.949443   -0.757905
     34          1           0        6.223571    1.026467   -2.157494
 ---------------------------------------------------------------------

 SCF Done:  E(RHF) =  -669.534991653     A.U. after   15 cycles
 E2 =    -0.2093017343D+01 EUMP2 =    -0.67162800899569D+03

 The electronic state is 1-A.
 Alpha  occ. eigenvalues --  -20.60847 -20.60840 -15.85896 -11.31245 -11.27806
 Alpha  occ. eigenvalues --  -11.27798 -11.27540 -11.26818 -11.26807 -11.21457
 Alpha  occ. eigenvalues --  -11.21451 -11.21383 -11.21189 -11.21019 -11.20884
 Alpha  occ. eigenvalues --   -1.59918  -1.39473  -1.19423  -1.08811  -1.08314
 Alpha  occ. eigenvalues --   -1.04829  -1.03406  -0.95881  -0.95650  -0.86897
 Alpha  occ. eigenvalues --   -0.86220  -0.82484  -0.79477  -0.78164  -0.77525
 Alpha  occ. eigenvalues --   -0.72116  -0.71241  -0.70536  -0.65070  -0.65011
 Alpha  occ. eigenvalues --   -0.64745  -0.62192  -0.60776  -0.59243  -0.57504
 Alpha  occ. eigenvalues --   -0.55321  -0.55210  -0.53206  -0.52913  -0.52553
 Alpha  occ. eigenvalues --   -0.52257  -0.49806  -0.48873  -0.48869  -0.47795
 Alpha  occ. eigenvalues --   -0.46484  -0.45698  -0.45579  -0.44872  -0.43670
 Alpha  occ. eigenvalues --   -0.37389  -0.36349
 Alpha virt. eigenvalues --    0.04969   0.11158   0.16469   0.20322   0.23022
 Alpha virt. eigenvalues --    0.24238   0.25465   0.27253   0.27685   0.28232
 Alpha virt. eigenvalues --    0.29370   0.30808   0.31548   0.31872   0.32154

 Mulliken charges:
               1
     1  C   -0.170376
     2  C   -0.218410
     3  C   -0.170378
     4  C    0.159186
     5  C   -0.179084
     6  C   -0.218340
     7  H    0.226030
     8  H    0.223739
     9  H    0.275772
    10  H    0.284352
    11  H    0.225049
    12  N    0.487934
    13  O   -0.462286
    14  O   -0.459685
    15  C   -0.301298
    16  C   -0.299949
    17  C   -0.481727
    18  H    0.148137
    19  H    0.145150
    20  H    0.161688
    21  H    0.151124
    22  H    0.149590
    23  H    0.156944
    24  H    0.161647
    25  C   -0.298633
    26  C   -0.300010
    27  C   -0.475961
    28  H    0.156955
    29  H    0.149044
    30  H    0.152947
    31  H    0.148852
    32  H    0.154418
    33  H    0.158148
    34  H    0.159431
 Sum of Mulliken charges =  -0.00000

 Dipole moment (field-independent basis, Debye):
    X=             -1.8779    Y=             -4.5065    Z=             -1.5290  Tot=              5.1160
 Quadrupole moment (field-independent basis, Debye-Ang):
   XX=            -81.8778   YY=           -100.0527   ZZ=            -94.2700
   XY=              8.9809   XZ=              2.9303   YZ=              0.6702

 Normal termination of Gaussian 16 at Thu May  6 15:50:46 2021.
