 Gaussian 16, Revision A.03,
 Gaussian 16:  EM64L-G16RevA.03 25-Dec-2016

 -------------
 #p 6-31g* mp2
 -------------

 ------------------------------------------------------
 Input file generated by CHIRIPA (05-May-2021 14:55:24)
 ------------------------------------------------------
 Symbolic Z-matrix:
 Charge =  0 Multiplicity = 1

                         Standard orientation:
 ---------------------------------------------------------------------
 Center     Atomic      Atomic             Coordinates (Angstroms)
 Number     Number       Type             X           Y           Z
 ---------------------------------------------------------------------
      1          6           0        5.361554    0.153381    0.771911
      2          6           0        5.015088   -1.131634    0.341539
      3          6           0        3.732955   -1.394119   -0.150176
      4          6           0        2.818059   -0.343406   -0.197690
      5          6           0        3.133086    0.947531    0.223653
      6          6           0        4.421105    1.187040    0.711700
      7          1           0        6.359832    0.348361    1.152462
      8          1           0        5.743410   -1.936316    0.387146
      9          1           0        3.438116   -2.379541   -0.489927
     10          1           0        2.385524    1.729356    0.166031
     11          1           0        4.687385    2.185984    1.045244
     12          7           0        1.457606   -0.609124   -0.716306
     13          8           0        0.669763    0.333713   -0.747901
     14          8           0        1.204887   -1.755200   -1.081382
     15          6           0       -3.685162    0.987551   -0.274570
     16          6           0       -2.593001    1.831787    0.383029
     17          6           0       -2.185647    3.036574   -0.465702
     18          1           0       -3.332536    0.643671   -1.256581
     19          1           0       -4.564415    1.619394   -0.461874
     20          1           0       -1.716574    1.198208    0.570297
     21          1           0       -2.948195    2.173538    1.363671
     22          1           0       -3.044790    3.691910   -0.641794
     23          1           0       -1.806171    2.711039   -1.439675
     24          1           0       -1.403827    3.626142    0.023203
     25          6           0       -4.103069   -0.220544    0.561843
     26          6           0       -5.195231   -1.064780   -0.095755
     27          6           0       -5.602585   -2.269568    0.752975
     28          1           0       -3.223816   -0.852387    0.749148
     29          1           0       -4.455696    0.123336    1.543854
     30          1           0       -4.840036   -1.406532   -1.076397
     31          1           0       -6.071658   -0.431202   -0.283024
     32          1           0       -5.982061   -1.944032    1.726949
     33          1           0       -4.743442   -2.924904    0.929068
     34          1           0       -6.384405   -2.859136    0.264070
 ---------------------------------------------------------------------

 SCF Done:  E(RHF) =  -669.536313227     A.U. after   15 cycles
 E2 =    -0.2091046437D+01 EUMP2 =    -0.67162735966321D+03

 The electronic state is 1-A.
 Alpha  occ. eigenvalues --  -20.61008 -20.61002 -15.86038 -11.31327 -11.27888
 Alpha  occ. eigenvalues --  -11.27883 -11.27621 -11.26889 -11.26879 -11.20674
 Alpha  occ. eigenvalues --  -11.20296 -11.20289 -11.20219 -11.20128 -11.19922
 Alpha  occ. eigenvalues --   -1.60069  -1.39625  -1.19494  -1.08905  -1.07286
 Alpha  occ. eigenvalues --   -1.04885  -1.02434  -0.95752  -0.94921  -0.86287
 Alpha  occ. eigenvalues --   -0.85945  -0.82587  -0.78520  -0.77643  -0.77092
 Alpha  occ. eigenvalues --   -0.72268  -0.71381  -0.70603  -0.65153  -0.64889
 Alpha  occ. eigenvalues --   -0.63883  -0.62232  -0.59793  -0.58313  -0.56540
 Alpha  occ. eigenvalues --   -0.55392  -0.54188  -0.53219  -0.52977  -0.51660
 Alpha  occ. eigenvalues --   -0.51359  -0.49043  -0.49016  -0.48833  -0.46851
 Alpha  occ. eigenvalues --   -0.45578  -0.45057  -0.44644  -0.44410  -0.42699
 Alpha  occ. eigenvalues --   -0.37471  -0.36485
 Alpha virt. eigenvalues --    0.04857   0.11170   0.16338   0.21252   0.23994
 Alpha virt. eigenvalues --    0.25193   0.27206   0.27707   0.28192   0.28755
 Alpha virt. eigenvalues --    0.29035   0.30893   0.32164   0.32519   0.32844

 Mulliken charges:
               1
     1  C   -0.170492
     2  C   -0.218596
     3  C   -0.170656
     4  C    0.157694
     5  C   -0.170728
     6  C   -0.218559
     7  H    0.226146
     8  H    0.223917
     9  H    0.275828
    10  H    0.276227
    11  H    0.224063
    12  N    0.490916
    13  O   -0.462821
    14  O   -0.459144
    15  C   -0.297629
    16  C   -0.304606
    17  C   -0.473235
    18  H    0.156553
    19  H    0.143089
    20  H    0.171894
    21  H    0.142301
    22  H    0.148260
    23  H    0.162916
    24  H    0.151084
    25  C   -0.298809
    26  C   -0.299174
    27  C   -0.475365
    28  H    0.155242
    29  H    0.144602
    30  H    0.154227
    31  H    0.148730
    32  H    0.152450
    33  H    0.156171
    34  H    0.157504
 Sum of Mulliken charges =  -0.00000

 Dipole moment (field-independent basis, Debye):
    X=              5.1403    Y=              0.7938    Z=              1.7303  Tot=              5.4815
 Quadrupole moment (field-independent basis, Debye-Ang):
   XX=            -68.8475   YY=            -92.0943   ZZ=            -96.3442
   XY=             -0.7391   XZ=              4.4078   YZ=              0.7228

 Normal termination of Gaussian 16 at Wed May  5 20:46:03 2021.
