 Gaussian 16, Revision A.03,
 Gaussian 16:  EM64L-G16RevA.03 25-Dec-2016

 -------------
 #p 6-31g* mp2
 -------------

 ------------------------------------------------------
 Input file generated by CHIRIPA (05-May-2021 14:57:22)
 ------------------------------------------------------
 Symbolic Z-matrix:
 Charge =  0 Multiplicity = 1

                         Standard orientation:
 ---------------------------------------------------------------------
 Center     Atomic      Atomic             Coordinates (Angstroms)
 Number     Number       Type             X           Y           Z
 ---------------------------------------------------------------------
      1          6           0       -1.246530   -0.199661    0.058424
      2          6           0       -1.858432    0.740380   -0.777292
      3          6           0       -3.251029    0.789930   -0.890274
      4          6           0       -4.004521   -0.119628   -0.149839
      5          6           0       -3.424369   -1.067887    0.691302
      6          6           0       -2.030070   -1.099209    0.788766
      7          1           0       -0.164066   -0.231072    0.140163
      8          1           0       -1.252437    1.440212   -1.345667
      9          1           0       -3.750773    1.507379   -1.529759
     10          1           0       -4.054932   -1.752536    1.245435
     11          1           0       -1.557588   -1.830336    1.438580
     12          7           0       -5.479702   -0.076821   -0.261234
     13          8           0       -6.121174   -0.889100    0.401603
     14          8           0       -5.966543    0.768201   -1.009272
     15          6           0        2.202266    1.714470    1.320589
     16          6           0        3.122497    2.204224    0.387939
     17          6           0        3.991218    1.333674   -0.276901
     18          6           0        3.912123   -0.026818    0.016521
     19          6           0        3.006217   -0.545298    0.940534
     20          6           0        2.147160    0.343688    1.593429
     21          1           0        1.531177    2.397896    1.832414
     22          1           0        3.167531    3.268306    0.174051
     23          1           0        4.713286    1.685889   -1.003525
     24          1           0        2.984901   -1.611147    1.132711
     25          1           0        1.433509   -0.039484    2.317255
     26          7           0        4.826685   -0.958190   -0.680992
     27          8           0        4.737097   -2.152463   -0.404726
     28          8           0        5.615786   -0.476291   -1.490763
 ---------------------------------------------------------------------

 SCF Done:  E(RHF) =  -868.337024907     A.U. after   16 cycles
 E2 =    -0.2601047865D+01 EUMP2 =    -0.87093807277278D+03

 The electronic state is 1-A.
 Alpha  occ. eigenvalues --  -20.61644 -20.61637 -20.61052 -20.61047 -15.86707
 Alpha  occ. eigenvalues --  -15.86110 -11.32297 -11.31529 -11.28948 -11.28859
 Alpha  occ. eigenvalues --  -11.28657 -11.28129 -11.28112 -11.27984 -11.27879
 Alpha  occ. eigenvalues --  -11.27744 -11.27159 -11.27109  -1.60715  -1.60128
 Alpha  occ. eigenvalues --   -1.40262  -1.39680  -1.20516  -1.19712  -1.09853
 Alpha  occ. eigenvalues --   -1.09089  -1.05953  -1.05132  -0.96636  -0.95915
 Alpha  occ. eigenvalues --   -0.87315  -0.86525  -0.83470  -0.82749  -0.78482
 Alpha  occ. eigenvalues --   -0.77796  -0.72915  -0.72324  -0.72047  -0.71554
 Alpha  occ. eigenvalues --   -0.71454  -0.70825  -0.66142  -0.65922  -0.65358
 Alpha  occ. eigenvalues --   -0.65145  -0.63260  -0.62481  -0.56384  -0.55816
 Alpha  occ. eigenvalues --   -0.54081  -0.53979  -0.53449  -0.53222  -0.49693
 Alpha  occ. eigenvalues --   -0.49659  -0.49090  -0.49077  -0.45618  -0.45073
 Alpha  occ. eigenvalues --   -0.38520  -0.37716  -0.37498  -0.36751
 Alpha virt. eigenvalues --    0.04033   0.04743   0.10025   0.10879   0.15413
 Alpha virt. eigenvalues --    0.16217   0.19886   0.21559   0.25524   0.27213
 Alpha virt. eigenvalues --    0.27379   0.28665   0.29985   0.31113   0.31467

 Mulliken charges:
               1
     1  C   -0.179914
     2  C   -0.222813
     3  C   -0.170253
     4  C    0.158122
     5  C   -0.169816
     6  C   -0.223155
     7  H    0.235961
     8  H    0.223461
     9  H    0.276130
    10  H    0.276390
    11  H    0.219935
    12  N    0.488027
    13  O   -0.459738
    14  O   -0.459820
    15  C   -0.172364
    16  C   -0.219739
    17  C   -0.169374
    18  C    0.159767
    19  C   -0.173133
    20  C   -0.232767
    21  H    0.231251
    22  H    0.227733
    23  H    0.279586
    24  H    0.277852
    25  H    0.225933
    26  N    0.488075
    27  O   -0.458338
    28  O   -0.456999
 Sum of Mulliken charges =  -0.00000

 Dipole moment (field-independent basis, Debye):
    X=              2.2628    Y=              3.2354    Z=              2.7979  Tot=              4.8390
 Quadrupole moment (field-independent basis, Debye-Ang):
   XX=           -170.8586   YY=            -99.3802   ZZ=           -102.5030
   XY=             15.3164   XZ=              5.7791   YZ=             -5.0256

 Normal termination of Gaussian 16 at Fri May  7 04:48:10 2021.
