 Gaussian 16, Revision A.03,
 Gaussian 16:  EM64L-G16RevA.03 25-Dec-2016

 -------------
 #p 6-31g* mp2
 -------------

 ------------------------------------------------------
 Input file generated by CHIRIPA (05-May-2021 14:57:26)
 ------------------------------------------------------
 Symbolic Z-matrix:
 Charge =  0 Multiplicity = 1

                         Standard orientation:
 ---------------------------------------------------------------------
 Center     Atomic      Atomic             Coordinates (Angstroms)
 Number     Number       Type             X           Y           Z
 ---------------------------------------------------------------------
      1          6           0       -1.329226   -0.680320    1.550820
      2          6           0       -1.486018   -1.370844    0.344539
      3          6           0       -2.602209   -1.140944   -0.465283
      4          6           0       -3.546379   -0.209411   -0.036242
      5          6           0       -3.418432    0.494412    1.160234
      6          6           0       -2.294233    0.248467    1.954107
      7          1           0       -0.459032   -0.865144    2.173715
      8          1           0       -0.738180   -2.092721    0.028823
      9          1           0       -2.748534   -1.661551   -1.403886
     10          1           0       -4.180763    1.208011    1.448411
     11          1           0       -2.175081    0.786201    2.890424
     12          7           0       -4.732280    0.042467   -0.885122
     13          8           0       -5.549870    0.868218   -0.484725
     14          8           0       -4.821743   -0.590632   -1.934798
     15          6           0        2.287796    2.536859   -0.002838
     16          6           0        1.756111    1.483816    0.748783
     17          6           0        2.336986    0.213063    0.700642
     18          6           0        3.453709    0.029928   -0.113411
     19          6           0        4.006646    1.059035   -0.873997
     20          6           0        3.409387    2.321487   -0.810404
     21          1           0        1.830194    3.520787    0.040561
     22          1           0        0.885137    1.648169    1.376825
     23          1           0        1.945852   -0.619873    1.272175
     24          1           0        4.875607    0.864554   -1.490845
     25          1           0        3.824447    3.137438   -1.395207
     26          7           0        4.077327   -1.310969   -0.172555
     27          8           0        5.060544   -1.446439   -0.897516
     28          8           0        3.571093   -2.201103    0.507170
 ---------------------------------------------------------------------

 SCF Done:  E(RHF) =  -868.337160720     A.U. after   16 cycles
 E2 =    -0.2601098855D+01 EUMP2 =    -0.87093825957514D+03

 The electronic state is 1-A.
 Alpha  occ. eigenvalues --  -20.61464 -20.61429 -20.61178 -20.61166 -15.86501
 Alpha  occ. eigenvalues --  -15.86230 -11.31856 -11.31718 -11.28505 -11.28341
 Alpha  occ. eigenvalues --  -11.28311 -11.28227 -11.28137 -11.28071 -11.27422
 Alpha  occ. eigenvalues --  -11.27418 -11.27347 -11.27267  -1.60522  -1.60247
 Alpha  occ. eigenvalues --   -1.40079  -1.39797  -1.20005  -1.19902  -1.09387
 Alpha  occ. eigenvalues --   -1.09303  -1.05414  -1.05303  -0.96245  -0.96107
 Alpha  occ. eigenvalues --   -0.86820  -0.86692  -0.83104  -0.82900  -0.78156
 Alpha  occ. eigenvalues --   -0.77924  -0.72719  -0.72446  -0.71845  -0.71572
 Alpha  occ. eigenvalues --   -0.71284  -0.70908  -0.65658  -0.65583  -0.65395
 Alpha  occ. eigenvalues --   -0.65292  -0.62791  -0.62620  -0.55992  -0.55758
 Alpha  occ. eigenvalues --   -0.53827  -0.53617  -0.53419  -0.53383  -0.49486
 Alpha  occ. eigenvalues --   -0.49461  -0.49215  -0.49193  -0.45488  -0.45174
 Alpha  occ. eigenvalues --   -0.38034  -0.37932  -0.37013  -0.36783
 Alpha virt. eigenvalues --    0.04315   0.04627   0.10459   0.10821   0.15746
 Alpha virt. eigenvalues --    0.16093   0.18714   0.22025   0.24991   0.26188
 Alpha virt. eigenvalues --    0.27618   0.29788   0.29875   0.30882   0.32179

 Mulliken charges:
               1
     1  C   -0.177812
     2  C   -0.217934
     3  C   -0.170439
     4  C    0.159377
     5  C   -0.170971
     6  C   -0.222878
     7  H    0.223035
     8  H    0.232676
     9  H    0.279012
    10  H    0.276595
    11  H    0.222692
    12  N    0.487831
    13  O   -0.459876
    14  O   -0.457889
    15  C   -0.170871
    16  C   -0.214402
    17  C   -0.175603
    18  C    0.159987
    19  C   -0.170412
    20  C   -0.217638
    21  H    0.228412
    22  H    0.220803
    23  H    0.265506
    24  H    0.277520
    25  H    0.226399
    26  N    0.488293
    27  O   -0.456578
    28  O   -0.464834
 Sum of Mulliken charges =  -0.00000

 Dipole moment (field-independent basis, Debye):
    X=              1.9429    Y=              3.8833    Z=              2.9545  Tot=              5.2520
 Quadrupole moment (field-independent basis, Debye-Ang):
   XX=           -146.8881   YY=           -101.8992   ZZ=           -101.8433
   XY=             19.2075   XZ=            -13.8379   YZ=              0.1555

 Normal termination of Gaussian 16 at Thu May  6 14:47:54 2021.
