 Gaussian 16, Revision A.03,
 Gaussian 16:  EM64L-G16RevA.03 25-Dec-2016

 -------------
 #p 6-31g* mp2
 -------------

 ------------------------------------------------------
 Input file generated by CHIRIPA (05-May-2021 14:53:14)
 ------------------------------------------------------
 Symbolic Z-matrix:
 Charge =  0 Multiplicity = 1

                         Standard orientation:
 ---------------------------------------------------------------------
 Center     Atomic      Atomic             Coordinates (Angstroms)
 Number     Number       Type             X           Y           Z
 ---------------------------------------------------------------------
      1          6           0       -4.266216    0.019168    0.136816
      2          6           0       -5.704242   -0.138432   -0.358389
      3          6           0       -6.648854    0.912968    0.224758
      4          1           0       -4.253976   -0.042868    1.233605
      5          1           0       -3.904138    1.023421   -0.123511
      6          1           0       -6.063025   -1.142578   -0.098426
      7          1           0       -5.713035   -0.076205   -1.454138
      8          1           0       -6.317781    1.920790   -0.045959
      9          1           0       -6.669760    0.848358    1.317456
     10          1           0       -7.671482    0.781717   -0.142483
     11          6           0       -3.309934   -1.024658   -0.437361
     12          6           0       -1.871908   -0.867058    0.057844
     13          6           0       -0.927296   -1.918458   -0.525303
     14          1           0       -3.672012   -2.028912   -0.177035
     15          1           0       -3.322174   -0.962623   -1.534151
     16          1           0       -1.863115   -0.929285    1.153593
     17          1           0       -1.513125    0.137088   -0.202119
     18          1           0       -0.906390   -1.853848   -1.618002
     19          1           0       -1.258369   -2.926280   -0.254586
     20          1           0        0.095332   -1.787207   -0.158063
     21          6           0        0.769026    1.593935    0.471293
     22          6           0        1.177916    0.604111    1.371060
     23          6           0        2.389618   -0.067942    1.184862
     24          6           0        3.171194    0.276645    0.083188
     25          6           0        2.791187    1.258217   -0.830817
     26          6           0        1.575545    1.917258   -0.624841
     27          1           0       -0.173784    2.110948    0.623618
     28          1           0        0.553594    0.350937    2.223217
     29          1           0        2.730325   -0.838302    1.865952
     30          1           0        3.434961    1.488711   -1.670963
     31          1           0        1.260529    2.685541   -1.325235
     32          7           0        4.456055   -0.427940   -0.124400
     33          8           0        5.126541   -0.105884   -1.102850
     34          8           0        4.768313   -1.288909    0.695273
 ---------------------------------------------------------------------

 SCF Done:  E(RHF) =  -669.533914077     A.U. after   15 cycles
 E2 =    -0.2094226139D+01 EUMP2 =    -0.67162814021646D+03

 The electronic state is 1-A.
 Alpha  occ. eigenvalues --  -20.60791 -20.60785 -15.85847 -11.31234 -11.27805
 Alpha  occ. eigenvalues --  -11.27799 -11.27520 -11.26821 -11.26791 -11.22202
 Alpha  occ. eigenvalues --  -11.22122 -11.22022 -11.21907 -11.21558 -11.21349
 Alpha  occ. eigenvalues --   -1.59867  -1.39419  -1.19420  -1.09022  -1.08789
 Alpha  occ. eigenvalues --   -1.04830  -1.04034  -0.96461  -0.95639  -0.87475
 Alpha  occ. eigenvalues --   -0.86215  -0.82471  -0.80136  -0.78853  -0.77503
 Alpha  occ. eigenvalues --   -0.72064  -0.71191  -0.70534  -0.65638  -0.65064
 Alpha  occ. eigenvalues --   -0.64817  -0.62169  -0.61453  -0.59884  -0.58151
 Alpha  occ. eigenvalues --   -0.55764  -0.55322  -0.53472  -0.53000  -0.52905
 Alpha  occ. eigenvalues --   -0.52579  -0.50403  -0.48826  -0.48818  -0.48441
 Alpha  occ. eigenvalues --   -0.47174  -0.46374  -0.46311  -0.44822  -0.44303
 Alpha  occ. eigenvalues --   -0.37290  -0.36386
 Alpha virt. eigenvalues --    0.04986   0.11175   0.16376   0.20511   0.22586
 Alpha virt. eigenvalues --    0.24014   0.25291   0.26094   0.27164   0.27929
 Alpha virt. eigenvalues --    0.29130   0.29937   0.31502   0.31612   0.31781

 Mulliken charges:
               1
     1  C   -0.297711
     2  C   -0.299850
     3  C   -0.475911
     4  H    0.148358
     5  H    0.144031
     6  H    0.153880
     7  H    0.153068
     8  H    0.154070
     9  H    0.155231
    10  H    0.162230
    11  C   -0.298123
    12  C   -0.300329
    13  C   -0.479090
    14  H    0.151822
    15  H    0.151256
    16  H    0.143807
    17  H    0.148239
    18  H    0.156449
    19  H    0.155917
    20  H    0.165686
    21  C   -0.169400
    22  C   -0.213305
    23  C   -0.174718
    24  C    0.159623
    25  C   -0.170453
    26  C   -0.219929
    27  H    0.226864
    28  H    0.225364
    29  H    0.276032
    30  H    0.275838
    31  H    0.223536
    32  N    0.488135
    33  O   -0.460273
    34  O   -0.460341
 Sum of Mulliken charges =  -0.00000

 Dipole moment (field-independent basis, Debye):
    X=             -4.5208    Y=              2.4709    Z=              0.7022  Tot=              5.1996
 Quadrupole moment (field-independent basis, Debye-Ang):
   XX=           -124.5103   YY=            -92.5137   ZZ=            -90.9634
   XY=              7.9718   XZ=              1.4045   YZ=             -2.8681

 Normal termination of Gaussian 16 at Thu May  6 17:06:45 2021.
