 Gaussian 16, Revision A.03,
 Gaussian 16:  EM64L-G16RevA.03 25-Dec-2016

 -------------
 #p 6-31g* mp2
 -------------

 ------------------------------------------------------
 Input file generated by CHIRIPA (05-May-2021 14:55:25)
 ------------------------------------------------------
 Symbolic Z-matrix:
 Charge =  0 Multiplicity = 1

                         Standard orientation:
 ---------------------------------------------------------------------
 Center     Atomic      Atomic             Coordinates (Angstroms)
 Number     Number       Type             X           Y           Z
 ---------------------------------------------------------------------
      1          6           0       -3.179855   -2.250238   -0.351588
      2          6           0       -3.720108   -1.284025    0.503444
      3          6           0       -3.262934    0.036501    0.461588
      4          6           0       -2.259832    0.357409   -0.451699
      5          6           0       -1.701613   -0.582627   -1.316577
      6          6           0       -2.174105   -1.897078   -1.257274
      7          1           0       -3.540949   -3.273695   -0.312296
      8          1           0       -4.501283   -1.555431    1.207822
      9          1           0       -3.663574    0.804475    1.112066
     10          1           0       -0.923920   -0.281909   -2.008084
     11          1           0       -1.752693   -2.645359   -1.922504
     12          7           0       -1.767734    1.752175   -0.505246
     13          8           0       -0.883137    2.009427   -1.318847
     14          8           0       -2.275943    2.561731    0.267398
     15          6           0        2.269259    0.045394    0.672572
     16          6           0        1.713707   -0.362351    2.037523
     17          6           0        0.257993    0.062007    2.234017
     18          1           0        2.185101    1.134993    0.560162
     19          1           0        1.647052   -0.399219   -0.116461
     20          1           0        2.337597    0.081766    2.823741
     21          1           0        1.799373   -1.451085    2.146775
     22          1           0       -0.382096   -0.392332    1.470824
     23          1           0        0.159185    1.149229    2.151636
     24          1           0       -0.118967   -0.239448    3.216303
     25          6           0        3.723536   -0.371883    0.461186
     26          6           0        4.279088    0.035863   -0.903765
     27          6           0        5.734803   -0.388496   -1.100259
     28          1           0        4.345743    0.072730    1.250219
     29          1           0        3.807695   -1.461482    0.573595
     30          1           0        4.193422    1.124597   -1.013017
     31          1           0        3.655199   -0.408254   -1.689982
     32          1           0        5.833610   -1.475718   -1.017878
     33          1           0        6.374891    0.065843   -0.337066
     34          1           0        6.111762   -0.087041   -2.082545
 ---------------------------------------------------------------------

 SCF Done:  E(RHF) =  -669.534764833     A.U. after   15 cycles
 E2 =    -0.2094094202D+01 EUMP2 =    -0.67162885903497D+03

 The electronic state is 1-A.
 Alpha  occ. eigenvalues --  -20.60801 -20.60793 -15.85828 -11.31179 -11.27781
 Alpha  occ. eigenvalues --  -11.27760 -11.27551 -11.26844 -11.26820 -11.21330
 Alpha  occ. eigenvalues --  -11.21327 -11.21125 -11.21001 -11.20871 -11.20715
 Alpha  occ. eigenvalues --   -1.59859  -1.39413  -1.19412  -1.08796  -1.08141
 Alpha  occ. eigenvalues --   -1.04810  -1.03267  -0.95721  -0.95622  -0.86746
 Alpha  occ. eigenvalues --   -0.86200  -0.82457  -0.79342  -0.77950  -0.77494
 Alpha  occ. eigenvalues --   -0.72060  -0.71174  -0.70504  -0.65053  -0.64817
 Alpha  occ. eigenvalues --   -0.64777  -0.62151  -0.60687  -0.59086  -0.57357
 Alpha  occ. eigenvalues --   -0.55309  -0.55110  -0.53270  -0.52897  -0.52414
 Alpha  occ. eigenvalues --   -0.52016  -0.49607  -0.48823  -0.48816  -0.47628
 Alpha  occ. eigenvalues --   -0.46344  -0.45496  -0.45400  -0.44787  -0.43512
 Alpha  occ. eigenvalues --   -0.37305  -0.36418
 Alpha virt. eigenvalues --    0.05007   0.11135   0.16510   0.21249   0.23099
 Alpha virt. eigenvalues --    0.24500   0.26237   0.27354   0.27584   0.28109
 Alpha virt. eigenvalues --    0.28736   0.30989   0.31569   0.32097   0.32164

 Mulliken charges:
               1
     1  C   -0.171557
     2  C   -0.216682
     3  C   -0.170629
     4  C    0.158265
     5  C   -0.173643
     6  C   -0.217452
     7  H    0.225882
     8  H    0.223887
     9  H    0.276018
    10  H    0.276085
    11  H    0.223722
    12  N    0.491101
    13  O   -0.460193
    14  O   -0.460721
    15  C   -0.299327
    16  C   -0.297923
    17  C   -0.488183
    18  H    0.160559
    19  H    0.143530
    20  H    0.152150
    21  H    0.147636
    22  H    0.158635
    23  H    0.164630
    24  H    0.157051
    25  C   -0.298402
    26  C   -0.298871
    27  C   -0.475610
    28  H    0.149856
    29  H    0.146089
    30  H    0.156832
    31  H    0.148796
    32  H    0.152965
    33  H    0.155427
    34  H    0.160077
 Sum of Mulliken charges =  -0.00000

 Dipole moment (field-independent basis, Debye):
    X=             -1.8209    Y=             -4.7800    Z=              0.1632  Tot=              5.1177
 Quadrupole moment (field-independent basis, Debye-Ang):
   XX=            -86.3746   YY=            -97.7923   ZZ=            -92.8275
   XY=             10.6648   XZ=             -1.9961   YZ=              3.7906

 Normal termination of Gaussian 16 at Wed May  5 17:40:23 2021.
