 Gaussian 16, Revision A.03,
 Gaussian 16:  EM64L-G16RevA.03 25-Dec-2016

 -------------
 #p 6-31g* mp2
 -------------

 ------------------------------------------------------
 Input file generated by CHIRIPA (05-May-2021 14:53:18)
 ------------------------------------------------------
 Symbolic Z-matrix:
 Charge =  0 Multiplicity = 1

                         Standard orientation:
 ---------------------------------------------------------------------
 Center     Atomic      Atomic             Coordinates (Angstroms)
 Number     Number       Type             X           Y           Z
 ---------------------------------------------------------------------
      1          6           0       -4.479491   -0.617386    0.040275
      2          6           0       -5.918834   -0.798189   -0.443031
      3          6           0       -6.311001   -2.268144   -0.595450
      4          1           0       -3.797476   -1.108873   -0.667002
      5          1           0       -4.355888   -1.132533    1.002950
      6          1           0       -6.040056   -0.281686   -1.403836
      7          1           0       -6.597489   -0.306050    0.265378
      8          1           0       -6.218276   -2.792761    0.360992
      9          1           0       -5.657677   -2.768259   -1.317706
     10          1           0       -7.343753   -2.374284   -0.941886
     11          6           0       -4.072629    0.846672    0.197516
     12          6           0       -2.633285    1.027475    0.680822
     13          6           0       -2.241119    2.497430    0.833241
     14          1           0       -4.196231    1.361819   -0.765158
     15          1           0       -4.754643    1.338159    0.904793
     16          1           0       -1.954630    0.535336   -0.027587
     17          1           0       -2.512063    0.510972    1.641627
     18          1           0       -2.894442    2.997545    1.555498
     19          1           0       -2.333843    3.022047   -0.123200
     20          1           0       -1.208367    2.603570    1.179677
     21          6           0        5.322868   -1.606393    0.275967
     22          6           0        4.062962   -1.970119    0.762651
     23          6           0        2.957622   -1.137441    0.564111
     24          6           0        3.149040    0.057077   -0.128547
     25          6           0        4.391627    0.447213   -0.625600
     26          6           0        5.482897   -0.401013   -0.415386
     27          1           0        6.176058   -2.259276    0.434733
     28          1           0        3.935723   -2.905639    1.299922
     29          1           0        1.971048   -1.394543    0.930159
     30          1           0        4.487300    1.386054   -1.157429
     31          1           0        6.460183   -0.115972   -0.794476
     32          7           0        1.986313    0.946826   -0.344912
     33          8           0        2.181265    1.993905   -0.958308
     34          8           0        0.902033    0.580283    0.102995
 ---------------------------------------------------------------------

 SCF Done:  E(RHF) =  -669.536093556     A.U. after   15 cycles
 E2 =    -0.2091261701D+01 EUMP2 =    -0.67162735525751D+03

 The electronic state is 1-A.
 Alpha  occ. eigenvalues --  -20.60990 -20.60983 -15.86016 -11.31322 -11.27883
 Alpha  occ. eigenvalues --  -11.27879 -11.27618 -11.26886 -11.26876 -11.20926
 Alpha  occ. eigenvalues --  -11.20554 -11.20516 -11.20212 -11.19932 -11.19341
 Alpha  occ. eigenvalues --   -1.60048  -1.39604  -1.19489  -1.08896  -1.07383
 Alpha  occ. eigenvalues --   -1.04882  -1.02384  -0.95742  -0.94865  -0.86283
 Alpha  occ. eigenvalues --   -0.85900  -0.82576  -0.78526  -0.77634  -0.77102
 Alpha  occ. eigenvalues --   -0.72237  -0.71361  -0.70596  -0.65145  -0.64885
 Alpha  occ. eigenvalues --   -0.64025  -0.62229  -0.59788  -0.58302  -0.56420
 Alpha  occ. eigenvalues --   -0.55384  -0.54188  -0.53215  -0.52972  -0.51550
 Alpha  occ. eigenvalues --   -0.51303  -0.48993  -0.48954  -0.48864  -0.46818
 Alpha  occ. eigenvalues --   -0.45590  -0.45037  -0.44665  -0.44482  -0.42647
 Alpha  occ. eigenvalues --   -0.37467  -0.36482
 Alpha virt. eigenvalues --    0.04882   0.11173   0.16376   0.21300   0.23809
 Alpha virt. eigenvalues --    0.25494   0.27231   0.27636   0.28087   0.28617
 Alpha virt. eigenvalues --    0.29101   0.30878   0.32330   0.32461   0.32782

 Mulliken charges:
               1
     1  C   -0.296926
     2  C   -0.298656
     3  C   -0.474990
     4  H    0.148922
     5  H    0.146381
     6  H    0.151330
     7  H    0.150578
     8  H    0.153438
     9  H    0.153950
    10  H    0.158092
    11  C   -0.298089
    12  C   -0.300162
    13  C   -0.474074
    14  H    0.147779
    15  H    0.144858
    16  H    0.170207
    17  H    0.143532
    18  H    0.143504
    19  H    0.152976
    20  H    0.172461
    21  C   -0.170529
    22  C   -0.218564
    23  C   -0.170878
    24  C    0.157312
    25  C   -0.170473
    26  C   -0.218620
    27  H    0.226103
    28  H    0.223990
    29  H    0.276120
    30  H    0.275921
    31  H    0.223901
    32  N    0.492318
    33  O   -0.458596
    34  O   -0.463115
 Sum of Mulliken charges =  -0.00000

 Dipole moment (field-independent basis, Debye):
    X=              4.5301    Y=             -3.1246    Z=              0.6938  Tot=              5.5468
 Quadrupole moment (field-independent basis, Debye-Ang):
   XX=            -69.2498   YY=            -94.7374   ZZ=            -93.7231
   XY=             -8.0649   XZ=              0.0880   YZ=             -1.8120

 Normal termination of Gaussian 16 at Thu May  6 17:18:52 2021.
