 Gaussian 16, Revision A.03,
 Gaussian 16:  EM64L-G16RevA.03 25-Dec-2016

 -------------
 #p 6-31g* mp2
 -------------

 ------------------------------------------------------
 Input file generated by CHIRIPA (05-May-2021 14:57:25)
 ------------------------------------------------------
 Symbolic Z-matrix:
 Charge =  0 Multiplicity = 1

                         Standard orientation:
 ---------------------------------------------------------------------
 Center     Atomic      Atomic             Coordinates (Angstroms)
 Number     Number       Type             X           Y           Z
 ---------------------------------------------------------------------
      1          6           0       -3.880188   -2.160247   -0.328363
      2          6           0       -2.602170   -2.069913    0.232914
      3          6           0       -1.999008   -0.823908    0.428402
      4          6           0       -2.705613    0.316432    0.049425
      5          6           0       -3.980191    0.259159   -0.512234
      6          6           0       -4.563914   -0.997473   -0.698493
      7          1           0       -4.341188   -3.132301   -0.476638
      8          1           0       -2.068831   -2.971258    0.521306
      9          1           0       -1.010719   -0.725095    0.860767
     10          1           0       -4.487104    1.175364   -0.789770
     11          1           0       -5.556555   -1.064601   -1.134615
     12          7           0       -2.077362    1.641147    0.251494
     13          8           0       -2.720774    2.630845   -0.090784
     14          8           0       -0.953423    1.664676    0.748329
     15          6           0        2.462798   -0.289086    2.475762
     16          6           0        2.206819    0.921907    1.824232
     17          6           0        2.395242    1.039202    0.443911
     18          6           0        2.842641   -0.079640   -0.257027
     19          6           0        3.106365   -1.299761    0.363491
     20          6           0        2.910964   -1.394107    1.744602
     21          1           0        2.313715   -0.371290    3.548335
     22          1           0        1.858685    1.781735    2.389515
     23          1           0        2.204735    1.964731   -0.085732
     24          1           0        3.452543   -2.139453   -0.226845
     25          1           0        3.110563   -2.335836    2.247941
     26          7           0        3.045810    0.032388   -1.718729
     27          8           0        3.440694   -0.968028   -2.313601
     28          8           0        2.806323    1.118490   -2.241862
 ---------------------------------------------------------------------

 SCF Done:  E(RHF) =  -868.339193820     A.U. after   16 cycles
 E2 =    -0.2600517124D+01 EUMP2 =    -0.87093971094385D+03

 The electronic state is 1-A.
 Alpha  occ. eigenvalues --  -20.61167 -20.61105 -20.60347 -20.60317 -15.86178
 Alpha  occ. eigenvalues --  -15.85382 -11.31370 -11.30648 -11.27920 -11.27914
 Alpha  occ. eigenvalues --  -11.27651 -11.27300 -11.27052 -11.26987 -11.26916
 Alpha  occ. eigenvalues --  -11.26899 -11.26354 -11.26059  -1.60206  -1.59414
 Alpha  occ. eigenvalues --   -1.39768  -1.38967  -1.19532  -1.18835  -1.08963
 Alpha  occ. eigenvalues --   -1.08263  -1.04913  -1.04181  -0.95829  -0.95098
 Alpha  occ. eigenvalues --   -0.86320  -0.85600  -0.82685  -0.81897  -0.77739
 Alpha  occ. eigenvalues --   -0.76950  -0.72438  -0.71603  -0.71505  -0.70740
 Alpha  occ. eigenvalues --   -0.70643  -0.69943  -0.65198  -0.64921  -0.64467
 Alpha  occ. eigenvalues --   -0.64174  -0.62263  -0.61501  -0.55428  -0.54744
 Alpha  occ. eigenvalues --   -0.53248  -0.53035  -0.52545  -0.52256  -0.49173
 Alpha  occ. eigenvalues --   -0.49148  -0.48367  -0.48346  -0.45214  -0.44390
 Alpha  occ. eigenvalues --   -0.37506  -0.36882  -0.36506  -0.35711
 Alpha virt. eigenvalues --    0.04747   0.05579   0.11147   0.11869   0.16317
 Alpha virt. eigenvalues --    0.17036   0.21241   0.21994   0.27118   0.27894
 Alpha virt. eigenvalues --    0.28149   0.28857   0.30733   0.31503   0.32169

 Mulliken charges:
               1
     1  C   -0.169778
     2  C   -0.218408
     3  C   -0.172273
     4  C    0.158140
     5  C   -0.169953
     6  C   -0.218513
     7  H    0.226383
     8  H    0.222925
     9  H    0.276683
    10  H    0.276174
    11  H    0.224419
    12  N    0.492974
    13  O   -0.457196
    14  O   -0.472112
    15  C   -0.178522
    16  C   -0.209430
    17  C   -0.159319
    18  C    0.152293
    19  C   -0.176217
    20  C   -0.223211
    21  H    0.223294
    22  H    0.232399
    23  H    0.283128
    24  H    0.271814
    25  H    0.218774
    26  N    0.487951
    27  O   -0.464966
    28  O   -0.457453
 Sum of Mulliken charges =  -0.00000

 Dipole moment (field-independent basis, Debye):
    X=             -3.1691    Y=             -4.7286    Z=              4.4082  Tot=              7.1997
 Quadrupole moment (field-independent basis, Debye-Ang):
   XX=            -94.3735   YY=           -102.5711   ZZ=           -108.3935
   XY=              8.2634   XZ=             18.7292   YZ=             -1.2879

 Normal termination of Gaussian 16 at Fri May  7 12:39:51 2021.
