 Gaussian 16, Revision A.03,
 Gaussian 16:  EM64L-G16RevA.03 25-Dec-2016

 -------------
 #p 6-31g* mp2
 -------------

 ------------------------------------------------------
 Input file generated by CHIRIPA (05-May-2021 14:55:24)
 ------------------------------------------------------
 Symbolic Z-matrix:
 Charge =  0 Multiplicity = 1

                         Standard orientation:
 ---------------------------------------------------------------------
 Center     Atomic      Atomic             Coordinates (Angstroms)
 Number     Number       Type             X           Y           Z
 ---------------------------------------------------------------------
      1          6           0       -3.550324    2.266172   -0.309995
      2          6           0       -4.359378    1.212955    0.128968
      3          6           0       -3.827742   -0.069445    0.294376
      4          6           0       -2.476887   -0.263924    0.010372
      5          6           0       -1.645099    0.765041   -0.428549
      6          6           0       -2.198151    2.039254   -0.586864
      7          1           0       -3.971630    3.259191   -0.435734
      8          1           0       -5.409831    1.386260    0.344742
      9          1           0       -4.431400   -0.902794    0.632821
     10          1           0       -0.601514    0.561480   -0.635697
     11          1           0       -1.567452    2.855310   -0.927914
     12          7           0       -1.902731   -1.617210    0.181728
     13          8           0       -0.709622   -1.762541   -0.075189
     14          8           0       -2.656689   -2.506960    0.569709
     15          6           0        3.335735    0.668205    0.472520
     16          6           0        3.647877    1.955503   -0.291295
     17          6           0        3.733086    3.178856    0.621908
     18          1           0        2.387154    0.790893    1.012969
     19          1           0        4.110644    0.505020    1.234283
     20          1           0        2.873363    2.115480   -1.052315
     21          1           0        4.595730    1.829669   -0.830143
     22          1           0        4.518331    3.045004    1.372956
     23          1           0        2.786177    3.332439    1.149522
     24          1           0        3.957050    4.088025    0.055239
     25          6           0        3.247341   -0.563536   -0.426773
     26          6           0        2.935200   -1.850835    0.337043
     27          6           0        2.849991   -3.074188   -0.576160
     28          1           0        2.472432   -0.400352   -1.188536
     29          1           0        4.195923   -0.686225   -0.967222
     30          1           0        1.987346   -1.725001    0.875890
     31          1           0        3.709714   -2.010812    1.098062
     32          1           0        3.796900   -3.227771   -1.103774
     33          1           0        2.064746   -2.940336   -1.327209
     34          1           0        2.626027   -3.983357   -0.009491
 ---------------------------------------------------------------------

 SCF Done:  E(RHF) =  -669.536144559     A.U. after   15 cycles
 E2 =    -0.2091852495D+01 EUMP2 =    -0.67162799705401D+03

 The electronic state is 1-A.
 Alpha  occ. eigenvalues --  -20.60988 -20.60973 -15.86017 -11.31323 -11.27888
 Alpha  occ. eigenvalues --  -11.27880 -11.27615 -11.26887 -11.26878 -11.21603
 Alpha  occ. eigenvalues --  -11.21169 -11.21113 -11.20780 -11.20442 -11.19815
 Alpha  occ. eigenvalues --   -1.60044  -1.39601  -1.19490  -1.08896  -1.07970
 Alpha  occ. eigenvalues --   -1.04884  -1.02951  -0.95743  -0.95431  -0.86460
 Alpha  occ. eigenvalues --   -0.86285  -0.82577  -0.79119  -0.77688  -0.77614
 Alpha  occ. eigenvalues --   -0.72253  -0.71357  -0.70598  -0.65157  -0.64893
 Alpha  occ. eigenvalues --   -0.64592  -0.62229  -0.60311  -0.58900  -0.57008
 Alpha  occ. eigenvalues --   -0.55386  -0.54719  -0.53216  -0.52972  -0.52135
 Alpha  occ. eigenvalues --   -0.51853  -0.49427  -0.48992  -0.48973  -0.47402
 Alpha  occ. eigenvalues --   -0.46195  -0.45301  -0.45210  -0.44751  -0.43236
 Alpha  occ. eigenvalues --   -0.37466  -0.36485
 Alpha virt. eigenvalues --    0.04869   0.11163   0.16354   0.19760   0.22730
 Alpha virt. eigenvalues --    0.24705   0.25988   0.27567   0.27952   0.28338
 Alpha virt. eigenvalues --    0.29349   0.31140   0.31891   0.32141   0.32652

 Mulliken charges:
               1
     1  C   -0.170440
     2  C   -0.218612
     3  C   -0.170475
     4  C    0.157677
     5  C   -0.172856
     6  C   -0.218980
     7  H    0.226219
     8  H    0.223959
     9  H    0.275912
    10  H    0.277519
    11  H    0.224370
    12  N    0.492451
    13  O   -0.465035
    14  O   -0.458402
    15  C   -0.298922
    16  C   -0.297971
    17  C   -0.475099
    18  H    0.146877
    19  H    0.150515
    20  H    0.143874
    21  H    0.153656
    22  H    0.157303
    23  H    0.151605
    24  H    0.158438
    25  C   -0.298136
    26  C   -0.302895
    27  C   -0.473811
    28  H    0.147127
    29  H    0.146950
    30  H    0.170837
    31  H    0.144818
    32  H    0.145759
    33  H    0.164254
    34  H    0.161516
 Sum of Mulliken charges =  -0.00000

 Dipole moment (field-independent basis, Debye):
    X=             -2.2615    Y=              4.6343    Z=             -0.5550  Tot=              5.1864
 Quadrupole moment (field-independent basis, Debye-Ang):
   XX=            -80.3377   YY=            -98.2327   ZZ=            -95.5167
   XY=             -9.9874   XZ=              0.1767   YZ=             -0.9982

 Normal termination of Gaussian 16 at Thu May  6 16:01:17 2021.
