 Gaussian 16, Revision A.03,
 Gaussian 16:  EM64L-G16RevA.03 25-Dec-2016

 -------------
 #p 6-31g* mp2
 -------------

 ------------------------------------------------------
 Input file generated by CHIRIPA (05-May-2021 14:51:13)
 ------------------------------------------------------
 Symbolic Z-matrix:
 Charge =  0 Multiplicity = 1

                         Standard orientation:
 ---------------------------------------------------------------------
 Center     Atomic      Atomic             Coordinates (Angstroms)
 Number     Number       Type             X           Y           Z
 ---------------------------------------------------------------------
      1          6           0        2.772557   -0.974636    0.419499
      2          6           0        1.840615   -2.106580   -0.014289
      3          6           0        1.992668   -3.360493    0.847323
      4          1           0        3.812156   -1.327197    0.376147
      5          1           0        2.570653   -0.725223    1.470415
      6          1           0        2.043266   -2.352843   -1.064481
      7          1           0        0.803126   -1.751223    0.029917
      8          1           0        1.770401   -3.136791    1.895730
      9          1           0        3.017586   -3.741830    0.795114
     10          1           0        1.317244   -4.156982    0.519805
     11          6           0        2.632232    0.285682   -0.432344
     12          6           0        3.564173    1.417626    0.001444
     13          6           0        3.412121    2.671540   -0.860168
     14          1           0        2.834135    0.036270   -1.483259
     15          1           0        1.592633    0.638243   -0.388992
     16          1           0        4.601662    1.062269   -0.042762
     17          1           0        3.361523    1.663889    1.051636
     18          1           0        2.387202    3.052876   -0.807958
     19          1           0        3.634388    2.447838   -1.908574
     20          1           0        4.087544    3.468029   -0.532649
     21          6           0       -2.983396   -0.205028   -0.443594
     22          6           0       -2.655108   -1.616132    0.045279
     23          6           0       -3.224050   -2.704570   -0.865434
     24          1           0       -4.073967   -0.092821   -0.514373
     25          1           0       -2.589213   -0.076057   -1.461130
     26          1           0       -3.048585   -1.741938    1.062120
     27          1           0       -1.565197   -1.724930    0.115087
     28          1           0       -2.822383   -2.607413   -1.879250
     29          1           0       -4.314199   -2.624517   -0.926837
     30          1           0       -2.977567   -3.705372   -0.497325
     31          6           0       -2.421393    0.893982    0.456439
     32          6           0       -2.749681    2.305085   -0.032435
     33          6           0       -2.180738    3.393524    0.878278
     34          1           0       -2.815575    0.765011    1.473975
     35          1           0       -1.330822    0.781775    0.527218
     36          1           0       -3.839591    2.413885   -0.102243
     37          1           0       -2.356204    2.430892   -1.049276
     38          1           0       -1.090590    3.313471    0.939681
     39          1           0       -2.582406    3.296367    1.892095
     40          1           0       -2.427222    4.394325    0.510170
 ---------------------------------------------------------------------

 SCF Done:  E(RHF) =  -470.733417534     A.U. after   11 cycles
 E2 =    -0.1583440960D+01 EUMP2 =    -0.47231685849489D+03

 The electronic state is 1-A.
 Alpha  occ. eigenvalues --  -11.21644 -11.21641 -11.21636 -11.21605 -11.21460
 Alpha  occ. eigenvalues --  -11.21450 -11.21396 -11.21382 -11.21116 -11.21109
 Alpha  occ. eigenvalues --  -11.21095 -11.21076  -1.08489  -1.08454  -1.03584
 Alpha  occ. eigenvalues --   -1.03543  -0.96021  -0.96002  -0.87039  -0.87016
 Alpha  occ. eigenvalues --   -0.79693  -0.79569  -0.78362  -0.78213  -0.65255
 Alpha  occ. eigenvalues --   -0.64962  -0.61113  -0.60828  -0.59420  -0.59336
 Alpha  occ. eigenvalues --   -0.57663  -0.57582  -0.55355  -0.55243  -0.52715
 Alpha  occ. eigenvalues --   -0.52692  -0.52461  -0.52413  -0.50032  -0.49886
 Alpha  occ. eigenvalues --   -0.48096  -0.47846  -0.46909  -0.46443  -0.46175
 Alpha  occ. eigenvalues --   -0.45791  -0.45779  -0.45299  -0.43828  -0.43809
 Alpha virt. eigenvalues --    0.19486   0.22626   0.23666   0.24874   0.25232
 Alpha virt. eigenvalues --    0.26961   0.27023   0.27161   0.28384   0.29391
 Alpha virt. eigenvalues --    0.30900   0.31595   0.31614   0.31710   0.32236

 Mulliken charges:
               1
     1  C   -0.297388
     2  C   -0.309505
     3  C   -0.475301
     4  H    0.149979
     5  H    0.149776
     6  H    0.152075
     7  H    0.159850
     8  H    0.155430
     9  H    0.155387
    10  H    0.160460
    11  C   -0.300643
    12  C   -0.299718
    13  C   -0.475748
    14  H    0.149785
    15  H    0.150393
    16  H    0.152272
    17  H    0.152180
    18  H    0.154891
    19  H    0.155270
    20  H    0.160609
    21  C   -0.297569
    22  C   -0.309583
    23  C   -0.475092
    24  H    0.149890
    25  H    0.149812
    26  H    0.151974
    27  H    0.160913
    28  H    0.155379
    29  H    0.155193
    30  H    0.160195
    31  C   -0.301067
    32  C   -0.299701
    33  C   -0.475652
    34  H    0.149808
    35  H    0.150466
    36  H    0.152322
    37  H    0.152246
    38  H    0.154429
    39  H    0.155346
    40  H    0.160638
 Sum of Mulliken charges =  -0.00000

 Dipole moment (field-independent basis, Debye):
    X=              0.0041    Y=             -0.0076    Z=             -0.0008  Tot=              0.0087
 Quadrupole moment (field-independent basis, Debye-Ang):
   XX=            -83.5204   YY=            -86.3938   ZZ=            -84.6571
   XY=             -0.5900   XZ=             -1.1308   YZ=              0.2312

 Normal termination of Gaussian 16 at Wed May  5 16:51:45 2021.
