 Gaussian 16, Revision A.03,
 Gaussian 16:  EM64L-G16RevA.03 25-Dec-2016

 -------------
 #p 6-31g* mp2
 -------------

 ------------------------------------------------------
 Input file generated by CHIRIPA (05-May-2021 14:53:14)
 ------------------------------------------------------
 Symbolic Z-matrix:
 Charge =  0 Multiplicity = 1

                         Standard orientation:
 ---------------------------------------------------------------------
 Center     Atomic      Atomic             Coordinates (Angstroms)
 Number     Number       Type             X           Y           Z
 ---------------------------------------------------------------------
      1          6           0       -3.980860   -0.334390   -0.294354
      2          6           0       -4.725826   -1.518544    0.322728
      3          6           0       -5.161839   -2.550052   -0.718271
      4          1           0       -4.625971    0.147153   -1.041945
      5          1           0       -3.099475   -0.706149   -0.835048
      6          1           0       -5.604778   -1.144535    0.863260
      7          1           0       -4.078937   -1.997207    1.069074
      8          1           0       -4.293246   -2.950953   -1.250649
      9          1           0       -5.827757   -2.093436   -1.457632
     10          1           0       -5.692494   -3.387931   -0.255428
     11          6           0       -3.538511    0.705346    0.733754
     12          6           0       -2.793545    1.889500    0.116672
     13          6           0       -2.357532    2.921008    1.157671
     14          1           0       -4.419895    1.077106    1.274448
     15          1           0       -2.893399    0.223803    1.481345
     16          1           0       -3.440433    2.368163   -0.629674
     17          1           0       -1.914592    1.515491   -0.423860
     18          1           0       -1.691614    2.464392    1.897033
     19          1           0       -3.226124    3.321909    1.690049
     20          1           0       -1.826876    3.758888    0.694828
     21          6           0        5.106960   -1.031635    0.762175
     22          6           0        5.110613    0.092489   -0.070203
     23          6           0        3.914413    0.592514   -0.593298
     24          6           0        2.727495   -0.059179   -0.261918
     25          6           0        2.691182   -1.181109    0.564667
     26          6           0        3.899384   -1.663731    1.076401
     27          1           0        6.040858   -1.413306    1.164115
     28          1           0        6.046931    0.585411   -0.315928
     29          1           0        3.888412    1.461062   -1.240109
     30          1           0        1.742007   -1.651116    0.791775
     31          1           0        3.893525   -2.536920    1.722584
     32          7           0        1.454778    0.460963   -0.809682
     33          8           0        0.422447   -0.131214   -0.502671
     34          8           0        1.513653    1.450980   -1.535656
 ---------------------------------------------------------------------

 SCF Done:  E(RHF) =  -669.536788445     A.U. after   15 cycles
 E2 =    -0.2091430429D+01 EUMP2 =    -0.67162821887399D+03

 The electronic state is 1-A.
 Alpha  occ. eigenvalues --  -20.61116 -20.61103 -15.86119 -11.31389 -11.27943
 Alpha  occ. eigenvalues --  -11.27937 -11.27668 -11.26935 -11.26925 -11.20698
 Alpha  occ. eigenvalues --  -11.20326 -11.20147 -11.20062 -11.19876 -11.19792
 Alpha  occ. eigenvalues --   -1.60154  -1.39712  -1.19548  -1.08963  -1.07179
 Alpha  occ. eigenvalues --   -1.04935  -1.02338  -0.95813  -0.94843  -0.86338
 Alpha  occ. eigenvalues --   -0.85870  -0.82650  -0.78418  -0.77710  -0.76948
 Alpha  occ. eigenvalues --   -0.72337  -0.71459  -0.70656  -0.65205  -0.64939
 Alpha  occ. eigenvalues --   -0.63792  -0.62283  -0.59728  -0.58230  -0.56434
 Alpha  occ. eigenvalues --   -0.55442  -0.54140  -0.53269  -0.53026  -0.51577
 Alpha  occ. eigenvalues --   -0.51270  -0.49193  -0.49091  -0.48761  -0.46736
 Alpha  occ. eigenvalues --   -0.45437  -0.45111  -0.44537  -0.44262  -0.42584
 Alpha  occ. eigenvalues --   -0.37523  -0.36533
 Alpha virt. eigenvalues --    0.04807   0.11123   0.16314   0.21254   0.24039
 Alpha virt. eigenvalues --    0.25452   0.27185   0.27766   0.28216   0.28810
 Alpha virt. eigenvalues --    0.29103   0.30850   0.32349   0.32515   0.32942

 Mulliken charges:
               1
     1  C   -0.301071
     2  C   -0.298318
     3  C   -0.475030
     4  H    0.146182
     5  H    0.161695
     6  H    0.148646
     7  H    0.149058
     8  H    0.155330
     9  H    0.154127
    10  H    0.156082
    11  C   -0.294518
    12  C   -0.311677
    13  C   -0.474204
    14  H    0.142151
    15  H    0.147528
    16  H    0.145014
    17  H    0.184113
    18  H    0.150957
    19  H    0.148197
    20  H    0.159376
    21  C   -0.170363
    22  C   -0.218588
    23  C   -0.170519
    24  C    0.158193
    25  C   -0.170648
    26  C   -0.218537
    27  H    0.226375
    28  H    0.224187
    29  H    0.276121
    30  H    0.275648
    31  H    0.224169
    32  N    0.489299
    33  O   -0.460961
    34  O   -0.458013
 Sum of Mulliken charges =  -0.00000

 Dipole moment (field-independent basis, Debye):
    X=              4.9366    Y=             -1.8797    Z=              1.7708  Tot=              5.5712
 Quadrupole moment (field-independent basis, Debye-Ang):
   XX=            -70.1681   YY=            -93.3638   ZZ=            -95.9129
   XY=             -3.9444   XZ=              3.1655   YZ=             -2.6256

 Normal termination of Gaussian 16 at Thu May  6 07:23:18 2021.
