 Gaussian 16, Revision A.03,
 Gaussian 16:  EM64L-G16RevA.03 25-Dec-2016

 -------------
 #p 6-31g* mp2
 -------------

 ------------------------------------------------------
 Input file generated by CHIRIPA (05-May-2021 14:57:22)
 ------------------------------------------------------
 Symbolic Z-matrix:
 Charge =  0 Multiplicity = 1

                         Standard orientation:
 ---------------------------------------------------------------------
 Center     Atomic      Atomic             Coordinates (Angstroms)
 Number     Number       Type             X           Y           Z
 ---------------------------------------------------------------------
      1          6           0        3.581553    2.537623    0.542886
      2          6           0        4.628412    1.617359    0.425750
      3          6           0        4.372469    0.294494    0.052828
      4          6           0        3.051816   -0.075581   -0.196592
      5          6           0        1.987321    0.817974   -0.088433
      6          6           0        2.266667    2.135703    0.285874
      7          1           0        3.789465    3.563261    0.833119
      8          1           0        5.650550    1.926687    0.624734
      9          1           0        5.163955   -0.438526   -0.045397
     10          1           0        0.978732    0.480025   -0.293269
     11          1           0        1.451675    2.848235    0.376054
     12          7           0        2.768473   -1.473320   -0.592121
     13          8           0        1.596256   -1.774371   -0.806392
     14          8           0        3.723971   -2.241351   -0.680377
     15          6           0       -4.462020    1.482499   -1.219923
     16          6           0       -4.542929    1.488923    0.176477
     17          6           0       -3.791981    0.586295    0.935349
     18          6           0       -2.966695   -0.313069    0.262046
     19          6           0       -2.864483   -0.344175   -1.127873
     20          6           0       -3.624532    0.567583   -1.866502
     21          1           0       -5.048907    2.187229   -1.801570
     22          1           0       -5.192489    2.198332    0.681310
     23          1           0       -3.835559    0.569470    2.017586
     24          1           0       -2.208077   -1.063228   -1.602754
     25          1           0       -3.559698    0.560309   -2.950840
     26          7           0       -2.166884   -1.273474    1.054714
     27          8           0       -1.447315   -2.055786    0.437589
     28          8           0       -2.274706   -1.225743    2.278125
 ---------------------------------------------------------------------

 SCF Done:  E(RHF) =  -868.336171975     A.U. after   16 cycles
 E2 =    -0.2600817237D+01 EUMP2 =    -0.87093698921180D+03

 The electronic state is 1-A.
 Alpha  occ. eigenvalues --  -20.60491 -20.60357 -20.60108 -20.60021 -15.85458
 Alpha  occ. eigenvalues --  -15.85116 -11.31114 -11.30732 -11.27725 -11.27641
 Alpha  occ. eigenvalues --  -11.27493 -11.27341 -11.27332 -11.27137 -11.26788
 Alpha  occ. eigenvalues --  -11.26742 -11.26422 -11.26403  -1.59506  -1.59140
 Alpha  occ. eigenvalues --   -1.39039  -1.38682  -1.19310  -1.18931  -1.08656
 Alpha  occ. eigenvalues --   -1.08284  -1.04734  -1.04376  -0.95435  -0.95074
 Alpha  occ. eigenvalues --   -0.86115  -0.85763  -0.82252  -0.81894  -0.77263
 Alpha  occ. eigenvalues --   -0.76895  -0.71705  -0.71292  -0.70842  -0.70463
 Alpha  occ. eigenvalues --   -0.70380  -0.70047  -0.64936  -0.64721  -0.64578
 Alpha  occ. eigenvalues --   -0.64391  -0.62054  -0.61725  -0.55221  -0.54880
 Alpha  occ. eigenvalues --   -0.53080  -0.52808  -0.52685  -0.52479  -0.48469
 Alpha  occ. eigenvalues --   -0.48420  -0.48121  -0.48076  -0.44419  -0.43952
 Alpha  occ. eigenvalues --   -0.37322  -0.36926  -0.36363  -0.35988
 Alpha virt. eigenvalues --    0.05238   0.05654   0.11241   0.11664   0.16665
 Alpha virt. eigenvalues --    0.17101   0.21404   0.21734   0.27214   0.27535
 Alpha virt. eigenvalues --    0.28178   0.28687   0.30672   0.31349   0.32277

 Mulliken charges:
               1
     1  C   -0.171427
     2  C   -0.218485
     3  C   -0.171059
     4  C    0.159711
     5  C   -0.169236
     6  C   -0.218220
     7  H    0.223400
     8  H    0.221991
     9  H    0.275290
    10  H    0.273125
    11  H    0.220411
    12  N    0.487815
    13  O   -0.450935
    14  O   -0.464077
    15  C   -0.172227
    16  C   -0.219281
    17  C   -0.172990
    18  C    0.154600
    19  C   -0.176475
    20  C   -0.219519
    21  H    0.224785
    22  H    0.222402
    23  H    0.275134
    24  H    0.285074
    25  H    0.224352
    26  N    0.484563
    27  O   -0.443633
    28  O   -0.465088
 Sum of Mulliken charges =  -0.00000

 Dipole moment (field-independent basis, Debye):
    X=             -1.8442    Y=              8.0144    Z=             -1.4735  Tot=              8.3548
 Quadrupole moment (field-independent basis, Debye-Ang):
   XX=            -78.0798   YY=           -107.9148   ZZ=           -104.4605
   XY=              3.8486   XZ=             10.5288   YZ=              2.5731

 Normal termination of Gaussian 16 at Thu May  6 03:20:31 2021.
