 Gaussian 16, Revision A.03,
 Gaussian 16:  EM64L-G16RevA.03 25-Dec-2016

 -------------
 #p 6-31g* mp2
 -------------

 ------------------------------------------------------
 Input file generated by CHIRIPA (05-May-2021 14:53:15)
 ------------------------------------------------------
 Symbolic Z-matrix:
 Charge =  0 Multiplicity = 1

                         Standard orientation:
 ---------------------------------------------------------------------
 Center     Atomic      Atomic             Coordinates (Angstroms)
 Number     Number       Type             X           Y           Z
 ---------------------------------------------------------------------
      1          6           0       -2.714001    1.572274   -0.005710
      2          6           0       -1.345733    2.249253   -0.092465
      3          6           0       -1.419060    3.760707    0.126443
      4          1           0       -3.385461    2.020014   -0.751105
      5          1           0       -3.156439    1.780133    0.978383
      6          1           0       -0.905405    2.039025   -1.075589
      7          1           0       -0.677394    1.799717    0.653093
      8          1           0       -1.834619    3.987270    1.113652
      9          1           0       -2.063926    4.227938   -0.624852
     10          1           0       -0.429899    4.224417    0.060167
     11          6           0       -2.657075    0.061139   -0.222411
     12          6           0       -4.025343   -0.615840   -0.135655
     13          6           0       -3.952015   -2.127295   -0.354563
     14          1           0       -2.214637   -0.146721   -1.206503
     15          1           0       -1.985614   -0.386602    0.522985
     16          1           0       -4.693681   -0.166304   -0.881213
     17          1           0       -4.465670   -0.405612    0.847469
     18          1           0       -3.307150   -2.594526    0.396732
     19          1           0       -3.536456   -2.353857   -1.341772
     20          1           0       -4.941177   -2.591004   -0.288287
     21          6           0        4.051275    0.857092   -0.472571
     22          6           0        3.563391    0.805269    0.837317
     23          6           0        2.481687   -0.019570    1.159970
     24          6           0        1.909249   -0.782597    0.143411
     25          6           0        2.372599   -0.752742   -1.171011
     26          6           0        3.455373    0.079292   -1.470794
     27          1           0        4.891984    1.500641   -0.714333
     28          1           0        4.024208    1.408217    1.614585
     29          1           0        2.083918   -0.078905    2.165792
     30          1           0        1.892502   -1.365401   -1.924385
     31          1           0        3.832167    0.117524   -2.488934
     32          7           0        0.763531   -1.659626    0.472884
     33          8           0        0.276715   -2.322050   -0.440813
     34          8           0        0.374029   -1.668010    1.638583
 ---------------------------------------------------------------------

 SCF Done:  E(RHF) =  -669.536580208     A.U. after   15 cycles
 E2 =    -0.2093025447D+01 EUMP2 =    -0.67162960565546D+03

 The electronic state is 1-A.
 Alpha  occ. eigenvalues --  -20.60979 -20.60956 -15.85964 -11.31289 -11.27850
 Alpha  occ. eigenvalues --  -11.27839 -11.27577 -11.26851 -11.26841 -11.21252
 Alpha  occ. eigenvalues --  -11.20875 -11.20723 -11.20563 -11.20275 -11.19734
 Alpha  occ. eigenvalues --   -1.60010  -1.39567  -1.19448  -1.08855  -1.07658
 Alpha  occ. eigenvalues --   -1.04845  -1.02767  -0.95700  -0.95199  -0.86247
 Alpha  occ. eigenvalues --   -0.86214  -0.82539  -0.78898  -0.77595  -0.77412
 Alpha  occ. eigenvalues --   -0.72197  -0.71307  -0.70560  -0.65107  -0.64850
 Alpha  occ. eigenvalues --   -0.64285  -0.62194  -0.60170  -0.58643  -0.56795
 Alpha  occ. eigenvalues --   -0.55351  -0.54472  -0.53173  -0.52938  -0.51952
 Alpha  occ. eigenvalues --   -0.51592  -0.49153  -0.48972  -0.48957  -0.47179
 Alpha  occ. eigenvalues --   -0.45947  -0.45214  -0.44885  -0.44563  -0.43007
 Alpha  occ. eigenvalues --   -0.37411  -0.36437
 Alpha virt. eigenvalues --    0.04895   0.11167   0.16387   0.21322   0.23525
 Alpha virt. eigenvalues --    0.25144   0.27089   0.27427   0.27683   0.28468
 Alpha virt. eigenvalues --    0.28777   0.31037   0.32116   0.32264   0.32336

 Mulliken charges:
               1
     1  C   -0.296907
     2  C   -0.299952
     3  C   -0.474810
     4  H    0.146536
     5  H    0.148736
     6  H    0.148859
     7  H    0.149420
     8  H    0.155228
     9  H    0.154897
    10  H    0.155458
    11  C   -0.307568
    12  C   -0.298952
    13  C   -0.475956
    14  H    0.148439
    15  H    0.166889
    16  H    0.145958
    17  H    0.149330
    18  H    0.169514
    19  H    0.155602
    20  H    0.152958
    21  C   -0.170443
    22  C   -0.218328
    23  C   -0.171368
    24  C    0.161450
    25  C   -0.170810
    26  C   -0.218432
    27  H    0.225990
    28  H    0.223860
    29  H    0.275600
    30  H    0.275675
    31  H    0.223769
    32  N    0.487936
    33  O   -0.457286
    34  O   -0.461293
 Sum of Mulliken charges =  -0.00000

 Dipole moment (field-independent basis, Debye):
    X=              4.2277    Y=              2.8692    Z=             -1.1179  Tot=              5.2303
 Quadrupole moment (field-independent basis, Debye-Ang):
   XX=            -80.6103   YY=           -101.3307   ZZ=            -89.6296
   XY=              3.1228   XZ=             -1.5869   YZ=              2.7218

 Normal termination of Gaussian 16 at Thu May  6 05:55:05 2021.
