 Gaussian 16, Revision A.03,
 Gaussian 16:  EM64L-G16RevA.03 25-Dec-2016

 -------------
 #p 6-31g* mp2
 -------------

 ------------------------------------------------------
 Input file generated by CHIRIPA (05-May-2021 14:55:25)
 ------------------------------------------------------
 Symbolic Z-matrix:
 Charge =  0 Multiplicity = 1

                         Standard orientation:
 ---------------------------------------------------------------------
 Center     Atomic      Atomic             Coordinates (Angstroms)
 Number     Number       Type             X           Y           Z
 ---------------------------------------------------------------------
      1          6           0        1.446694    1.390274   -1.037452
      2          6           0        2.728757    1.917012   -0.849343
      3          6           0        3.772485    1.101980   -0.401122
      4          6           0        3.497531   -0.241308   -0.149591
      5          6           0        2.230882   -0.795634   -0.327392
      6          6           0        1.202280    0.038017   -0.776337
      7          1           0        0.641776    2.030643   -1.385923
      8          1           0        2.921480    2.966823   -1.051332
      9          1           0        4.774458    1.483710   -0.247008
     10          1           0        2.069404   -1.846036   -0.117633
     11          1           0        0.207603   -0.373785   -0.921535
     12          7           0        4.594473   -1.114001    0.325303
     13          8           0        4.326371   -2.294149    0.539805
     14          8           0        5.701587   -0.601347    0.474032
     15          6           0       -4.939340    0.084007   -0.024975
     16          6           0       -5.486749   -1.341474   -0.104545
     17          6           0       -6.875739   -1.406689   -0.740351
     18          1           0       -5.637520    0.706462    0.551254
     19          1           0       -4.901060    0.511625   -1.036445
     20          1           0       -5.522686   -1.766766    0.906618
     21          1           0       -4.787091   -1.960654   -0.680488
     22          1           0       -6.852019   -1.007543   -1.759527
     23          1           0       -7.591793   -0.812553   -0.163403
     24          1           0       -7.247928   -2.434861   -0.787247
     25          6           0       -3.551518    0.165536    0.608296
     26          6           0       -3.004109    1.591018    0.687867
     27          6           0       -1.615119    1.656232    1.323672
     28          1           0       -3.589799   -0.262082    1.619766
     29          1           0       -2.853339   -0.456920    0.032067
     30          1           0       -3.703767    2.210198    1.263809
     31          1           0       -2.968172    2.016310   -0.323297
     32          1           0       -0.899065    1.062096    0.746724
     33          1           0       -1.638840    1.257086    2.342848
     34          1           0       -1.242931    2.684403    1.370568
 ---------------------------------------------------------------------

 SCF Done:  E(RHF) =  -669.534419233     A.U. after   15 cycles
 E2 =    -0.2092493668D+01 EUMP2 =    -0.67162691290161D+03

 The electronic state is 1-A.
 Alpha  occ. eigenvalues --  -20.60767 -20.60762 -15.85822 -11.31198 -11.27782
 Alpha  occ. eigenvalues --  -11.27778 -11.27518 -11.26789 -11.26776 -11.22398
 Alpha  occ. eigenvalues --  -11.22176 -11.22131 -11.21998 -11.21775 -11.21508
 Alpha  occ. eigenvalues --   -1.59843  -1.39396  -1.19385  -1.09123  -1.08777
 Alpha  occ. eigenvalues --   -1.04798  -1.04182  -0.96633  -0.95603  -0.87647
 Alpha  occ. eigenvalues --   -0.86196  -0.82437  -0.80249  -0.78926  -0.77484
 Alpha  occ. eigenvalues --   -0.72042  -0.71166  -0.70491  -0.65796  -0.65040
 Alpha  occ. eigenvalues --   -0.64812  -0.62188  -0.61545  -0.60000  -0.58235
 Alpha  occ. eigenvalues --   -0.55964  -0.55279  -0.53376  -0.53224  -0.52922
 Alpha  occ. eigenvalues --   -0.52838  -0.50547  -0.48808  -0.48794  -0.48544
 Alpha  occ. eigenvalues --   -0.47294  -0.46462  -0.46389  -0.44799  -0.44443
 Alpha  occ. eigenvalues --   -0.37300  -0.36369
 Alpha virt. eigenvalues --    0.05054   0.11104   0.16519   0.19386   0.22732
 Alpha virt. eigenvalues --    0.23979   0.24904   0.26288   0.27260   0.28108
 Alpha virt. eigenvalues --    0.29285   0.29931   0.31078   0.31323   0.31633

 Mulliken charges:
               1
     1  C   -0.166660
     2  C   -0.219301
     3  C   -0.170461
     4  C    0.158244
     5  C   -0.172293
     6  C   -0.220694
     7  H    0.227333
     8  H    0.223588
     9  H    0.275788
    10  H    0.275989
    11  H    0.224727
    12  N    0.488133
    13  O   -0.460342
    14  O   -0.460418
    15  C   -0.298510
    16  C   -0.299988
    17  C   -0.476065
    18  H    0.151992
    19  H    0.148739
    20  H    0.153653
    21  H    0.150920
    22  H    0.155204
    23  H    0.156250
    24  H    0.162056
    25  C   -0.297591
    26  C   -0.300747
    27  C   -0.482099
    28  H    0.153493
    29  H    0.141982
    30  H    0.155771
    31  H    0.146667
    32  H    0.155273
    33  H    0.160191
    34  H    0.159175
 Sum of Mulliken charges =  -0.00000

 Dipole moment (field-independent basis, Debye):
    X=             -3.9437    Y=              3.0765    Z=             -1.6162  Tot=              5.2564
 Quadrupole moment (field-independent basis, Debye-Ang):
   XX=           -120.3570   YY=            -93.5194   ZZ=            -94.3294
   XY=             14.4906   XZ=             -6.4676   YZ=             -0.1942

 Normal termination of Gaussian 16 at Wed May  5 19:11:38 2021.
