 Gaussian 16, Revision A.03,
 Gaussian 16:  EM64L-G16RevA.03 25-Dec-2016

 -------------
 #p 6-31g* mp2
 -------------

 ------------------------------------------------------
 Input file generated by CHIRIPA (05-May-2021 14:55:23)
 ------------------------------------------------------
 Symbolic Z-matrix:
 Charge =  0 Multiplicity = 1

                         Standard orientation:
 ---------------------------------------------------------------------
 Center     Atomic      Atomic             Coordinates (Angstroms)
 Number     Number       Type             X           Y           Z
 ---------------------------------------------------------------------
      1          6           0        5.780915   -0.488895    0.305707
      2          6           0        5.316956    0.685693   -0.295631
      3          6           0        3.955328    0.856690   -0.562604
      4          6           0        3.081609   -0.171912   -0.213485
      5          6           0        3.513157   -1.353793    0.386693
      6          6           0        4.879124   -1.503101    0.644352
      7          1           0        6.840346   -0.613306    0.509480
      8          1           0        6.015009    1.475015   -0.559711
      9          1           0        3.569053    1.755773   -1.027213
     10          1           0        2.793175   -2.122966    0.638521
     11          1           0        5.236601   -2.416375    1.111456
     12          7           0        1.637817   -0.002365   -0.491187
     13          8           0        0.888441   -0.923476   -0.173971
     14          8           0        1.282888    1.048427   -1.020809
     15          6           0       -4.712338   -0.338760    0.338246
     16          6           0       -5.911987   -0.379809   -0.608931
     17          6           0       -6.829551   -1.574992   -0.349301
     18          1           0       -4.140291   -1.271076    0.235809
     19          1           0       -5.073826   -0.306195    1.375386
     20          1           0       -5.548352   -0.410891   -1.644025
     21          1           0       -6.481138    0.552795   -0.504367
     22          1           0       -7.220207   -1.545827    0.673019
     23          1           0       -6.282121   -2.514988   -0.473114
     24          1           0       -7.680509   -1.584785   -1.037511
     25          6           0       -3.785744    0.850389    0.091107
     26          6           0       -2.586096    0.891437    1.038284
     27          6           0       -1.668532    2.086621    0.778654
     28          1           0       -3.424256    0.817823   -0.946034
     29          1           0       -4.357793    1.782705    0.193544
     30          1           0       -2.016945   -0.041167    0.933720
     31          1           0       -2.949731    0.922519    2.073377
     32          1           0       -2.215961    3.026616    0.902468
     33          1           0       -1.277876    2.057456   -0.243666
     34          1           0       -0.817573    2.096414    1.466864
 ---------------------------------------------------------------------

 SCF Done:  E(RHF) =  -669.536476270     A.U. after   15 cycles
 E2 =    -0.2091640787D+01 EUMP2 =    -0.67162811705755D+03

 The electronic state is 1-A.
 Alpha  occ. eigenvalues --  -20.61038 -20.61026 -15.86044 -11.31341 -11.27897
 Alpha  occ. eigenvalues --  -11.27892 -11.27629 -11.26896 -11.26887 -11.20719
 Alpha  occ. eigenvalues --  -11.20349 -11.20293 -11.20044 -11.19922 -11.19225
 Alpha  occ. eigenvalues --   -1.60075  -1.39634  -1.19503  -1.08913  -1.07204
 Alpha  occ. eigenvalues --   -1.04894  -1.02252  -0.95761  -0.94717  -0.86296
 Alpha  occ. eigenvalues --   -0.85743  -0.82594  -0.78374  -0.77650  -0.76968
 Alpha  occ. eigenvalues --   -0.72263  -0.71385  -0.70611  -0.65158  -0.64898
 Alpha  occ. eigenvalues --   -0.63828  -0.62241  -0.59629  -0.58165  -0.56326
 Alpha  occ. eigenvalues --   -0.55403  -0.54003  -0.53223  -0.52985  -0.51444
 Alpha  occ. eigenvalues --   -0.51156  -0.49179  -0.49019  -0.48474  -0.46666
 Alpha  occ. eigenvalues --   -0.45456  -0.45008  -0.44509  -0.44317  -0.42531
 Alpha  occ. eigenvalues --   -0.37479  -0.36493
 Alpha virt. eigenvalues --    0.04861   0.11163   0.16358   0.21296   0.24040
 Alpha virt. eigenvalues --    0.25632   0.27222   0.27852   0.28221   0.28678
 Alpha virt. eigenvalues --    0.29269   0.30892   0.32386   0.32714   0.32852

 Mulliken charges:
               1
     1  C   -0.170466
     2  C   -0.218588
     3  C   -0.170634
     4  C    0.158203
     5  C   -0.170647
     6  C   -0.218600
     7  H    0.226170
     8  H    0.224025
     9  H    0.276077
    10  H    0.275869
    11  H    0.223980
    12  N    0.489366
    13  O   -0.460380
    14  O   -0.458163
    15  C   -0.297897
    16  C   -0.298836
    17  C   -0.475036
    18  H    0.151581
    19  H    0.145879
    20  H    0.151978
    21  H    0.149725
    22  H    0.153376
    23  H    0.154659
    24  H    0.157446
    25  C   -0.297889
    26  C   -0.303211
    27  C   -0.476749
    28  H    0.153150
    29  H    0.144143
    30  H    0.167378
    31  H    0.141874
    32  H    0.142833
    33  H    0.178286
    34  H    0.151096
 Sum of Mulliken charges =  -0.00000

 Dipole moment (field-independent basis, Debye):
    X=              5.5124    Y=             -0.6870    Z=              0.8194  Tot=              5.6152
 Quadrupole moment (field-independent basis, Debye-Ang):
   XX=            -65.4789   YY=            -91.3365   ZZ=            -95.0482
   XY=             -2.5008   XZ=              1.6473   YZ=             -2.0762

 Normal termination of Gaussian 16 at Thu May  6 06:19:23 2021.
