 Gaussian 16, Revision A.03,
 Gaussian 16:  EM64L-G16RevA.03 25-Dec-2016

 -------------
 #p 6-31g* mp2
 -------------

 ------------------------------------------------------
 Input file generated by CHIRIPA (05-May-2021 14:55:24)
 ------------------------------------------------------
 Symbolic Z-matrix:
 Charge =  0 Multiplicity = 1

                         Standard orientation:
 ---------------------------------------------------------------------
 Center     Atomic      Atomic             Coordinates (Angstroms)
 Number     Number       Type             X           Y           Z
 ---------------------------------------------------------------------
      1          6           0       -3.595604   -1.938246   -0.583863
      2          6           0       -2.258020   -1.608002   -0.825377
      3          6           0       -1.787833   -0.316814   -0.567880
      4          6           0       -2.686708    0.623580   -0.066908
      5          6           0       -4.025085    0.325188    0.184088
      6          6           0       -4.473320   -0.972300   -0.080788
      7          1           0       -3.952331   -2.943719   -0.786758
      8          1           0       -1.574120   -2.356134   -1.216048
      9          1           0       -0.757358   -0.034117   -0.745704
     10          1           0       -4.683067    1.092404    0.573775
     11          1           0       -5.512633   -1.225938    0.107735
     12          7           0       -2.200562    1.993838    0.209598
     13          8           0       -3.012534    2.804224    0.650747
     14          8           0       -1.016752    2.231514   -0.020060
     15          6           0        4.277035   -0.316100    0.216289
     16          6           0        4.654179    0.940564   -0.568913
     17          6           0        6.128788    1.313931   -0.414258
     18          1           0        4.507653   -0.159740    1.278980
     19          1           0        4.905238   -1.152516   -0.120107
     20          1           0        4.024499    1.774039   -0.232108
     21          1           0        4.422458    0.781266   -1.629831
     22          1           0        6.771154    0.501235   -0.768506
     23          1           0        6.370934    1.499649    0.637158
     24          1           0        6.376616    2.215093   -0.983772
     25          6           0        2.806051   -0.702128    0.071659
     26          6           0        2.428908   -1.958792    0.856861
     27          6           0        0.954298   -2.332158    0.702204
     28          1           0        2.177847    0.134289    0.408055
     29          1           0        2.575433   -0.858487   -0.991032
     30          1           0        2.660629   -1.799494    1.917778
     31          1           0        3.058588   -2.792267    0.520055
     32          1           0        0.712153   -2.517877   -0.349211
     33          1           0        0.311931   -1.519463    1.056454
     34          1           0        0.706470   -3.233321    1.271720
 ---------------------------------------------------------------------

 SCF Done:  E(RHF) =  -669.534365516     A.U. after   15 cycles
 E2 =    -0.2092967234D+01 EUMP2 =    -0.67162733274995D+03

 The electronic state is 1-A.
 Alpha  occ. eigenvalues --  -20.60757 -20.60750 -15.85805 -11.31121 -11.27686
 Alpha  occ. eigenvalues --  -11.27633 -11.27414 -11.26701 -11.26637 -11.21894
 Alpha  occ. eigenvalues --  -11.21675 -11.21507 -11.21425 -11.21347 -11.20900
 Alpha  occ. eigenvalues --   -1.59830  -1.39385  -1.19294  -1.08697  -1.08519
 Alpha  occ. eigenvalues --   -1.04700  -1.03653  -0.96149  -0.95536  -0.87184
 Alpha  occ. eigenvalues --   -0.86087  -0.82378  -0.79755  -0.78306  -0.77395
 Alpha  occ. eigenvalues --   -0.72024  -0.71154  -0.70405  -0.65164  -0.64944
 Alpha  occ. eigenvalues --   -0.64686  -0.62085  -0.61050  -0.59514  -0.57724
 Alpha  occ. eigenvalues --   -0.55468  -0.55191  -0.53207  -0.52889  -0.52704
 Alpha  occ. eigenvalues --   -0.52407  -0.50075  -0.48781  -0.48776  -0.48032
 Alpha  occ. eigenvalues --   -0.46741  -0.45849  -0.45715  -0.44796  -0.43889
 Alpha  occ. eigenvalues --   -0.37281  -0.36214
 Alpha virt. eigenvalues --    0.05085   0.11287   0.16552   0.20381   0.22933
 Alpha virt. eigenvalues --    0.24035   0.25592   0.26498   0.27206   0.28316
 Alpha virt. eigenvalues --    0.29354   0.29843   0.31466   0.31783   0.32100

 Mulliken charges:
               1
     1  C   -0.171762
     2  C   -0.216466
     3  C   -0.173994
     4  C    0.156826
     5  C   -0.171346
     6  C   -0.218648
     7  H    0.225346
     8  H    0.226285
     9  H    0.279762
    10  H    0.275114
    11  H    0.223020
    12  N    0.488348
    13  O   -0.460374
    14  O   -0.461760
    15  C   -0.298123
    16  C   -0.301093
    17  C   -0.475956
    18  H    0.151169
    19  H    0.148154
    20  H    0.158952
    21  H    0.150966
    22  H    0.153554
    23  H    0.155605
    24  H    0.161464
    25  C   -0.304727
    26  C   -0.298902
    27  C   -0.481588
    28  H    0.160544
    29  H    0.145074
    30  H    0.155596
    31  H    0.151750
    32  H    0.142173
    33  H    0.163071
    34  H    0.161966
 Sum of Mulliken charges =  -0.00000

 Dipole moment (field-independent basis, Debye):
    X=             -1.6274    Y=             -4.7519    Z=             -0.8901  Tot=              5.1011
 Quadrupole moment (field-independent basis, Debye-Ang):
   XX=            -82.3910   YY=           -101.0492   ZZ=            -94.2514
   XY=             10.4797   XZ=              1.1343   YZ=              0.5763

 Normal termination of Gaussian 16 at Thu May  6 14:19:19 2021.
