 Gaussian 16, Revision A.03,
 Gaussian 16:  EM64L-G16RevA.03 25-Dec-2016

 -------------
 #p 6-31g* mp2
 -------------

 ------------------------------------------------------
 Input file generated by CHIRIPA (05-May-2021 14:51:10)
 ------------------------------------------------------
 Symbolic Z-matrix:
 Charge =  0 Multiplicity = 1

                         Standard orientation:
 ---------------------------------------------------------------------
 Center     Atomic      Atomic             Coordinates (Angstroms)
 Number     Number       Type             X           Y           Z
 ---------------------------------------------------------------------
      1          6           0       -2.591716    1.489427    0.258503
      2          6           0       -1.463026    2.173535   -0.513534
      3          6           0       -1.090684    3.537455    0.068598
      4          1           0       -3.474999    2.142692    0.259682
      5          1           0       -2.289204    1.370907    1.308186
      6          1           0       -1.767026    2.289480   -1.561750
      7          1           0       -0.582388    1.518482   -0.513038
      8          1           0       -0.761999    3.435977    1.107958
      9          1           0       -1.953368    4.211355    0.053288
     10          1           0       -0.281907    4.008761   -0.498509
     11          6           0       -2.975229    0.124940   -0.311427
     12          6           0       -4.103919   -0.559167    0.460610
     13          6           0       -4.476261   -1.923087   -0.121522
     14          1           0       -3.277740    0.243460   -1.361110
     15          1           0       -2.091946   -0.528324   -0.312605
     16          1           0       -4.984556    0.095885    0.460115
     17          1           0       -3.799918   -0.675112    1.508826
     18          1           0       -3.613576   -2.596987   -0.106212
     19          1           0       -4.804945   -1.821609   -1.160882
     20          1           0       -5.285038   -2.394393    0.445586
     21          6           0        3.281559   -0.342679    0.372261
     22          6           0        4.531560   -0.064057   -0.463114
     23          6           0        5.518494    0.866766    0.242099
     24          1           0        2.785943    0.609111    0.607642
     25          1           0        3.581739   -0.784614    1.332461
     26          1           0        4.229020    0.375943   -1.422012
     27          1           0        5.024152   -1.016638   -0.696694
     28          1           0        5.848788    0.430826    1.190500
     29          1           0        5.049138    1.831319    0.461061
     30          1           0        6.404657    1.052487   -0.372785
     31          6           0        2.285386   -1.271688   -0.319338
     32          6           0        1.035384   -1.550311    0.516037
     33          6           0        0.048451   -2.481134   -0.189176
     34          1           0        1.985205   -0.829754   -1.279536
     35          1           0        2.781001   -2.223479   -0.554718
     36          1           0        0.542792   -0.597731    0.749618
     37          1           0        1.337924   -1.990311    1.474935
     38          1           0        0.517807   -3.445687   -0.408137
     39          1           0       -0.281843   -2.045194   -1.137576
     40          1           0       -0.837713   -2.666855    0.425708
 ---------------------------------------------------------------------

 SCF Done:  E(RHF) =  -470.732733947     A.U. after   11 cycles
 E2 =    -0.1584303954D+01 EUMP2 =    -0.47231703790113D+03

 The electronic state is 1-A.
 Alpha  occ. eigenvalues --  -11.21707 -11.21637 -11.21635 -11.21559 -11.21467
 Alpha  occ. eigenvalues --  -11.21405 -11.21369 -11.21248 -11.21169 -11.21105
 Alpha  occ. eigenvalues --  -11.21093 -11.21028  -1.08511  -1.08395  -1.03606
 Alpha  occ. eigenvalues --   -1.03520  -0.96065  -0.95954  -0.87085  -0.86969
 Alpha  occ. eigenvalues --   -0.79696  -0.79556  -0.78306  -0.78224  -0.65344
 Alpha  occ. eigenvalues --   -0.64879  -0.60998  -0.60946  -0.59447  -0.59297
 Alpha  occ. eigenvalues --   -0.57656  -0.57581  -0.55474  -0.55130  -0.52762
 Alpha  occ. eigenvalues --   -0.52661  -0.52471  -0.52390  -0.50117  -0.49807
 Alpha  occ. eigenvalues --   -0.48017  -0.47873  -0.46798  -0.46510  -0.45929
 Alpha  occ. eigenvalues --   -0.45766  -0.45721  -0.45527  -0.43835  -0.43762
 Alpha virt. eigenvalues --    0.19482   0.22405   0.23694   0.24402   0.26264
 Alpha virt. eigenvalues --    0.26766   0.27161   0.27531   0.27647   0.29953
 Alpha virt. eigenvalues --    0.30188   0.31399   0.31754   0.31906   0.32190

 Mulliken charges:
               1
     1  C   -0.297290
     2  C   -0.303545
     3  C   -0.475576
     4  H    0.149613
     5  H    0.149065
     6  H    0.152136
     7  H    0.153691
     8  H    0.155134
     9  H    0.155626
    10  H    0.159930
    11  C   -0.310273
    12  C   -0.298939
    13  C   -0.478323
    14  H    0.148468
    15  H    0.164916
    16  H    0.151690
    17  H    0.151150
    18  H    0.157480
    19  H    0.155164
    20  H    0.159980
    21  C   -0.298579
    22  C   -0.299713
    23  C   -0.475794
    24  H    0.149728
    25  H    0.149664
    26  H    0.152150
    27  H    0.152035
    28  H    0.155198
    29  H    0.155392
    30  H    0.160397
    31  C   -0.298661
    32  C   -0.305197
    33  C   -0.482256
    34  H    0.150223
    35  H    0.150154
    36  H    0.155506
    37  H    0.152722
    38  H    0.157561
    39  H    0.157349
    40  H    0.162023
 Sum of Mulliken charges =  -0.00000

 Dipole moment (field-independent basis, Debye):
    X=              0.0451    Y=             -0.0322    Z=             -0.0119  Tot=              0.0567
 Quadrupole moment (field-independent basis, Debye-Ang):
   XX=            -84.9966   YY=            -85.3455   ZZ=            -84.4783
   XY=             -1.6148   XZ=              0.2162   YZ=             -1.1589

 Normal termination of Gaussian 16 at Wed May  5 18:12:36 2021.
