 Gaussian 16, Revision A.03,
 Gaussian 16:  EM64L-G16RevA.03 25-Dec-2016

 -------------
 #p 6-31g* mp2
 -------------

 ------------------------------------------------------
 Input file generated by CHIRIPA (05-May-2021 14:53:16)
 ------------------------------------------------------
 Symbolic Z-matrix:
 Charge =  0 Multiplicity = 1

                         Standard orientation:
 ---------------------------------------------------------------------
 Center     Atomic      Atomic             Coordinates (Angstroms)
 Number     Number       Type             X           Y           Z
 ---------------------------------------------------------------------
      1          6           0       -4.597646   -0.465690    0.370534
      2          6           0       -6.015867   -0.739351   -0.131208
      3          6           0       -6.703418   -1.873635    0.629362
      4          1           0       -4.000530   -1.383546    0.281444
      5          1           0       -4.635845   -0.220313    1.440920
      6          1           0       -5.975152   -0.982786   -1.200646
      7          1           0       -6.609622    0.179316   -0.041092
      8          1           0       -6.773443   -1.635495    1.695658
      9          1           0       -6.135368   -2.804199    0.529515
     10          1           0       -7.716014   -2.052395    0.254455
     11          6           0       -3.897255    0.665613   -0.380023
     12          6           0       -2.479035    0.939274    0.121719
     13          6           0       -1.791484    2.073558   -0.638851
     14          1           0       -3.859056    0.420236   -1.450409
     15          1           0       -4.494371    1.583469   -0.290933
     16          1           0       -1.885279    0.020607    0.031603
     17          1           0       -2.519750    1.182709    1.191158
     18          1           0       -2.359534    3.004123   -0.539004
     19          1           0       -1.721458    1.835418   -1.705146
     20          1           0       -0.778888    2.252319   -0.263944
     21          6           0        2.138916    2.145552    0.177828
     22          6           0        3.103023    1.788385    1.126220
     23          6           0        3.762825    0.558868    1.039619
     24          6           0        3.432342   -0.293069   -0.013127
     25          6           0        2.476413    0.034204   -0.973535
     26          6           0        1.829233    1.268868   -0.867181
     27          1           0        1.631268    3.102670    0.252774
     28          1           0        3.345555    2.467238    1.938858
     29          1           0        4.513297    0.257140    1.760154
     30          1           0        2.256027   -0.663488   -1.772329
     31          1           0        1.080924    1.543606   -1.605148
     32          7           0        4.124163   -1.597427   -0.115264
     33          8           0        3.814955   -2.330275   -1.052260
     34          8           0        4.962522   -1.862238    0.743611
 ---------------------------------------------------------------------

 SCF Done:  E(RHF) =  -669.534448361     A.U. after   15 cycles
 E2 =    -0.2092304204D+01 EUMP2 =    -0.67162675256502D+03

 The electronic state is 1-A.
 Alpha  occ. eigenvalues --  -20.60767 -20.60762 -15.85819 -11.31191 -11.27747
 Alpha  occ. eigenvalues --  -11.27730 -11.27481 -11.26777 -11.26706 -11.22267
 Alpha  occ. eigenvalues --  -11.22036 -11.21899 -11.21888 -11.21732 -11.21284
 Alpha  occ. eigenvalues --   -1.59842  -1.39395  -1.19358  -1.08911  -1.08755
 Alpha  occ. eigenvalues --   -1.04761  -1.04049  -0.96537  -0.95590  -0.87577
 Alpha  occ. eigenvalues --   -0.86147  -0.82417  -0.80123  -0.78678  -0.77464
 Alpha  occ. eigenvalues --   -0.72039  -0.71164  -0.70485  -0.65545  -0.65021
 Alpha  occ. eigenvalues --   -0.64802  -0.62165  -0.61424  -0.59889  -0.58110
 Alpha  occ. eigenvalues --   -0.55831  -0.55254  -0.53459  -0.53082  -0.52872
 Alpha  occ. eigenvalues --   -0.52677  -0.50449  -0.48794  -0.48792  -0.48427
 Alpha  occ. eigenvalues --   -0.47130  -0.46231  -0.46131  -0.44799  -0.44301
 Alpha  occ. eigenvalues --   -0.37310  -0.36338
 Alpha virt. eigenvalues --    0.05034   0.11195   0.16482   0.20687   0.22618
 Alpha virt. eigenvalues --    0.24074   0.25967   0.26577   0.26820   0.27428
 Alpha virt. eigenvalues --    0.28775   0.29932   0.31088   0.31602   0.32431

 Mulliken charges:
               1
     1  C   -0.298929
     2  C   -0.300018
     3  C   -0.476061
     4  H    0.151578
     5  H    0.150181
     6  H    0.152398
     7  H    0.151893
     8  H    0.155508
     9  H    0.156444
    10  H    0.161133
    11  C   -0.299062
    12  C   -0.298447
    13  C   -0.483258
    14  H    0.149818
    15  H    0.150076
    16  H    0.155053
    17  H    0.153777
    18  H    0.157667
    19  H    0.152174
    20  H    0.156355
    21  C   -0.173363
    22  C   -0.218814
    23  C   -0.171290
    24  C    0.158760
    25  C   -0.173477
    26  C   -0.217604
    27  H    0.226214
    28  H    0.223500
    29  H    0.275570
    30  H    0.275406
    31  H    0.229561
    32  N    0.488081
    33  O   -0.460448
    34  O   -0.460376
 Sum of Mulliken charges =  -0.00000

 Dipole moment (field-independent basis, Debye):
    X=             -2.5514    Y=              4.5406    Z=              0.3991  Tot=              5.2236
 Quadrupole moment (field-independent basis, Debye-Ang):
   XX=           -110.5099   YY=            -98.1752   ZZ=            -91.4285
   XY=             16.6629   XZ=              3.7560   YZ=              1.7776

 Normal termination of Gaussian 16 at Thu May  6 10:39:29 2021.
