 Gaussian 16, Revision A.03,
 Gaussian 16:  EM64L-G16RevA.03 25-Dec-2016

 -------------
 #p 6-31g* mp2
 -------------

 ------------------------------------------------------
 Input file generated by CHIRIPA (05-May-2021 14:53:13)
 ------------------------------------------------------
 Symbolic Z-matrix:
 Charge =  0 Multiplicity = 1

                         Standard orientation:
 ---------------------------------------------------------------------
 Center     Atomic      Atomic             Coordinates (Angstroms)
 Number     Number       Type             X           Y           Z
 ---------------------------------------------------------------------
      1          6           0       -3.791131    0.518497    0.630294
      2          6           0       -3.006619    1.818185    0.447714
      3          6           0       -1.968622    2.041663    1.547902
      4          1           0       -4.289606    0.532984    1.609200
      5          1           0       -3.088498   -0.326087    0.649796
      6          1           0       -3.710638    2.659940    0.427175
      7          1           0       -2.510108    1.800685   -0.530952
      8          1           0       -1.243817    1.221341    1.566080
      9          1           0       -2.451168    2.085479    2.529651
     10          1           0       -1.419409    2.976379    1.397804
     11          6           0       -4.832645    0.281037   -0.461763
     12          6           0       -5.617157   -1.018652   -0.279182
     13          6           0       -6.655154   -1.242129   -1.379371
     14          1           0       -5.535278    1.125621   -0.481264
     15          1           0       -4.334170    0.266550   -1.440669
     16          1           0       -6.113667   -1.001151    0.699484
     17          1           0       -4.913138   -1.860407   -0.258644
     18          1           0       -6.172608   -1.285945   -2.361120
     19          1           0       -7.379959   -0.421807   -1.397548
     20          1           0       -7.204367   -2.176846   -1.229273
     21          6           0        1.414117   -1.629073    0.835184
     22          6           0        2.714888   -2.124760    0.972323
     23          6           0        3.805389   -1.403698    0.476920
     24          6           0        3.557621   -0.185019   -0.152940
     25          6           0        2.273347    0.335379   -0.304985
     26          6           0        1.197879   -0.402748    0.198090
     27          1           0        0.572828   -2.195839    1.223005
     28          1           0        2.885811   -3.076850    1.466646
     29          1           0        4.822743   -1.764032    0.569491
     30          1           0        2.134466    1.287529   -0.802519
     31          1           0        0.188766   -0.015336    0.090161
     32          7           0        4.704128    0.587370   -0.681462
     33          8           0        4.459247    1.658444   -1.232343
     34          8           0        5.825933    0.107069   -0.534830
 ---------------------------------------------------------------------

 SCF Done:  E(RHF) =  -669.535403973     A.U. after   15 cycles
 E2 =    -0.2091137302D+01 EUMP2 =    -0.67162654127490D+03

 The electronic state is 1-A.
 Alpha  occ. eigenvalues --  -20.60756 -20.60751 -15.85810 -11.31181 -11.27756
 Alpha  occ. eigenvalues --  -11.27750 -11.27504 -11.26769 -11.26746 -11.22464
 Alpha  occ. eigenvalues --  -11.22248 -11.22208 -11.22048 -11.21974 -11.21561
 Alpha  occ. eigenvalues --   -1.59832  -1.39385  -1.19357  -1.09192  -1.08752
 Alpha  occ. eigenvalues --   -1.04763  -1.04264  -0.96710  -0.95585  -0.87723
 Alpha  occ. eigenvalues --   -0.86162  -0.82417  -0.80324  -0.78990  -0.77464
 Alpha  occ. eigenvalues --   -0.72029  -0.71155  -0.70467  -0.65870  -0.65010
 Alpha  occ. eigenvalues --   -0.64775  -0.62199  -0.61581  -0.60073  -0.58308
 Alpha  occ. eigenvalues --   -0.56036  -0.55253  -0.53382  -0.53181  -0.53067
 Alpha  occ. eigenvalues --   -0.52814  -0.50642  -0.48797  -0.48783  -0.48620
 Alpha  occ. eigenvalues --   -0.47371  -0.46526  -0.46457  -0.44789  -0.44513
 Alpha  occ. eigenvalues --   -0.37338  -0.36356
 Alpha virt. eigenvalues --    0.05075   0.11203   0.16532   0.18914   0.22673
 Alpha virt. eigenvalues --    0.23624   0.25539   0.26578   0.27126   0.28292
 Alpha virt. eigenvalues --    0.28808   0.30199   0.30987   0.31329   0.31910

 Mulliken charges:
               1
     1  C   -0.297042
     2  C   -0.302228
     3  C   -0.479352
     4  H    0.152679
     5  H    0.140720
     6  H    0.157337
     7  H    0.149567
     8  H    0.147498
     9  H    0.159981
    10  H    0.165134
    11  C   -0.298751
    12  C   -0.299770
    13  C   -0.476130
    14  H    0.152358
    15  H    0.150111
    16  H    0.152986
    17  H    0.149977
    18  H    0.155978
    19  H    0.156671
    20  H    0.161576
    21  C   -0.171915
    22  C   -0.218486
    23  C   -0.170855
    24  C    0.158634
    25  C   -0.171829
    26  C   -0.222368
    27  H    0.225483
    28  H    0.223439
    29  H    0.275655
    30  H    0.275886
    31  H    0.229811
    32  N    0.488087
    33  O   -0.460368
    34  O   -0.460473
 Sum of Mulliken charges =  -0.00000

 Dipole moment (field-independent basis, Debye):
    X=             -4.2145    Y=             -2.6564    Z=              1.8759  Tot=              5.3233
 Quadrupole moment (field-independent basis, Debye-Ang):
   XX=           -121.1612   YY=            -91.1537   ZZ=            -95.7252
   XY=            -12.4117   XZ=              7.4589   YZ=             -1.1297

 Normal termination of Gaussian 16 at Thu May  6 00:58:52 2021.
