 Gaussian 16, Revision A.03,
 Gaussian 16:  EM64L-G16RevA.03 25-Dec-2016

 -------------
 #p 6-31g* mp2
 -------------

 ------------------------------------------------------
 Input file generated by CHIRIPA (05-May-2021 14:55:21)
 ------------------------------------------------------
 Symbolic Z-matrix:
 Charge =  0 Multiplicity = 1

                         Standard orientation:
 ---------------------------------------------------------------------
 Center     Atomic      Atomic             Coordinates (Angstroms)
 Number     Number       Type             X           Y           Z
 ---------------------------------------------------------------------
      1          6           0        1.197272    1.351597    1.463155
      2          6           0        1.075456   -0.038722    1.556394
      3          6           0        1.990847   -0.876440    0.912316
      4          6           0        3.020501   -0.287324    0.180165
      5          6           0        3.168522    1.094303    0.068412
      6          6           0        2.241575    1.912683    0.720771
      7          1           0        0.481686    1.994845    1.966707
      8          1           0        0.265437   -0.477252    2.132245
      9          1           0        1.920058   -1.955940    0.967859
     10          1           0        3.986525    1.502124   -0.512940
     11          1           0        2.338644    2.992092    0.646616
     12          7           0        3.995701   -1.163942   -0.506075
     13          8           0        4.893933   -0.620170   -1.144926
     14          8           0        3.843366   -2.378208   -0.392106
     15          6           0       -3.324416    0.868627   -0.362305
     16          6           0       -1.956532    0.886630   -1.045354
     17          6           0       -1.296739    2.265502   -1.011028
     18          1           0       -3.980332    1.602784   -0.849885
     19          1           0       -3.210106    1.195580    0.680495
     20          1           0       -2.073177    0.558415   -2.086163
     21          1           0       -1.303856    0.152209   -0.556215
     22          1           0       -1.151388    2.597409    0.022079
     23          1           0       -1.925079    3.005923   -1.516562
     24          1           0       -0.320028    2.255605   -1.504786
     25          6           0       -3.996611   -0.502940   -0.388454
     26          6           0       -5.364495   -0.520943    0.294593
     27          6           0       -6.024289   -1.899815    0.260269
     28          1           0       -4.110922   -0.829893   -1.431253
     29          1           0       -3.340695   -1.237097    0.099125
     30          1           0       -6.017171    0.213478   -0.194545
     31          1           0       -5.247851   -0.192729    1.335403
     32          1           0       -5.395948   -2.640237    0.765803
     33          1           0       -6.169639   -2.231723   -0.772838
     34          1           0       -7.001001   -1.889919    0.754027
 ---------------------------------------------------------------------

 SCF Done:  E(RHF) =  -669.534893992     A.U. after   15 cycles
 E2 =    -0.2093027661D+01 EUMP2 =    -0.67162792165365D+03

 The electronic state is 1-A.
 Alpha  occ. eigenvalues --  -20.60793 -20.60788 -15.85849 -11.31227 -11.27828
 Alpha  occ. eigenvalues --  -11.27811 -11.27566 -11.26840 -11.26805 -11.22046
 Alpha  occ. eigenvalues --  -11.22038 -11.21932 -11.21848 -11.21640 -11.21432
 Alpha  occ. eigenvalues --   -1.59869  -1.39422  -1.19422  -1.08940  -1.08797
 Alpha  occ. eigenvalues --   -1.04829  -1.03996  -0.96469  -0.95635  -0.87483
 Alpha  occ. eigenvalues --   -0.86221  -0.82474  -0.80058  -0.78733  -0.77512
 Alpha  occ. eigenvalues --   -0.72068  -0.71193  -0.70550  -0.65581  -0.65074
 Alpha  occ. eigenvalues --   -0.64821  -0.62173  -0.61426  -0.59824  -0.58066
 Alpha  occ. eigenvalues --   -0.55899  -0.55268  -0.53296  -0.52923  -0.52916
 Alpha  occ. eigenvalues --   -0.52862  -0.50412  -0.48827  -0.48820  -0.48375
 Alpha  occ. eigenvalues --   -0.47102  -0.46273  -0.46213  -0.44825  -0.44261
 Alpha  occ. eigenvalues --   -0.37329  -0.36405
 Alpha virt. eigenvalues --    0.05010   0.11155   0.16409   0.20168   0.22724
 Alpha virt. eigenvalues --    0.24039   0.25858   0.25984   0.27197   0.27825
 Alpha virt. eigenvalues --    0.28609   0.30413   0.31117   0.31547   0.32243

 Mulliken charges:
               1
     1  C   -0.164976
     2  C   -0.219734
     3  C   -0.171231
     4  C    0.158533
     5  C   -0.171563
     6  C   -0.217976
     7  H    0.225969
     8  H    0.223537
     9  H    0.275936
    10  H    0.275906
    11  H    0.224270
    12  N    0.488138
    13  O   -0.460358
    14  O   -0.460364
    15  C   -0.297715
    16  C   -0.303780
    17  C   -0.472404
    18  H    0.151451
    19  H    0.142898
    20  H    0.155421
    21  H    0.154126
    22  H    0.142073
    23  H    0.155658
    24  H    0.164273
    25  C   -0.297807
    26  C   -0.299711
    27  C   -0.475837
    28  H    0.152455
    29  H    0.146774
    30  H    0.153171
    31  H    0.150005
    32  H    0.154779
    33  H    0.156820
    34  H    0.161262
 Sum of Mulliken charges =  -0.00000

 Dipole moment (field-independent basis, Debye):
    X=             -3.4259    Y=              3.0624    Z=              2.3617  Tot=              5.1665
 Quadrupole moment (field-independent basis, Debye-Ang):
   XX=           -114.9270   YY=            -94.4477   ZZ=            -93.0954
   XY=             12.2118   XZ=              6.4315   YZ=             -1.8988

 Normal termination of Gaussian 16 at Thu May  6 04:36:33 2021.
