 Gaussian 16, Revision A.03,
 Gaussian 16:  EM64L-G16RevA.03 25-Dec-2016

 -------------
 #p 6-31g* mp2
 -------------

 ------------------------------------------------------
 Input file generated by CHIRIPA (05-May-2021 14:51:09)
 ------------------------------------------------------
 Symbolic Z-matrix:
 Charge =  0 Multiplicity = 1

                         Standard orientation:
 ---------------------------------------------------------------------
 Center     Atomic      Atomic             Coordinates (Angstroms)
 Number     Number       Type             X           Y           Z
 ---------------------------------------------------------------------
      1          6           0        2.231600   -0.330964   -0.452044
      2          6           0        3.140966   -1.290001   -1.220996
      3          6           0        2.478505   -2.640350   -1.495765
      4          1           0        1.937894   -0.797065    0.498446
      5          1           0        1.305968   -0.176756   -1.023726
      6          1           0        4.065195   -1.441269   -0.648690
      7          1           0        3.432696   -0.821484   -2.169680
      8          1           0        1.566495   -2.508829   -2.086985
      9          1           0        2.202588   -3.132135   -0.557352
     10          1           0        3.146103   -3.310391   -2.046417
     11          6           0        2.879815    1.023242   -0.169780
     12          6           0        1.970449    1.982278    0.599173
     13          6           0        2.632910    3.332627    0.873941
     14          1           0        3.805447    0.869033    0.401902
     15          1           0        3.173521    1.489343   -1.120270
     16          1           0        1.678719    1.513762    1.547857
     17          1           0        1.046220    2.133547    0.026866
     18          1           0        2.908827    3.824412   -0.064472
     19          1           0        3.544920    3.201106    1.465161
     20          1           0        1.965312    4.002669    1.424593
     21          6           0       -2.677872    0.114836   -0.285754
     22          6           0       -4.146461    0.502399   -0.461887
     23          6           0       -4.374858    1.424844   -1.659687
     24          1           0       -2.076210    1.026506   -0.168252
     25          1           0       -2.323441   -0.377662   -1.201844
     26          1           0       -4.498404    0.992781    0.454780
     27          1           0       -4.744722   -0.410307   -0.578791
     28          1           0       -4.050513    0.940405   -2.586359
     29          1           0       -3.802795    2.351465   -1.546914
     30          1           0       -5.431446    1.689364   -1.766974
     31          6           0       -2.433544   -0.807114    0.907578
     32          6           0       -0.964954   -1.194677    1.083711
     33          6           0       -0.736557   -2.117121    2.281511
     34          1           0       -2.787974   -0.314615    1.823668
     35          1           0       -3.035205   -1.718783    0.790076
     36          1           0       -0.366694   -0.281970    1.200615
     37          1           0       -0.613011   -1.685059    0.167044
     38          1           0       -1.308620   -3.043743    2.168738
     39          1           0       -1.060902   -1.632682    3.208183
     40          1           0        0.320031   -2.381642    2.388798
 ---------------------------------------------------------------------

 SCF Done:  E(RHF) =  -470.731955693     A.U. after   11 cycles
 E2 =    -0.1584975179D+01 EUMP2 =    -0.47231693087229D+03

 The electronic state is 1-A.
 Alpha  occ. eigenvalues --  -11.21651 -11.21592 -11.21570 -11.21418 -11.21373
 Alpha  occ. eigenvalues --  -11.21373 -11.21285 -11.21250 -11.21107 -11.21087
 Alpha  occ. eigenvalues --  -11.21074 -11.21051  -1.08473  -1.08338  -1.03553
 Alpha  occ. eigenvalues --   -1.03481  -0.96000  -0.95941  -0.87012  -0.86961
 Alpha  occ. eigenvalues --   -0.79710  -0.79554  -0.78541  -0.77821  -0.65087
 Alpha  occ. eigenvalues --   -0.64990  -0.60950  -0.60889  -0.59420  -0.59276
 Alpha  occ. eigenvalues --   -0.57699  -0.57474  -0.55278  -0.55230  -0.52713
 Alpha  occ. eigenvalues --   -0.52639  -0.52427  -0.52365  -0.49927  -0.49894
 Alpha  occ. eigenvalues --   -0.48097  -0.47863  -0.46653  -0.46592  -0.46280
 Alpha  occ. eigenvalues --   -0.45752  -0.45537  -0.44996  -0.43782  -0.43721
 Alpha virt. eigenvalues --    0.20941   0.22404   0.23370   0.23876   0.24834
 Alpha virt. eigenvalues --    0.26013   0.26825   0.27751   0.28835   0.29824
 Alpha virt. eigenvalues --    0.30227   0.31128   0.31638   0.31838   0.32331

 Mulliken charges:
               1
     1  C   -0.302557
     2  C   -0.299280
     3  C   -0.476616
     4  H    0.155955
     5  H    0.151698
     6  H    0.151388
     7  H    0.151497
     8  H    0.154693
     9  H    0.155571
    10  H    0.160378
    11  C   -0.297717
    12  C   -0.302846
    13  C   -0.475504
    14  H    0.149086
    15  H    0.149384
    16  H    0.152584
    17  H    0.152788
    18  H    0.155483
    19  H    0.155417
    20  H    0.160060
    21  C   -0.299376
    22  C   -0.299484
    23  C   -0.475690
    24  H    0.150069
    25  H    0.148709
    26  H    0.152032
    27  H    0.152068
    28  H    0.154961
    29  H    0.154966
    30  H    0.160298
    31  C   -0.297799
    32  C   -0.306720
    33  C   -0.477728
    34  H    0.148834
    35  H    0.148975
    36  H    0.159757
    37  H    0.155379
    38  H    0.155376
    39  H    0.154890
    40  H    0.159020
 Sum of Mulliken charges =  -0.00000

 Dipole moment (field-independent basis, Debye):
    X=              0.0230    Y=              0.0117    Z=             -0.0059  Tot=              0.0265
 Quadrupole moment (field-independent basis, Debye-Ang):
   XX=            -84.9898   YY=            -85.5560   ZZ=            -84.4809
   XY=             -0.1423   XZ=              0.0910   YZ=              0.4855

 Normal termination of Gaussian 16 at Wed May  5 16:38:53 2021.
