 Gaussian 16, Revision A.03,
 Gaussian 16:  EM64L-G16RevA.03 25-Dec-2016

 -------------
 #p 6-31g* mp2
 -------------

 ------------------------------------------------------
 Input file generated by CHIRIPA (05-May-2021 14:53:15)
 ------------------------------------------------------
 Symbolic Z-matrix:
 Charge =  0 Multiplicity = 1

                         Standard orientation:
 ---------------------------------------------------------------------
 Center     Atomic      Atomic             Coordinates (Angstroms)
 Number     Number       Type             X           Y           Z
 ---------------------------------------------------------------------
      1          6           0       -5.277597    0.573550    0.024837
      2          6           0       -6.740494    0.309789    0.383094
      3          6           0       -7.604340    1.568991    0.305797
      4          1           0       -4.873435    1.339278    0.701046
      5          1           0       -5.225648    0.993279   -0.989324
      6          1           0       -6.789563   -0.110608    1.395751
      7          1           0       -7.141165   -0.455538   -0.293924
      8          1           0       -7.585152    1.987846   -0.705536
      9          1           0       -7.231552    2.334736    0.993739
     10          1           0       -8.646267    1.357637    0.565756
     11          6           0       -4.401349   -0.675704    0.097523
     12          6           0       -2.938452   -0.411944   -0.260734
     13          6           0       -2.074605   -1.671145   -0.183437
     14          1           0       -4.453297   -1.095434    1.111684
     15          1           0       -4.805511   -1.441432   -0.578686
     16          1           0       -2.537781    0.353384    0.416284
     17          1           0       -2.889383    0.008454   -1.273391
     18          1           0       -2.447393   -2.436890   -0.871379
     19          1           0       -2.093794   -2.090000    0.827896
     20          1           0       -1.032679   -1.459791   -0.443396
     21          6           0        5.976442    1.061515    0.660410
     22          6           0        5.418320    1.391418   -0.579020
     23          6           0        4.202275    0.831436   -0.981762
     24          6           0        3.568575   -0.058862   -0.116263
     25          6           0        4.099214   -0.407393    1.124799
     26          6           0        5.316272    0.164744    1.506871
     27          1           0        6.921489    1.501245    0.965241
     28          1           0        5.928793    2.087568   -1.238441
     29          1           0        3.747757    1.069326   -1.935825
     30          1           0        3.566917   -1.104448    1.760560
     31          1           0        5.747364   -0.093297    2.470002
     32          7           0        2.280666   -0.658124   -0.531687
     33          8           0        1.742161   -1.439861    0.249040
     34          8           0        1.834097   -0.334741   -1.630157
 ---------------------------------------------------------------------

 SCF Done:  E(RHF) =  -669.536745423     A.U. after   15 cycles
 E2 =    -0.2091171017D+01 EUMP2 =    -0.67162791643985D+03

 The electronic state is 1-A.
 Alpha  occ. eigenvalues --  -20.61067 -20.61055 -15.86058 -11.31352 -11.27905
 Alpha  occ. eigenvalues --  -11.27901 -11.27637 -11.26903 -11.26893 -11.20967
 Alpha  occ. eigenvalues --  -11.20586 -11.20558 -11.20350 -11.20230 -11.19131
 Alpha  occ. eigenvalues --   -1.60101  -1.39657  -1.19512  -1.08924  -1.07482
 Alpha  occ. eigenvalues --   -1.04901  -1.02465  -0.95771  -0.94884  -0.86304
 Alpha  occ. eigenvalues --   -0.85900  -0.82603  -0.78580  -0.77664  -0.77248
 Alpha  occ. eigenvalues --   -0.72264  -0.71406  -0.70620  -0.65166  -0.64904
 Alpha  occ. eigenvalues --   -0.64131  -0.62248  -0.59884  -0.58328  -0.56471
 Alpha  occ. eigenvalues --   -0.55405  -0.54207  -0.53236  -0.52992  -0.51552
 Alpha  occ. eigenvalues --   -0.51332  -0.49034  -0.48982  -0.48863  -0.46841
 Alpha  occ. eigenvalues --   -0.45661  -0.45075  -0.44784  -0.44706  -0.42649
 Alpha  occ. eigenvalues --   -0.37489  -0.36500
 Alpha virt. eigenvalues --    0.04858   0.11156   0.16367   0.21297   0.23724
 Alpha virt. eigenvalues --    0.25467   0.27218   0.27525   0.28178   0.28376
 Alpha virt. eigenvalues --    0.29196   0.30856   0.32385   0.32414   0.32606

 Mulliken charges:
               1
     1  C   -0.297200
     2  C   -0.298812
     3  C   -0.475111
     4  H    0.147576
     5  H    0.148445
     6  H    0.150696
     7  H    0.151189
     8  H    0.154448
     9  H    0.153944
    10  H    0.158234
    11  C   -0.296905
    12  C   -0.298677
    13  C   -0.485870
    14  H    0.146914
    15  H    0.147800
    16  H    0.147670
    17  H    0.150808
    18  H    0.147471
    19  H    0.148134
    20  H    0.191916
    21  C   -0.170428
    22  C   -0.218622
    23  C   -0.170668
    24  C    0.158943
    25  C   -0.170671
    26  C   -0.218598
    27  H    0.226207
    28  H    0.224034
    29  H    0.276021
    30  H    0.276126
    31  H    0.224048
    32  N    0.488221
    33  O   -0.457921
    34  O   -0.459363
 Sum of Mulliken charges =  -0.00000

 Dipole moment (field-independent basis, Debye):
    X=              5.0164    Y=              2.1015    Z=              1.4229  Tot=              5.6218
 Quadrupole moment (field-independent basis, Debye-Ang):
   XX=            -64.8481   YY=            -95.1638   ZZ=            -90.6238
   XY=              8.2878   XZ=              4.9718   YZ=             -2.6794

 Normal termination of Gaussian 16 at Wed May  5 15:39:24 2021.
