 Gaussian 16, Revision A.03,
 Gaussian 16:  EM64L-G16RevA.03 25-Dec-2016

 -------------
 #p 6-31g* mp2
 -------------

 ------------------------------------------------------
 Input file generated by CHIRIPA (05-May-2021 14:53:15)
 ------------------------------------------------------
 Symbolic Z-matrix:
 Charge =  0 Multiplicity = 1

                         Standard orientation:
 ---------------------------------------------------------------------
 Center     Atomic      Atomic             Coordinates (Angstroms)
 Number     Number       Type             X           Y           Z
 ---------------------------------------------------------------------
      1          6           0        3.371890    1.015813    0.098125
      2          6           0        2.048465    1.512342   -0.484961
      3          6           0        1.698866    2.930798   -0.033788
      4          1           0        3.317990    1.050457    1.194866
      5          1           0        4.175871    1.704136   -0.197206
      6          1           0        1.247444    0.822528   -0.189770
      7          1           0        2.105453    1.476331   -1.580439
      8          1           0        2.477615    3.635966   -0.341831
      9          1           0        1.614730    2.978448    1.056740
     10          1           0        0.749105    3.265759   -0.462291
     11          6           0        3.735062   -0.400719   -0.343769
     12          6           0        5.058487   -0.897248    0.239317
     13          6           0        5.408086   -2.315704   -0.211856
     14          1           0        2.931081   -1.089042   -0.048438
     15          1           0        3.788962   -0.435363   -1.440510
     16          1           0        5.001499   -0.861237    1.334795
     17          1           0        5.859508   -0.207434   -0.055874
     18          1           0        5.492222   -2.363354   -1.302384
     19          1           0        4.629337   -3.020872    0.096187
     20          1           0        6.357847   -2.650665    0.216647
     21          6           0       -2.380661    2.249358    0.202032
     22          6           0       -1.471009    1.370034    0.798559
     23          6           0       -1.680046   -0.011302    0.745986
     24          6           0       -2.814388   -0.480959    0.085700
     25          6           0       -3.738998    0.369645   -0.518334
     26          6           0       -3.509761    1.747243   -0.453354
     27          1           0       -2.210429    3.320962    0.247691
     28          1           0       -0.593266    1.757152    1.308218
     29          1           0       -0.991974   -0.714536    1.199240
     30          1           0       -4.604824   -0.046087   -1.019264
     31          1           0       -4.217901    2.427781   -0.917523
     32          7           0       -3.046378   -1.941339    0.023475
     33          8           0       -4.053463   -2.329920   -0.564251
     34          8           0       -2.216735   -2.669751    0.563610
 ---------------------------------------------------------------------

 SCF Done:  E(RHF) =  -669.534431193     A.U. after   15 cycles
 E2 =    -0.2093317657D+01 EUMP2 =    -0.67162774885016D+03

 The electronic state is 1-A.
 Alpha  occ. eigenvalues --  -20.60777 -20.60772 -15.85829 -11.31202 -11.27752
 Alpha  occ. eigenvalues --  -11.27745 -11.27478 -11.26785 -11.26707 -11.22262
 Alpha  occ. eigenvalues --  -11.22079 -11.21902 -11.21816 -11.21681 -11.21153
 Alpha  occ. eigenvalues --   -1.59851  -1.39405  -1.19368  -1.08907  -1.08748
 Alpha  occ. eigenvalues --   -1.04787  -1.04013  -0.96496  -0.95594  -0.87516
 Alpha  occ. eigenvalues --   -0.86154  -0.82435  -0.80090  -0.78648  -0.77481
 Alpha  occ. eigenvalues --   -0.72048  -0.71173  -0.70473  -0.65654  -0.65016
 Alpha  occ. eigenvalues --   -0.64750  -0.62283  -0.61258  -0.59869  -0.58064
 Alpha  occ. eigenvalues --   -0.55830  -0.55231  -0.53264  -0.53048  -0.52880
 Alpha  occ. eigenvalues --   -0.52772  -0.50431  -0.48804  -0.48800  -0.48393
 Alpha  occ. eigenvalues --   -0.47138  -0.46196  -0.46101  -0.44809  -0.44257
 Alpha  occ. eigenvalues --   -0.37331  -0.36314
 Alpha virt. eigenvalues --    0.05008   0.11218   0.16392   0.19904   0.22915
 Alpha virt. eigenvalues --    0.24083   0.25539   0.26290   0.26978   0.27643
 Alpha virt. eigenvalues --    0.29308   0.29991   0.31044   0.31588   0.32644

 Mulliken charges:
               1
     1  C   -0.298295
     2  C   -0.303690
     3  C   -0.483132
     4  H    0.147144
     5  H    0.151067
     6  H    0.151956
     7  H    0.157043
     8  H    0.162185
     9  H    0.148278
    10  H    0.157665
    11  C   -0.299020
    12  C   -0.299971
    13  C   -0.476384
    14  H    0.151337
    15  H    0.151625
    16  H    0.151713
    17  H    0.151836
    18  H    0.155915
    19  H    0.158029
    20  H    0.160921
    21  C   -0.175481
    22  C   -0.215588
    23  C   -0.173357
    24  C    0.158632
    25  C   -0.171422
    26  C   -0.218312
    27  H    0.226126
    28  H    0.231904
    29  H    0.274944
    30  H    0.275584
    31  H    0.223514
    32  N    0.488117
    33  O   -0.460293
    34  O   -0.460590
 Sum of Mulliken charges =  -0.00000

 Dipole moment (field-independent basis, Debye):
    X=              0.9080    Y=              5.1014    Z=              0.1419  Tot=              5.1835
 Quadrupole moment (field-independent basis, Debye-Ang):
   XX=            -95.4935   YY=           -101.1321   ZZ=            -93.4250
   XY=            -15.3553   XZ=              1.4746   YZ=             -0.7963

 Normal termination of Gaussian 16 at Wed May  5 21:53:48 2021.
