 Gaussian 16, Revision A.03,
 Gaussian 16:  EM64L-G16RevA.03 25-Dec-2016

 -------------
 #p 6-31g* mp2
 -------------

 ------------------------------------------------------
 Input file generated by CHIRIPA (05-May-2021 14:53:13)
 ------------------------------------------------------
 Symbolic Z-matrix:
 Charge =  0 Multiplicity = 1

                         Standard orientation:
 ---------------------------------------------------------------------
 Center     Atomic      Atomic             Coordinates (Angstroms)
 Number     Number       Type             X           Y           Z
 ---------------------------------------------------------------------
      1          6           0        3.919615    0.233119    0.133618
      2          6           0        4.937735    0.435750   -0.989038
      3          6           0        5.687092    1.763620   -0.874930
      4          1           0        3.200611    1.063691    0.122241
      5          1           0        4.437275    0.281064    1.101669
      6          1           0        4.418526    0.386058   -1.954734
      7          1           0        5.654285   -0.395501   -0.975109
      8          1           0        6.230399    1.819059    0.073935
      9          1           0        4.987618    2.605058   -0.911257
     10          1           0        6.409773    1.887880   -1.687427
     11          6           0        3.162435   -1.089884    0.033261
     12          6           0        2.144315   -1.292515    1.155917
     13          6           0        1.394958   -2.620385    1.041809
     14          1           0        2.644774   -1.137829   -0.934790
     15          1           0        3.881438   -1.920455    0.044638
     16          1           0        1.427765   -0.461264    1.141988
     17          1           0        2.663524   -1.242822    2.121613
     18          1           0        2.094431   -3.461823    1.078136
     19          1           0        0.851651   -2.675824    0.092944
     20          1           0        0.672277   -2.744644    1.854306
     21          6           0       -2.134504    2.634457    0.757976
     22          6           0       -3.394027    2.415779    0.190260
     23          6           0       -3.754909    1.145658   -0.269205
     24          6           0       -2.827517    0.112339   -0.144767
     25          6           0       -1.565015    0.298605    0.416198
     26          6           0       -1.225620    1.577036    0.868937
     27          1           0       -1.862508    3.624344    1.112287
     28          1           0       -4.101899    3.235116    0.102801
     29          1           0       -4.723277    0.948476   -0.712828
     30          1           0       -0.880665   -0.537852    0.489849
     31          1           0       -0.246754    1.743941    1.309402
     32          7           0       -3.198193   -1.236679   -0.627623
     33          8           0       -2.363183   -2.130402   -0.506569
     34          8           0       -4.316720   -1.374772   -1.117995
 ---------------------------------------------------------------------

 SCF Done:  E(RHF) =  -669.535356651     A.U. after   15 cycles
 E2 =    -0.2092407465D+01 EUMP2 =    -0.67162776411524D+03

 The electronic state is 1-A.
 Alpha  occ. eigenvalues --  -20.60774 -20.60769 -15.85821 -11.31157 -11.27739
 Alpha  occ. eigenvalues --  -11.27685 -11.27484 -11.26752 -11.26731 -11.22137
 Alpha  occ. eigenvalues --  -11.21915 -11.21808 -11.21717 -11.21381 -11.21100
 Alpha  occ. eigenvalues --   -1.59845  -1.39399  -1.19336  -1.08816  -1.08739
 Alpha  occ. eigenvalues --   -1.04744  -1.03867  -0.96269  -0.95573  -0.87267
 Alpha  occ. eigenvalues --   -0.86137  -0.82416  -0.79932  -0.78644  -0.77461
 Alpha  occ. eigenvalues --   -0.72043  -0.71166  -0.70465  -0.65492  -0.64988
 Alpha  occ. eigenvalues --   -0.64744  -0.62247  -0.61113  -0.59630  -0.57888
 Alpha  occ. eigenvalues --   -0.55574  -0.55200  -0.53070  -0.52937  -0.52816
 Alpha  occ. eigenvalues --   -0.52666  -0.50196  -0.48797  -0.48793  -0.48232
 Alpha  occ. eigenvalues --   -0.46981  -0.46185  -0.46081  -0.44810  -0.44110
 Alpha  occ. eigenvalues --   -0.37323  -0.36341
 Alpha virt. eigenvalues --    0.05066   0.11304   0.16555   0.19362   0.22943
 Alpha virt. eigenvalues --    0.23662   0.24642   0.26543   0.27179   0.28352
 Alpha virt. eigenvalues --    0.29530   0.31036   0.31422   0.31758   0.32412

 Mulliken charges:
               1
     1  C   -0.297519
     2  C   -0.300086
     3  C   -0.475769
     4  H    0.143439
     5  H    0.149835
     6  H    0.153640
     7  H    0.153889
     8  H    0.155266
     9  H    0.153497
    10  H    0.161874
    11  C   -0.298293
    12  C   -0.305163
    13  C   -0.484702
    14  H    0.152901
    15  H    0.153475
    16  H    0.137244
    17  H    0.154088
    18  H    0.159134
    19  H    0.170138
    20  H    0.162915
    21  C   -0.170264
    22  C   -0.219224
    23  C   -0.170020
    24  C    0.158182
    25  C   -0.180225
    26  C   -0.224288
    27  H    0.225597
    28  H    0.223388
    29  H    0.275452
    30  H    0.290190
    31  H    0.225419
    32  N    0.488200
    33  O   -0.462002
    34  O   -0.460209
 Sum of Mulliken charges =  -0.00000

 Dipole moment (field-independent basis, Debye):
    X=              1.3950    Y=              4.5829    Z=              1.6360  Tot=              5.0621
 Quadrupole moment (field-independent basis, Debye-Ang):
   XX=            -97.7593   YY=            -93.7871   ZZ=            -95.3793
   XY=            -16.4354   XZ=             -3.2963   YZ=             -1.2450

 Normal termination of Gaussian 16 at Thu May  6 08:54:55 2021.
