 Gaussian 16, Revision A.03,
 Gaussian 16:  EM64L-G16RevA.03 25-Dec-2016

 -------------
 #p 6-31g* mp2
 -------------

 ------------------------------------------------------
 Input file generated by CHIRIPA (05-May-2021 14:53:16)
 ------------------------------------------------------
 Symbolic Z-matrix:
 Charge =  0 Multiplicity = 1

                         Standard orientation:
 ---------------------------------------------------------------------
 Center     Atomic      Atomic             Coordinates (Angstroms)
 Number     Number       Type             X           Y           Z
 ---------------------------------------------------------------------
      1          6           0       -5.330958   -0.147928   -0.292323
      2          6           0       -6.580819    0.198502    0.517504
      3          6           0       -7.874714   -0.038605   -0.261860
      4          1           0       -5.320907    0.450905   -1.213324
      5          1           0       -5.384636   -1.200176   -0.604232
      6          1           0       -6.524142    1.249404    0.828967
      7          1           0       -6.587797   -0.401086    1.436776
      8          1           0       -7.958072   -1.088806   -0.559736
      9          1           0       -7.894056    0.571062   -1.170999
     10          1           0       -8.755680    0.215469    0.335808
     11          6           0       -4.029496    0.083835    0.473322
     12          6           0       -2.779636   -0.262595   -0.336505
     13          6           0       -1.485740   -0.025489    0.442859
     14          1           0       -3.975818    1.136083    0.785232
     15          1           0       -4.039547   -0.514998    1.394323
     16          1           0       -2.772658    0.336992   -1.255777
     17          1           0       -2.836312   -1.313497   -0.647968
     18          1           0       -1.466398   -0.635155    1.351998
     19          1           0       -1.402382    1.024712    0.740735
     20          1           0       -0.604775   -0.279562   -0.154809
     21          6           0        3.509531    2.543267   -0.124173
     22          6           0        4.668660    1.919584    0.349071
     23          6           0        4.761136    0.525013    0.383240
     24          6           0        3.670629   -0.218417   -0.065534
     25          6           0        2.502223    0.373584   -0.542662
     26          6           0        2.431911    1.769640   -0.567747
     27          1           0        3.446303    3.627180   -0.147187
     28          1           0        5.507113    2.517862    0.694188
     29          1           0        5.646550    0.016244    0.744647
     30          1           0        1.682831   -0.249469   -0.880036
     31          1           0        1.530465    2.251283   -0.935794
     32          7           0        3.756796   -1.695573   -0.034169
     33          8           0        2.782196   -2.328029   -0.435159
     34          8           0        4.797302   -2.192943    0.390810
 ---------------------------------------------------------------------

 SCF Done:  E(RHF) =  -669.535360833     A.U. after   15 cycles
 E2 =    -0.2091013175D+01 EUMP2 =    -0.67162637400817D+03

 The electronic state is 1-A.
 Alpha  occ. eigenvalues --  -20.60739 -20.60734 -15.85791 -11.31149 -11.27724
 Alpha  occ. eigenvalues --  -11.27710 -11.27468 -11.26743 -11.26727 -11.21880
 Alpha  occ. eigenvalues --  -11.21729 -11.21605 -11.21520 -11.21506 -11.21169
 Alpha  occ. eigenvalues --   -1.59813  -1.39367  -1.19326  -1.08722  -1.08631
 Alpha  occ. eigenvalues --   -1.04730  -1.03753  -0.96216  -0.95558  -0.87236
 Alpha  occ. eigenvalues --   -0.86128  -0.82390  -0.79814  -0.78431  -0.77438
 Alpha  occ. eigenvalues --   -0.72012  -0.71135  -0.70450  -0.65258  -0.64980
 Alpha  occ. eigenvalues --   -0.64743  -0.62131  -0.61142  -0.59577  -0.57819
 Alpha  occ. eigenvalues --   -0.55491  -0.55240  -0.53148  -0.52985  -0.52733
 Alpha  occ. eigenvalues --   -0.52557  -0.50142  -0.48769  -0.48766  -0.48130
 Alpha  occ. eigenvalues --   -0.46834  -0.45978  -0.45892  -0.44774  -0.44009
 Alpha  occ. eigenvalues --   -0.37308  -0.36318
 Alpha virt. eigenvalues --    0.05080   0.11301   0.16568   0.20411   0.22781
 Alpha virt. eigenvalues --    0.23894   0.26102   0.26447   0.27217   0.27844
 Alpha virt. eigenvalues --    0.28802   0.30228   0.31336   0.31546   0.31837

 Mulliken charges:
               1
     1  C   -0.298502
     2  C   -0.299799
     3  C   -0.475838
     4  H    0.148948
     5  H    0.151319
     6  H    0.151232
     7  H    0.152837
     8  H    0.156086
     9  H    0.154876
    10  H    0.160604
    11  C   -0.298868
    12  C   -0.299541
    13  C   -0.478463
    14  H    0.147971
    15  H    0.151740
    16  H    0.148937
    17  H    0.157157
    18  H    0.162660
    19  H    0.151099
    20  H    0.155371
    21  C   -0.170928
    22  C   -0.218582
    23  C   -0.170783
    24  C    0.159249
    25  C   -0.174565
    26  C   -0.219508
    27  H    0.225392
    28  H    0.223293
    29  H    0.275483
    30  H    0.280565
    31  H    0.224020
    32  N    0.487613
    33  O   -0.460543
    34  O   -0.460530
 Sum of Mulliken charges =  -0.00000

 Dipole moment (field-independent basis, Debye):
    X=             -0.3960    Y=              5.1577    Z=             -0.0661  Tot=              5.1733
 Quadrupole moment (field-independent basis, Debye-Ang):
   XX=            -93.5559   YY=            -96.7159   ZZ=            -94.8683
   XY=             19.8543   XZ=              1.1582   YZ=             -0.6199

 Normal termination of Gaussian 16 at Thu May  6 10:39:11 2021.
