 Gaussian 16, Revision A.03,
 Gaussian 16:  EM64L-G16RevA.03 25-Dec-2016

 -------------
 #p 6-31g* mp2
 -------------

 ------------------------------------------------------
 Input file generated by CHIRIPA (05-May-2021 14:51:09)
 ------------------------------------------------------
 Symbolic Z-matrix:
 Charge =  0 Multiplicity = 1

                         Standard orientation:
 ---------------------------------------------------------------------
 Center     Atomic      Atomic             Coordinates (Angstroms)
 Number     Number       Type             X           Y           Z
 ---------------------------------------------------------------------
      1          6           0       -3.037588    1.068750   -0.141222
      2          6           0       -1.714056    1.717145   -0.548447
      3          6           0       -1.593629    3.164869   -0.071596
      4          1           0       -3.868970    1.660627   -0.547954
      5          1           0       -3.134174    1.104675    0.952750
      6          1           0       -1.619360    1.678766   -1.641231
      7          1           0       -0.885725    1.123548   -0.140860
      8          1           0       -1.662281    3.217966    1.019765
      9          1           0       -2.400084    3.776339   -0.489131
     10          1           0       -0.639986    3.608997   -0.373546
     11          6           0       -3.172838   -0.378666   -0.610712
     12          6           0       -4.496370   -1.027061   -0.203487
     13          6           0       -4.616797   -2.474784   -0.680338
     14          1           0       -3.076253   -0.414591   -1.704684
     15          1           0       -2.341456   -0.970543   -0.203980
     16          1           0       -5.324701   -0.433464   -0.611074
     17          1           0       -4.591066   -0.988682    0.889297
     18          1           0       -3.810342   -3.086255   -0.262803
     19          1           0       -4.548145   -2.527882   -1.771699
     20          1           0       -5.570441   -2.918913   -0.378387
     21          6           0        3.404408    0.010136   -0.230467
     22          6           0        4.375034   -0.862813   -1.026602
     23          6           0        4.965289   -0.138299   -2.236757
     24          1           0        2.592970    0.342613   -0.892263
     25          1           0        3.927175    0.917225    0.103146
     26          1           0        3.850969   -1.768638   -1.357439
     27          1           0        5.184153   -1.193407   -0.362787
     28          1           0        5.512361    0.755996   -1.921242
     29          1           0        4.171602    0.177496   -2.921545
     30          1           0        5.656320   -0.780634   -2.791504
     31          6           0        2.806018   -0.700220    0.982402
     32          6           0        1.835392    0.172729    1.778536
     33          6           0        1.245137   -0.551784    2.988690
     34          1           0        2.283251   -1.607309    0.648788
     35          1           0        3.617456   -1.032697    1.644197
     36          1           0        1.026273    0.503323    1.114721
     37          1           0        2.359457    1.078555    2.109372
     38          1           0        2.038823   -0.867580    3.673478
     39          1           0        0.698065   -1.446080    2.673176
     40          1           0        0.554107    0.090550    3.543437
 ---------------------------------------------------------------------

 SCF Done:  E(RHF) =  -470.733381653     A.U. after   11 cycles
 E2 =    -0.1582865501D+01 EUMP2 =    -0.47231624715410D+03

 The electronic state is 1-A.
 Alpha  occ. eigenvalues --  -11.21623 -11.21622 -11.21620 -11.21605 -11.21431
 Alpha  occ. eigenvalues --  -11.21419 -11.21371 -11.21358 -11.21120 -11.21090
 Alpha  occ. eigenvalues --  -11.21081 -11.21071  -1.08464  -1.08438  -1.03569
 Alpha  occ. eigenvalues --   -1.03532  -0.96001  -0.95993  -0.87020  -0.87007
 Alpha  occ. eigenvalues --   -0.79675  -0.79561  -0.78316  -0.78213  -0.65191
 Alpha  occ. eigenvalues --   -0.64988  -0.61092  -0.60820  -0.59398  -0.59331
 Alpha  occ. eigenvalues --   -0.57626  -0.57590  -0.55299  -0.55270  -0.52698
 Alpha  occ. eigenvalues --   -0.52685  -0.52427  -0.52418  -0.49997  -0.49896
 Alpha  occ. eigenvalues --   -0.48062  -0.47856  -0.46900  -0.46469  -0.45973
 Alpha  occ. eigenvalues --   -0.45771  -0.45756  -0.45409  -0.43807  -0.43797
 Alpha virt. eigenvalues --    0.20689   0.23262   0.23793   0.24668   0.25713
 Alpha virt. eigenvalues --    0.26943   0.27090   0.27902   0.28111   0.28753
 Alpha virt. eigenvalues --    0.30754   0.31547   0.31676   0.31825   0.32093

 Mulliken charges:
               1
     1  C   -0.297591
     2  C   -0.309013
     3  C   -0.475169
     4  H    0.149829
     5  H    0.149735
     6  H    0.151926
     7  H    0.159407
     8  H    0.155277
     9  H    0.155263
    10  H    0.160623
    11  C   -0.298269
    12  C   -0.299708
    13  C   -0.475717
    14  H    0.149477
    15  H    0.149047
    16  H    0.152049
    17  H    0.152172
    18  H    0.155084
    19  H    0.155147
    20  H    0.160393
    21  C   -0.298728
    22  C   -0.299669
    23  C   -0.475747
    24  H    0.150031
    25  H    0.149562
    26  H    0.152016
    27  H    0.151939
    28  H    0.155157
    29  H    0.155311
    30  H    0.160264
    31  C   -0.297501
    32  C   -0.309770
    33  C   -0.475189
    34  H    0.149275
    35  H    0.149776
    36  H    0.160741
    37  H    0.152414
    38  H    0.155631
    39  H    0.154575
    40  H    0.159949
 Sum of Mulliken charges =  -0.00000

 Dipole moment (field-independent basis, Debye):
    X=              0.0000    Y=              0.0102    Z=              0.0005  Tot=              0.0102
 Quadrupole moment (field-independent basis, Debye-Ang):
   XX=            -84.2704   YY=            -85.8282   ZZ=            -84.5924
   XY=             -0.3239   XZ=              1.2349   YZ=             -0.0167

 Normal termination of Gaussian 16 at Thu May  6 00:32:55 2021.
