 Gaussian 16, Revision A.03,
 Gaussian 16:  EM64L-G16RevA.03 25-Dec-2016

 -------------
 #p 6-31g* mp2
 -------------

 ------------------------------------------------------
 Input file generated by CHIRIPA (05-May-2021 14:53:17)
 ------------------------------------------------------
 Symbolic Z-matrix:
 Charge =  0 Multiplicity = 1

                         Standard orientation:
 ---------------------------------------------------------------------
 Center     Atomic      Atomic             Coordinates (Angstroms)
 Number     Number       Type             X           Y           Z
 ---------------------------------------------------------------------
      1          6           0       -3.353004   -0.208930   -0.408196
      2          6           0       -4.517116   -0.250977    0.582289
      3          6           0       -5.588656    0.796976    0.279982
      4          1           0       -2.902702    0.793034   -0.392678
      5          1           0       -3.740213   -0.361879   -1.425089
      6          1           0       -4.127654   -0.099373    1.597155
      7          1           0       -4.964578   -1.253014    0.564551
      8          1           0       -6.004740    0.644787   -0.721174
      9          1           0       -5.163060    1.804983    0.317297
     10          1           0       -6.411399    0.749217    1.000172
     11          6           0       -2.273689   -1.250680   -0.119121
     12          6           0       -1.109578   -1.208634   -1.109606
     13          6           0       -0.038037   -2.256587   -0.807299
     14          1           0       -1.886481   -1.097731    0.897772
     15          1           0       -2.723991   -2.252644   -0.134639
     16          1           0       -0.662116   -0.206597   -1.091868
     17          1           0       -1.499040   -1.360237   -2.124472
     18          1           0       -0.463633   -3.264593   -0.844614
     19          1           0        0.378046   -2.104398    0.193857
     20          1           0        0.784705   -2.208828   -1.527489
     21          6           0        0.730519    2.598436   -0.108242
     22          6           0        0.477607    1.707025    0.939585
     23          6           0        1.284134    0.579931    1.123212
     24          6           0        2.339791    0.374074    0.236361
     25          6           0        2.617274    1.243822   -0.817124
     26          6           0        1.797665    2.364403   -0.981713
     27          1           0        0.098909    3.471460   -0.243494
     28          1           0       -0.350453    1.886252    1.619468
     29          1           0        1.110837   -0.126395    1.926014
     30          1           0        3.450098    1.038537   -1.478697
     31          1           0        1.996439    3.054983   -1.796348
     32          7           0        3.200550   -0.815682    0.420681
     33          8           0        4.124358   -0.974565   -0.374285
     34          8           0        2.935106   -1.566802    1.356628
 ---------------------------------------------------------------------

 SCF Done:  E(RHF) =  -669.534580521     A.U. after   15 cycles
 E2 =    -0.2096192659D+01 EUMP2 =    -0.67163077317982D+03

 The electronic state is 1-A.
 Alpha  occ. eigenvalues --  -20.60906 -20.60901 -15.85921 -11.31287 -11.27881
 Alpha  occ. eigenvalues --  -11.27863 -11.27630 -11.26903 -11.26892 -11.21975
 Alpha  occ. eigenvalues --  -11.21726 -11.21563 -11.21475 -11.21433 -11.20731
 Alpha  occ. eigenvalues --   -1.59955  -1.39516  -1.19496  -1.08880  -1.08640
 Alpha  occ. eigenvalues --   -1.04905  -1.03652  -0.96119  -0.95708  -0.87130
 Alpha  occ. eigenvalues --   -0.86290  -0.82545  -0.79740  -0.78445  -0.77587
 Alpha  occ. eigenvalues --   -0.72158  -0.71287  -0.70600  -0.65319  -0.65145
 Alpha  occ. eigenvalues --   -0.64898  -0.62252  -0.61116  -0.59502  -0.57720
 Alpha  occ. eigenvalues --   -0.55506  -0.55373  -0.53129  -0.52983  -0.52757
 Alpha  occ. eigenvalues --   -0.52518  -0.50093  -0.48917  -0.48915  -0.48030
 Alpha  occ. eigenvalues --   -0.46801  -0.45988  -0.45893  -0.44794  -0.43929
 Alpha  occ. eigenvalues --   -0.37430  -0.36450
 Alpha virt. eigenvalues --    0.04899   0.11041   0.16360   0.20386   0.22923
 Alpha virt. eigenvalues --    0.24053   0.25717   0.26740   0.27342   0.28356
 Alpha virt. eigenvalues --    0.28704   0.30558   0.31386   0.31648   0.31776

 Mulliken charges:
               1
     1  C   -0.297553
     2  C   -0.299340
     3  C   -0.475113
     4  H    0.142450
     5  H    0.151311
     6  H    0.148573
     7  H    0.154745
     8  H    0.156624
     9  H    0.151305
    10  H    0.161422
    11  C   -0.296054
    12  C   -0.306103
    13  C   -0.484475
    14  H    0.141869
    15  H    0.152258
    16  H    0.157353
    17  H    0.150183
    18  H    0.156686
    19  H    0.162484
    20  H    0.161043
    21  C   -0.171581
    22  C   -0.218829
    23  C   -0.172460
    24  C    0.164543
    25  C   -0.171711
    26  C   -0.217856
    27  H    0.226482
    28  H    0.224379
    29  H    0.275373
    30  H    0.276166
    31  H    0.224307
    32  N    0.489932
    33  O   -0.459144
    34  O   -0.459269
 Sum of Mulliken charges =  -0.00000

 Dipole moment (field-independent basis, Debye):
    X=             -2.8809    Y=              4.1776    Z=             -0.6615  Tot=              5.1176
 Quadrupole moment (field-independent basis, Debye-Ang):
   XX=           -108.3701   YY=            -91.7433   ZZ=            -91.9667
   XY=             10.6175   XZ=             -4.5128   YZ=             -0.1123

 Normal termination of Gaussian 16 at Thu May  6 18:58:23 2021.
