 Gaussian 16, Revision A.03,
 Gaussian 16:  EM64L-G16RevA.03 25-Dec-2016

 -------------
 #p 6-31g* mp2
 -------------

 ------------------------------------------------------
 Input file generated by CHIRIPA (05-May-2021 14:57:23)
 ------------------------------------------------------
 Symbolic Z-matrix:
 Charge =  0 Multiplicity = 1

                         Standard orientation:
 ---------------------------------------------------------------------
 Center     Atomic      Atomic             Coordinates (Angstroms)
 Number     Number       Type             X           Y           Z
 ---------------------------------------------------------------------
      1          6           0        4.147910   -1.831087   -0.583474
      2          6           0        2.809461   -1.867795   -0.178840
      3          6           0        2.112926   -0.683354    0.079009
      4          6           0        2.788796    0.525639   -0.078555
      5          6           0        4.121874    0.595023   -0.480276
      6          6           0        4.798697   -0.601962   -0.732637
      7          1           0        4.681339   -2.756061   -0.781645
      8          1           0        2.301510   -2.820905   -0.062171
      9          1           0        1.076345   -0.682822    0.393520
     10          1           0        4.601449    1.560347   -0.587856
     11          1           0        5.838112   -0.570419   -1.046748
     12          7           0        2.061839    1.786193    0.191513
     13          8           0        2.679887    2.838470    0.045336
     14          8           0        0.887768    1.698070    0.544256
     15          6           0       -1.323810   -1.234846    1.859016
     16          6           0       -2.085964   -0.095884    2.139030
     17          6           0       -2.967272    0.420957    1.184713
     18          6           0       -3.061819   -0.229236   -0.044760
     19          6           0       -2.315942   -1.365697   -0.353649
     20          6           0       -1.441024   -1.865006    0.615762
     21          1           0       -0.641671   -1.629531    2.606214
     22          1           0       -1.996990    0.395574    3.103705
     23          1           0       -3.569196    1.301216    1.375102
     24          1           0       -2.426306   -1.833826   -1.324263
     25          1           0       -0.850371   -2.749695    0.395534
     26          7           0       -3.991438    0.308640   -1.063042
     27          8           0       -4.056439   -0.282568   -2.138628
     28          8           0       -4.637470    1.311249   -0.766304
 ---------------------------------------------------------------------

 SCF Done:  E(RHF) =  -868.336517265     A.U. after   16 cycles
 E2 =    -0.2602543405D+01 EUMP2 =    -0.87093906066965D+03

 The electronic state is 1-A.
 Alpha  occ. eigenvalues --  -20.61059 -20.61046 -20.60561 -20.60538 -15.86107
 Alpha  occ. eigenvalues --  -15.85610 -11.31505 -11.31061 -11.28102 -11.28005
 Alpha  occ. eigenvalues --  -11.27898 -11.27759 -11.27577 -11.27508 -11.27210
 Alpha  occ. eigenvalues --  -11.27113 -11.26888 -11.26612  -1.60131  -1.59621
 Alpha  occ. eigenvalues --   -1.39682  -1.39174  -1.19712  -1.19273  -1.09104
 Alpha  occ. eigenvalues --   -1.08690  -1.05143  -1.04696  -0.95926  -0.95488
 Alpha  occ. eigenvalues --   -0.86538  -0.86120  -0.82765  -0.82319  -0.77812
 Alpha  occ. eigenvalues --   -0.77322  -0.72334  -0.71839  -0.71458  -0.70935
 Alpha  occ. eigenvalues --   -0.70843  -0.70418  -0.65377  -0.65185  -0.64948
 Alpha  occ. eigenvalues --   -0.64758  -0.62528  -0.62021  -0.55655  -0.55264
 Alpha  occ. eigenvalues --   -0.53507  -0.53455  -0.52821  -0.52673  -0.49094
 Alpha  occ. eigenvalues --   -0.49073  -0.48602  -0.48578  -0.45084  -0.44561
 Alpha  occ. eigenvalues --   -0.37705  -0.37258  -0.36762  -0.36223
 Alpha virt. eigenvalues --    0.04687   0.05253   0.10888   0.11233   0.16181
 Alpha virt. eigenvalues --    0.16667   0.19704   0.22062   0.25382   0.27944
 Alpha virt. eigenvalues --    0.28064   0.29343   0.30063   0.31782   0.32770

 Mulliken charges:
               1
     1  C   -0.169603
     2  C   -0.225289
     3  C   -0.181900
     4  C    0.155322
     5  C   -0.168707
     6  C   -0.219459
     7  H    0.226077
     8  H    0.215788
     9  H    0.292379
    10  H    0.276938
    11  H    0.224779
    12  N    0.486840
    13  O   -0.459024
    14  O   -0.461351
    15  C   -0.175908
    16  C   -0.204012
    17  C   -0.162976
    18  C    0.161590
    19  C   -0.167194
    20  C   -0.233617
    21  H    0.224142
    22  H    0.227240
    23  H    0.278806
    24  H    0.274746
    25  H    0.215905
    26  N    0.488266
    27  O   -0.462118
    28  O   -0.457660
 Sum of Mulliken charges =  -0.00000

 Dipole moment (field-independent basis, Debye):
    X=              5.6147    Y=             -5.9708    Z=              2.7206  Tot=              8.6358
 Quadrupole moment (field-independent basis, Debye-Ang):
   XX=           -106.8964   YY=           -105.8989   ZZ=           -103.7109
   XY=             -5.0415   XZ=            -16.6217   YZ=              1.2921

 Normal termination of Gaussian 16 at Fri May  7 03:23:14 2021.
