 Gaussian 16, Revision A.03,
 Gaussian 16:  EM64L-G16RevA.03 25-Dec-2016

 -------------
 #p 6-31g* mp2
 -------------

 ------------------------------------------------------
 Input file generated by CHIRIPA (05-May-2021 14:51:14)
 ------------------------------------------------------
 Symbolic Z-matrix:
 Charge =  0 Multiplicity = 1

                         Standard orientation:
 ---------------------------------------------------------------------
 Center     Atomic      Atomic             Coordinates (Angstroms)
 Number     Number       Type             X           Y           Z
 ---------------------------------------------------------------------
      1          6           0       -1.969336   -1.787941    0.289793
      2          6           0       -0.663793   -2.309873   -0.311148
      3          6           0       -0.218759   -3.636955    0.304152
      4          1           0       -1.843720   -1.666994    1.374476
      5          1           0       -2.756830   -2.541103    0.148390
      6          1           0        0.120671   -1.555370   -0.169880
      7          1           0       -0.792471   -2.429410   -1.394554
      8          1           0       -0.981112   -4.407590    0.150726
      9          1           0       -0.062781   -3.528584    1.382358
     10          1           0        0.716506   -3.991776   -0.139967
     11          6           0       -2.427213   -0.461989   -0.315126
     12          6           0       -3.732756    0.059944    0.285815
     13          6           0       -4.177790    1.387025   -0.329485
     14          1           0       -1.639719    0.291173   -0.173723
     15          1           0       -2.552829   -0.582935   -1.399809
     16          1           0       -3.604078    0.179480    1.369221
     17          1           0       -4.517220   -0.694560    0.144548
     18          1           0       -4.333768    1.278655   -1.407691
     19          1           0       -3.415438    2.157661   -0.176059
     20          1           0       -5.113055    1.741846    0.114635
     21          6           0        1.833790    1.660839    0.416920
     22          6           0        0.884132    2.514049   -0.424609
     23          6           0        0.162336    3.581638    0.398224
     24          1           0        1.265983    1.180779    1.225673
     25          1           0        2.572994    2.315034    0.899623
     26          1           0        0.147787    1.858293   -0.906683
     27          1           0        1.454232    2.991983   -1.231568
     28          1           0        0.883115    4.259310    0.867094
     29          1           0       -0.430753    3.119180    1.193825
     30          1           0       -0.511369    4.179963   -0.223055
     31          6           0        2.562760    0.589090   -0.391587
     32          6           0        3.512416   -0.264120    0.449942
     33          6           0        4.234214   -1.331708   -0.372892
     34          1           0        1.823556   -0.065105   -0.874289
     35          1           0        3.130566    1.069151   -1.200340
     36          1           0        2.942318   -0.742053    1.256900
     37          1           0        4.248762    0.391637    0.932015
     38          1           0        4.827302   -0.869250   -1.168492
     39          1           0        3.513434   -2.009380   -0.841761
     40          1           0        4.907919   -1.930033    0.248388
 ---------------------------------------------------------------------

 SCF Done:  E(RHF) =  -470.733035843     A.U. after   11 cycles
 E2 =    -0.1584746390D+01 EUMP2 =    -0.47231778223321D+03

 The electronic state is 1-A.
 Alpha  occ. eigenvalues --  -11.21667 -11.21640 -11.21619 -11.21619 -11.21466
 Alpha  occ. eigenvalues --  -11.21434 -11.21405 -11.21355 -11.21138 -11.21129
 Alpha  occ. eigenvalues --  -11.21082 -11.21080  -1.08526  -1.08432  -1.03603
 Alpha  occ. eigenvalues --   -1.03540  -0.96029  -0.96011  -0.87068  -0.87003
 Alpha  occ. eigenvalues --   -0.79686  -0.79589  -0.78416  -0.78178  -0.65449
 Alpha  occ. eigenvalues --   -0.64803  -0.61187  -0.60788  -0.59419  -0.59344
 Alpha  occ. eigenvalues --   -0.57640  -0.57615  -0.55323  -0.55305  -0.52722
 Alpha  occ. eigenvalues --   -0.52701  -0.52507  -0.52387  -0.50113  -0.49822
 Alpha  occ. eigenvalues --   -0.48051  -0.47863  -0.46809  -0.46610  -0.46236
 Alpha  occ. eigenvalues --   -0.45815  -0.45783  -0.45160  -0.43835  -0.43809
 Alpha virt. eigenvalues --    0.19037   0.21433   0.23831   0.25322   0.25875
 Alpha virt. eigenvalues --    0.26151   0.26690   0.27576   0.28582   0.30107
 Alpha virt. eigenvalues --    0.30977   0.31359   0.31550   0.31870   0.32365

 Mulliken charges:
               1
     1  C   -0.297241
     2  C   -0.308772
     3  C   -0.475567
     4  H    0.149301
     5  H    0.150036
     6  H    0.159867
     7  H    0.152014
     8  H    0.155675
     9  H    0.155156
    10  H    0.160538
    11  C   -0.306387
    12  C   -0.299091
    13  C   -0.477225
    14  H    0.156879
    15  H    0.149698
    16  H    0.151723
    17  H    0.152183
    18  H    0.155125
    19  H    0.156853
    20  H    0.160439
    21  C   -0.299108
    22  C   -0.305185
    23  C   -0.476773
    24  H    0.148786
    25  H    0.150046
    26  H    0.156825
    27  H    0.152728
    28  H    0.155718
    29  H    0.154755
    30  H    0.160866
    31  C   -0.304410
    32  C   -0.300060
    33  C   -0.476128
    34  H    0.155080
    35  H    0.150382
    36  H    0.151947
    37  H    0.152104
    38  H    0.155265
    39  H    0.155590
    40  H    0.160367
 Sum of Mulliken charges =  -0.00000

 Dipole moment (field-independent basis, Debye):
    X=             -0.0031    Y=             -0.0006    Z=             -0.0147  Tot=              0.0151
 Quadrupole moment (field-independent basis, Debye-Ang):
   XX=            -84.4505   YY=            -85.6295   ZZ=            -84.5709
   XY=              1.7170   XZ=              0.3454   YZ=              0.1805

 Normal termination of Gaussian 16 at Thu May  6 05:37:50 2021.
