 Gaussian 16, Revision A.03,
 Gaussian 16:  EM64L-G16RevA.03 25-Dec-2016

 -------------
 #p 6-31g* mp2
 -------------

 ------------------------------------------------------
 Input file generated by CHIRIPA (05-May-2021 14:53:17)
 ------------------------------------------------------
 Symbolic Z-matrix:
 Charge =  0 Multiplicity = 1

                         Standard orientation:
 ---------------------------------------------------------------------
 Center     Atomic      Atomic             Coordinates (Angstroms)
 Number     Number       Type             X           Y           Z
 ---------------------------------------------------------------------
      1          6           0       -3.794762    0.924355   -0.432912
      2          6           0       -2.645544    1.685997    0.228288
      3          6           0       -2.207110    2.909883   -0.576492
      4          1           0       -3.487409    0.611713   -1.440252
      5          1           0       -4.648535    1.603657   -0.563351
      6          1           0       -1.794675    1.005093    0.358701
      7          1           0       -2.955600    1.996696    1.234244
      8          1           0       -3.039377    3.611182   -0.695287
      9          1           0       -1.871855    2.613945   -1.575805
     10          1           0       -1.384609    3.439498   -0.085717
     11          6           0       -4.244247   -0.301769    0.359750
     12          6           0       -5.393464   -1.063411   -0.301450
     13          6           0       -5.831899   -2.287297    0.503330
     14          1           0       -3.390473   -0.981071    0.490189
     15          1           0       -4.551599    0.010873    1.367090
     16          1           0       -5.083409   -1.374110   -1.307406
     17          1           0       -6.244334   -0.382507   -0.431863
     18          1           0       -6.167153   -1.991359    1.502643
     19          1           0       -4.999632   -2.988596    0.622125
     20          1           0       -6.654400   -2.816912    0.012555
     21          6           0        5.661303   -0.342094    0.009307
     22          6           0        4.988298    0.140631    1.136498
     23          6           0        3.591675    0.199939    1.158293
     24          6           0        2.896510   -0.233636    0.030442
     25          6           0        3.538279   -0.719658   -1.107629
     26          6           0        4.935425   -0.769943   -1.107191
     27          1           0        6.746437   -0.384661    0.001011
     28          1           0        5.549430    0.473580    2.005015
     29          1           0        3.045276    0.569174    2.017672
     30          1           0        2.951582   -1.044444   -1.958346
     31          1           0        5.455430   -1.145303   -1.983973
     32          7           0        1.417691   -0.175626    0.041747
     33          8           0        0.828325   -0.563613   -0.964609
     34          8           0        0.875959    0.256732    1.056749
 ---------------------------------------------------------------------

 SCF Done:  E(RHF) =  -669.536939390     A.U. after   15 cycles
 E2 =    -0.2091470029D+01 EUMP2 =    -0.67162840941932D+03

 The electronic state is 1-A.
 Alpha  occ. eigenvalues --  -20.61134 -20.61112 -15.86118 -11.31389 -11.27939
 Alpha  occ. eigenvalues --  -11.27935 -11.27667 -11.26932 -11.26922 -11.20568
 Alpha  occ. eigenvalues --  -11.20211 -11.20071 -11.19912 -11.19694 -11.19621
 Alpha  occ. eigenvalues --   -1.60160  -1.39717  -1.19547  -1.08963  -1.07055
 Alpha  occ. eigenvalues --   -1.04933  -1.02191  -0.95812  -0.94709  -0.86336
 Alpha  occ. eigenvalues --   -0.85736  -0.82648  -0.78278  -0.77710  -0.76809
 Alpha  occ. eigenvalues --   -0.72326  -0.71461  -0.70655  -0.65201  -0.64937
 Alpha  occ. eigenvalues --   -0.63678  -0.62279  -0.59582  -0.58098  -0.56297
 Alpha  occ. eigenvalues --   -0.55440  -0.54009  -0.53267  -0.53023  -0.51445
 Alpha  occ. eigenvalues --   -0.51131  -0.49201  -0.49094  -0.48631  -0.46580
 Alpha  occ. eigenvalues --   -0.45281  -0.45129  -0.44392  -0.44127  -0.42451
 Alpha  occ. eigenvalues --   -0.37522  -0.36530
 Alpha virt. eigenvalues --    0.04816   0.11126   0.16328   0.21267   0.24192
 Alpha virt. eigenvalues --    0.25604   0.27191   0.27993   0.28192   0.28938
 Alpha virt. eigenvalues --    0.29229   0.30842   0.32374   0.32651   0.33075

 Mulliken charges:
               1
     1  C   -0.296809
     2  C   -0.311650
     3  C   -0.474253
     4  H    0.150081
     5  H    0.141894
     6  H    0.185550
     7  H    0.143761
     8  H    0.147145
     9  H    0.154396
    10  H    0.156651
    11  C   -0.298679
    12  C   -0.298689
    13  C   -0.474966
    14  H    0.156989
    15  H    0.145949
    16  H    0.151246
    17  H    0.148612
    18  H    0.153289
    19  H    0.155305
    20  H    0.156498
    21  C   -0.170350
    22  C   -0.218577
    23  C   -0.170600
    24  C    0.158742
    25  C   -0.170621
    26  C   -0.218607
    27  H    0.226355
    28  H    0.224193
    29  H    0.276140
    30  H    0.275950
    31  H    0.224149
    32  N    0.488709
    33  O   -0.459688
    34  O   -0.458116
 Sum of Mulliken charges =  -0.00000

 Dipole moment (field-independent basis, Debye):
    X=              5.7018    Y=             -0.3541    Z=             -0.0093  Tot=              5.7128
 Quadrupole moment (field-independent basis, Debye-Ang):
   XX=            -66.4140   YY=            -96.0821   ZZ=            -90.5963
   XY=             -2.2452   XZ=             -0.0180   YZ=              2.9271

 Normal termination of Gaussian 16 at Thu May  6 12:17:37 2021.
