 Gaussian 16, Revision A.03,
 Gaussian 16:  EM64L-G16RevA.03 25-Dec-2016

 -------------
 #p 6-31g* mp2
 -------------

 ------------------------------------------------------
 Input file generated by CHIRIPA (05-May-2021 14:53:17)
 ------------------------------------------------------
 Symbolic Z-matrix:
 Charge =  0 Multiplicity = 1

                         Standard orientation:
 ---------------------------------------------------------------------
 Center     Atomic      Atomic             Coordinates (Angstroms)
 Number     Number       Type             X           Y           Z
 ---------------------------------------------------------------------
      1          6           0        3.914228   -0.417935    0.364337
      2          6           0        4.269961   -1.831682   -0.096919
      3          6           0        4.721789   -2.732511    1.052930
      4          1           0        4.786104    0.029010    0.861347
      5          1           0        3.118973   -0.475657    1.120402
      6          1           0        5.063344   -1.771222   -0.852898
      7          1           0        3.397197   -2.275242   -0.593058
      8          1           0        3.931489   -2.822531    1.805208
      9          1           0        5.607103   -2.315647    1.543892
     10          1           0        4.971140   -3.738335    0.700792
     11          6           0        3.460702    0.494519   -0.773850
     12          6           0        3.104969    1.908266   -0.312593
     13          6           0        2.653141    2.809095   -1.462442
     14          1           0        4.255956    0.552242   -1.529915
     15          1           0        2.588826    0.047574   -1.270859
     16          1           0        3.977733    2.351826    0.183545
     17          1           0        2.311585    1.847806    0.443385
     18          1           0        1.767826    2.392231   -1.953405
     19          1           0        3.443441    2.899115   -2.214721
     20          1           0        2.403789    3.814919   -1.110304
     21          6           0       -1.246747    1.309397    1.539071
     22          6           0       -0.812708    0.650321    0.384190
     23          6           0       -1.709336   -0.094622   -0.387603
     24          6           0       -3.038809   -0.159396    0.026639
     25          6           0       -3.501719    0.486075    1.172228
     26          6           0       -2.587504    1.225319    1.928716
     27          1           0       -0.543394    1.885874    2.132674
     28          1           0        0.227954    0.713861    0.079180
     29          1           0       -1.400200   -0.614726   -1.286127
     30          1           0       -4.545297    0.404223    1.450911
     31          1           0       -2.927402    1.736133    2.825145
     32          7           0       -3.997339   -0.945017   -0.782324
     33          8           0       -5.163376   -0.986454   -0.395959
     34          8           0       -3.564448   -1.504474   -1.787435
 ---------------------------------------------------------------------

 SCF Done:  E(RHF) =  -669.535337253     A.U. after   15 cycles
 E2 =    -0.2091834856D+01 EUMP2 =    -0.67162717210977D+03

 The electronic state is 1-A.
 Alpha  occ. eigenvalues --  -20.60755 -20.60750 -15.85808 -11.31174 -11.27744
 Alpha  occ. eigenvalues --  -11.27739 -11.27484 -11.26760 -11.26720 -11.22740
 Alpha  occ. eigenvalues --  -11.22381 -11.22235 -11.22175 -11.21999 -11.21556
 Alpha  occ. eigenvalues --   -1.59831  -1.39384  -1.19346  -1.09334  -1.08740
 Alpha  occ. eigenvalues --   -1.04753  -1.04351  -0.96774  -0.95577  -0.87789
 Alpha  occ. eigenvalues --   -0.86152  -0.82410  -0.80435  -0.79112  -0.77461
 Alpha  occ. eigenvalues --   -0.72028  -0.71154  -0.70458  -0.66136  -0.64999
 Alpha  occ. eigenvalues --   -0.64682  -0.62222  -0.61592  -0.60154  -0.58378
 Alpha  occ. eigenvalues --   -0.56067  -0.55248  -0.53451  -0.53182  -0.53075
 Alpha  occ. eigenvalues --   -0.52839  -0.50719  -0.48808  -0.48782  -0.48700
 Alpha  occ. eigenvalues --   -0.47509  -0.46632  -0.46581  -0.44790  -0.44612
 Alpha  occ. eigenvalues --   -0.37327  -0.36352
 Alpha virt. eigenvalues --    0.05077   0.11271   0.16554   0.18253   0.22807
 Alpha virt. eigenvalues --    0.23738   0.25251   0.25435   0.27180   0.28315
 Alpha virt. eigenvalues --    0.29022   0.30304   0.30980   0.31409   0.31826

 Mulliken charges:
               1
     1  C   -0.298583
     2  C   -0.300235
     3  C   -0.476304
     4  H    0.152368
     5  H    0.145830
     6  H    0.154141
     7  H    0.152966
     8  H    0.155670
     9  H    0.155809
    10  H    0.163240
    11  C   -0.301104
    12  C   -0.303516
    13  C   -0.476404
    14  H    0.155948
    15  H    0.145001
    16  H    0.158432
    17  H    0.139441
    18  H    0.154197
    19  H    0.160573
    20  H    0.162675
    21  C   -0.173296
    22  C   -0.227555
    23  C   -0.172836
    24  C    0.159042
    25  C   -0.171259
    26  C   -0.218398
    27  H    0.225710
    28  H    0.237038
    29  H    0.275390
    30  H    0.275583
    31  H    0.223387
    32  N    0.487997
    33  O   -0.460472
    34  O   -0.460474
 Sum of Mulliken charges =  -0.00000

 Dipole moment (field-independent basis, Debye):
    X=              3.6091    Y=              2.7652    Z=              2.8016  Tot=              5.3405
 Quadrupole moment (field-independent basis, Debye-Ang):
   XX=           -111.0262   YY=            -96.2764   ZZ=            -93.4138
   XY=             -9.4472   XZ=            -11.9862   YZ=              0.9222

 Normal termination of Gaussian 16 at Thu May  6 05:57:26 2021.
