 Gaussian 16, Revision A.03,
 Gaussian 16:  EM64L-G16RevA.03 25-Dec-2016

 -------------
 #p 6-31g* mp2
 -------------

 ------------------------------------------------------
 Input file generated by CHIRIPA (05-May-2021 14:55:23)
 ------------------------------------------------------
 Symbolic Z-matrix:
 Charge =  0 Multiplicity = 1

                         Standard orientation:
 ---------------------------------------------------------------------
 Center     Atomic      Atomic             Coordinates (Angstroms)
 Number     Number       Type             X           Y           Z
 ---------------------------------------------------------------------
      1          6           0       -2.147804    1.956962    0.573108
      2          6           0       -1.815307    0.681794    1.042055
      3          6           0       -2.654225   -0.408064    0.791105
      4          6           0       -3.823070   -0.185767    0.064693
      5          6           0       -4.181830    1.072660   -0.415872
      6          6           0       -3.327924    2.147989   -0.153079
      7          1           0       -1.490291    2.797947    0.772652
      8          1           0       -0.899452    0.530483    1.606289
      9          1           0       -2.421069   -1.405894    1.142377
     10          1           0       -5.101561    1.192335   -0.975508
     11          1           0       -3.588687    3.137187   -0.518504
     12          7           0       -4.719128   -1.331859   -0.207245
     13          8           0       -5.743175   -1.109709   -0.849597
     14          8           0       -4.380446   -2.430616    0.227110
     15          6           0        5.230659   -0.520411    0.059583
     16          6           0        6.660129   -0.087447   -0.267747
     17          6           0        7.701411   -1.131025    0.137806
     18          1           0        5.152205   -0.719210    1.137204
     19          1           0        5.016911   -1.470239   -0.449860
     20          1           0        6.870650    0.861987    0.241048
     21          1           0        6.735141    0.110529   -1.344685
     22          1           0        7.519374   -2.078309   -0.379990
     23          1           0        7.655653   -1.322584    1.214753
     24          1           0        8.716255   -0.801080   -0.105273
     25          6           0        4.178335    0.512415   -0.339933
     26          6           0        2.748866    0.079451   -0.012603
     27          6           0        1.707585    1.123029   -0.418157
     28          1           0        4.392085    1.462244    0.169510
     29          1           0        4.256791    0.711214   -1.417555
     30          1           0        2.673854   -0.118525    1.064335
     31          1           0        2.538346   -0.869982   -0.521397
     32          1           0        1.753342    1.314588   -1.495102
     33          1           0        1.889621    2.070315    0.099641
     34          1           0        0.692741    0.793084   -0.175077
 ---------------------------------------------------------------------

 SCF Done:  E(RHF) =  -669.534829698     A.U. after   15 cycles
 E2 =    -0.2091916349D+01 EUMP2 =    -0.67162674604650D+03

 The electronic state is 1-A.
 Alpha  occ. eigenvalues --  -20.60776 -20.60771 -15.85830 -11.31207 -11.27783
 Alpha  occ. eigenvalues --  -11.27780 -11.27513 -11.26785 -11.26766 -11.22256
 Alpha  occ. eigenvalues --  -11.21938 -11.21895 -11.21779 -11.21769 -11.21343
 Alpha  occ. eigenvalues --   -1.59851  -1.39404  -1.19389  -1.08913  -1.08775
 Alpha  occ. eigenvalues --   -1.04800  -1.04030  -0.96488  -0.95604  -0.87517
 Alpha  occ. eigenvalues --   -0.86185  -0.82439  -0.80104  -0.78704  -0.77490
 Alpha  occ. eigenvalues --   -0.72049  -0.71174  -0.70478  -0.65541  -0.65040
 Alpha  occ. eigenvalues --   -0.64838  -0.62184  -0.61423  -0.59856  -0.58094
 Alpha  occ. eigenvalues --   -0.55765  -0.55276  -0.53527  -0.52989  -0.52954
 Alpha  occ. eigenvalues --   -0.52600  -0.50421  -0.48810  -0.48802  -0.48406
 Alpha  occ. eigenvalues --   -0.47132  -0.46251  -0.46161  -0.44808  -0.44286
 Alpha  occ. eigenvalues --   -0.37321  -0.36367
 Alpha virt. eigenvalues --    0.05048   0.11115   0.16504   0.20659   0.22580
 Alpha virt. eigenvalues --    0.23958   0.26125   0.26627   0.26869   0.27867
 Alpha virt. eigenvalues --    0.29034   0.30126   0.31006   0.31786   0.32017

 Mulliken charges:
               1
     1  C   -0.168585
     2  C   -0.220292
     3  C   -0.172714
     4  C    0.158381
     5  C   -0.170501
     6  C   -0.218751
     7  H    0.227443
     8  H    0.226427
     9  H    0.275954
    10  H    0.275780
    11  H    0.223714
    12  N    0.488123
    13  O   -0.460376
    14  O   -0.460337
    15  C   -0.298713
    16  C   -0.299971
    17  C   -0.475977
    18  H    0.149451
    19  H    0.151044
    20  H    0.151749
    21  H    0.152670
    22  H    0.156111
    23  H    0.155340
    24  H    0.161171
    25  C   -0.298360
    26  C   -0.299670
    27  C   -0.485795
    28  H    0.148937
    29  H    0.151381
    30  H    0.148114
    31  H    0.155547
    32  H    0.159612
    33  H    0.149735
    34  H    0.163358
 Sum of Mulliken charges =  -0.00000

 Dipole moment (field-independent basis, Debye):
    X=              3.2019    Y=              4.0263    Z=              0.9153  Tot=              5.2250
 Quadrupole moment (field-independent basis, Debye-Ang):
   XX=           -117.6758   YY=            -95.0827   ZZ=            -93.2426
   XY=            -17.9435   XZ=             -1.9554   YZ=             -1.0915

 Normal termination of Gaussian 16 at Thu May  6 14:16:10 2021.
