 Gaussian 16, Revision A.03,
 Gaussian 16:  EM64L-G16RevA.03 25-Dec-2016

 -------------
 #p 6-31g* mp2
 -------------

 ------------------------------------------------------
 Input file generated by CHIRIPA (05-May-2021 14:57:24)
 ------------------------------------------------------
 Symbolic Z-matrix:
 Charge =  0 Multiplicity = 1

                         Standard orientation:
 ---------------------------------------------------------------------
 Center     Atomic      Atomic             Coordinates (Angstroms)
 Number     Number       Type             X           Y           Z
 ---------------------------------------------------------------------
      1          6           0       -3.912866   -2.398909   -0.391705
      2          6           0       -2.690707   -1.718809   -0.374045
      3          6           0       -2.650463   -0.336122   -0.171303
      4          6           0       -3.856904    0.338024    0.011226
      5          6           0       -5.090406   -0.311292   -0.001083
      6          6           0       -5.106710   -1.694222   -0.205495
      7          1           0       -3.934831   -3.473109   -0.549848
      8          1           0       -1.761981   -2.263493   -0.518381
      9          1           0       -1.718280    0.215348   -0.152970
     10          1           0       -5.999653    0.258917    0.145716
     11          1           0       -6.057320   -2.219781   -0.218721
     12          7           0       -3.826971    1.801942    0.226744
     13          8           0       -4.903822    2.372867    0.385089
     14          8           0       -2.727225    2.350717    0.233241
     15          6           0        1.494570   -0.941827    0.242976
     16          6           0        2.565428   -1.748337    0.642135
     17          6           0        3.881198   -1.290408    0.525523
     18          6           0        4.090696   -0.015054    0.003152
     19          6           0        3.044821    0.812154   -0.403250
     20          6           0        1.737257    0.333596   -0.277525
     21          1           0        0.475636   -1.305569    0.337102
     22          1           0        2.379941   -2.739274    1.046712
     23          1           0        4.728790   -1.893902    0.826852
     24          1           0        3.261199    1.795468   -0.802867
     25          1           0        0.907562    0.962131   -0.588323
     26          7           0        5.479299    0.480654   -0.125124
     27          8           0        5.637293    1.608044   -0.588445
     28          8           0        6.383399   -0.267587    0.240085
 ---------------------------------------------------------------------

 SCF Done:  E(RHF) =  -868.336329739     A.U. after   16 cycles
 E2 =    -0.2600681646D+01 EUMP2 =    -0.87093701138535D+03

 The electronic state is 1-A.
 Alpha  occ. eigenvalues --  -20.61615 -20.61590 -20.60931 -20.60922 -15.86664
 Alpha  occ. eigenvalues --  -15.85984 -11.32143 -11.31466 -11.28861 -11.28652
 Alpha  occ. eigenvalues --  -11.28444 -11.28044 -11.27998 -11.27960 -11.27859
 Alpha  occ. eigenvalues --  -11.27663 -11.27159 -11.27103  -1.60673  -1.60001
 Alpha  occ. eigenvalues --   -1.40228  -1.39551  -1.20321  -1.19659  -1.09678
 Alpha  occ. eigenvalues --   -1.09073  -1.05769  -1.05063  -0.96504  -0.95884
 Alpha  occ. eigenvalues --   -0.87148  -0.86484  -0.83366  -0.82690  -0.78409
 Alpha  occ. eigenvalues --   -0.77686  -0.72882  -0.72205  -0.71995  -0.71465
 Alpha  occ. eigenvalues --   -0.71323  -0.70850  -0.65982  -0.65794  -0.65327
 Alpha  occ. eigenvalues --   -0.65099  -0.63127  -0.62380  -0.56233  -0.55685
 Alpha  occ. eigenvalues --   -0.54042  -0.53871  -0.53396  -0.53157  -0.49648
 Alpha  occ. eigenvalues --   -0.49626  -0.48973  -0.48948  -0.45609  -0.44929
 Alpha  occ. eigenvalues --   -0.38263  -0.37702  -0.37357  -0.36643
 Alpha virt. eigenvalues --    0.04165   0.04820   0.10299   0.10989   0.15575
 Alpha virt. eigenvalues --    0.16219   0.17473   0.22224   0.24410   0.25012
 Alpha virt. eigenvalues --    0.27611   0.28919   0.30497   0.31246   0.33258

 Mulliken charges:
               1
     1  C   -0.169464
     2  C   -0.222829
     3  C   -0.173659
     4  C    0.159124
     5  C   -0.168554
     6  C   -0.218169
     7  H    0.228654
     8  H    0.218862
     9  H    0.271342
    10  H    0.278920
    11  H    0.227303
    12  N    0.488236
    13  O   -0.455777
    14  O   -0.463377
    15  C   -0.175683
    16  C   -0.218974
    17  C   -0.170475
    18  C    0.159391
    19  C   -0.169626
    20  C   -0.223066
    21  H    0.218372
    22  H    0.222437
    23  H    0.276526
    24  H    0.279620
    25  H    0.231060
    26  N    0.487777
    27  O   -0.458030
    28  O   -0.459942
 Sum of Mulliken charges =  -0.00000

 Dipole moment (field-independent basis, Debye):
    X=             -5.1636    Y=             -6.8005    Z=             -0.3222  Tot=              8.5448
 Quadrupole moment (field-independent basis, Debye-Ang):
   XX=           -136.4051   YY=           -105.1053   ZZ=           -105.7265
   XY=             11.5729   XZ=              5.1200   YZ=             -2.2213

 Normal termination of Gaussian 16 at Fri May  7 09:34:45 2021.
