 Gaussian 16, Revision A.03,
 Gaussian 16:  EM64L-G16RevA.03 25-Dec-2016

 -------------
 #p 6-31g* mp2
 -------------

 ------------------------------------------------------
 Input file generated by CHIRIPA (05-May-2021 14:51:09)
 ------------------------------------------------------
 Symbolic Z-matrix:
 Charge =  0 Multiplicity = 1

                         Standard orientation:
 ---------------------------------------------------------------------
 Center     Atomic      Atomic             Coordinates (Angstroms)
 Number     Number       Type             X           Y           Z
 ---------------------------------------------------------------------
      1          6           0       -4.888978    0.064040   -0.136332
      2          6           0       -5.878771   -1.004786    0.328323
      3          6           0       -7.336171   -0.586421    0.131477
      4          1           0       -5.081598    0.996302    0.412056
      5          1           0       -5.068317    0.283174   -1.198035
      6          1           0       -5.696707   -1.222837    1.388475
      7          1           0       -5.683647   -1.934667   -0.221098
      8          1           0       -7.540605   -0.388049   -0.925621
      9          1           0       -7.553739    0.327826    0.693097
     10          1           0       -8.026642   -1.365103    0.470245
     11          6           0       -3.427944   -0.339545    0.054007
     12          6           0       -2.438151    0.729282   -0.410649
     13          6           0       -0.980751    0.310916   -0.213802
     14          1           0       -3.248605   -0.558679    1.115709
     15          1           0       -3.235324   -1.271807   -0.494382
     16          1           0       -2.633275    1.659163    0.138773
     17          1           0       -2.620215    0.947333   -1.470801
     18          1           0       -0.763183   -0.603330   -0.775423
     19          1           0       -0.776317    0.112544    0.843296
     20          1           0       -0.290280    1.089598   -0.552571
     21          6           0        3.588942    0.590743   -0.190957
     22          6           0        3.622413    1.980993    0.444707
     23          6           0        2.476738    2.875590   -0.029552
     24          1           0        3.630188    0.693217   -1.284000
     25          1           0        2.627875    0.111718    0.042028
     26          1           0        4.583685    2.456708    0.211753
     27          1           0        3.581275    1.875189    1.536370
     28          1           0        1.509453    2.425913    0.216925
     29          1           0        2.517559    3.010736   -1.115217
     30          1           0        2.519929    3.864552    0.437297
     31          6           0        4.727980   -0.315238    0.273282
     32          6           0        4.694509   -1.705489   -0.362380
     33          6           0        5.840184   -2.600086    0.111878
     34          1           0        5.689047    0.163787    0.040297
     35          1           0        4.686734   -0.417714    1.366325
     36          1           0        4.735647   -1.599684   -1.454043
     37          1           0        3.733237   -2.181204   -0.129427
     38          1           0        5.799363   -2.735232    1.197543
     39          1           0        6.807469   -2.150409   -0.134600
     40          1           0        5.796993   -3.589049   -0.354971
 ---------------------------------------------------------------------

 SCF Done:  E(RHF) =  -470.733258286     A.U. after   11 cycles
 E2 =    -0.1582507192D+01 EUMP2 =    -0.47231576547886D+03

 The electronic state is 1-A.
 Alpha  occ. eigenvalues --  -11.21617 -11.21608 -11.21563 -11.21558 -11.21414
 Alpha  occ. eigenvalues --  -11.21355 -11.21350 -11.21286 -11.21083 -11.21075
 Alpha  occ. eigenvalues --  -11.21042 -11.21019  -1.08442  -1.08381  -1.03550
 Alpha  occ. eigenvalues --   -1.03484  -0.96008  -0.95929  -0.87036  -0.86940
 Alpha  occ. eigenvalues --   -0.79643  -0.79521  -0.78257  -0.78185  -0.65072
 Alpha  occ. eigenvalues --   -0.65013  -0.60961  -0.60890  -0.59451  -0.59238
 Alpha  occ. eigenvalues --   -0.57697  -0.57466  -0.55310  -0.55204  -0.52783
 Alpha  occ. eigenvalues --   -0.52635  -0.52475  -0.52239  -0.49960  -0.49848
 Alpha  occ. eigenvalues --   -0.47981  -0.47800  -0.46651  -0.46567  -0.45806
 Alpha  occ. eigenvalues --   -0.45735  -0.45720  -0.45650  -0.43762  -0.43718
 Alpha virt. eigenvalues --    0.21915   0.22978   0.23535   0.24845   0.26068
 Alpha virt. eigenvalues --    0.26644   0.27073   0.27282   0.27884   0.28965
 Alpha virt. eigenvalues --    0.30751   0.31362   0.31703   0.31810   0.32046

 Mulliken charges:
               1
     1  C   -0.298265
     2  C   -0.299638
     3  C   -0.475710
     4  H    0.149704
     5  H    0.149603
     6  H    0.151893
     7  H    0.151945
     8  H    0.155216
     9  H    0.155202
    10  H    0.160262
    11  C   -0.298534
    12  C   -0.299694
    13  C   -0.482699
    14  H    0.149393
    15  H    0.149684
    16  H    0.152163
    17  H    0.152233
    18  H    0.155561
    19  H    0.154101
    20  H    0.167875
    21  C   -0.300941
    22  C   -0.299065
    23  C   -0.482133
    24  H    0.149161
    25  H    0.153540
    26  H    0.151653
    27  H    0.151673
    28  H    0.161709
    29  H    0.154531
    30  H    0.160046
    31  C   -0.298220
    32  C   -0.299644
    33  C   -0.475668
    34  H    0.149324
    35  H    0.149481
    36  H    0.151800
    37  H    0.152166
    38  H    0.155111
    39  H    0.155082
    40  H    0.160102
 Sum of Mulliken charges =  -0.00000

 Dipole moment (field-independent basis, Debye):
    X=             -0.0251    Y=             -0.0031    Z=             -0.0066  Tot=              0.0261
 Quadrupole moment (field-independent basis, Debye-Ang):
   XX=            -86.3912   YY=            -85.1829   ZZ=            -83.3596
   XY=              0.9112   XZ=             -0.7182   YZ=              0.3386

 Normal termination of Gaussian 16 at Thu May  6 05:19:50 2021.
