 Gaussian 16, Revision A.03,
 Gaussian 16:  EM64L-G16RevA.03 25-Dec-2016

 -------------
 #p 6-31g* mp2
 -------------

 ------------------------------------------------------
 Input file generated by CHIRIPA (05-May-2021 14:51:12)
 ------------------------------------------------------
 Symbolic Z-matrix:
 Charge =  0 Multiplicity = 1

                         Standard orientation:
 ---------------------------------------------------------------------
 Center     Atomic      Atomic             Coordinates (Angstroms)
 Number     Number       Type             X           Y           Z
 ---------------------------------------------------------------------
      1          6           0       -2.994330    0.206373   -0.664258
      2          6           0       -4.303853   -0.560383   -0.476587
      3          6           0       -4.612087   -1.498534   -1.643916
      4          1           0       -3.045635    0.784202   -1.597225
      5          1           0       -2.171418   -0.511521   -0.786071
      6          1           0       -5.123850    0.158741   -0.353780
      7          1           0       -4.249499   -1.136303    0.456139
      8          1           0       -3.813934   -2.238069   -1.764912
      9          1           0       -4.693253   -0.935666   -2.579434
     10          1           0       -5.552497   -2.036586   -1.489027
     11          6           0       -2.672461    1.148379    0.494515
     12          6           0       -1.362938    1.915135    0.306843
     13          6           0       -1.054704    2.853286    1.474173
     14          1           0       -3.495373    1.866273    0.616328
     15          1           0       -2.621156    0.570550    1.427481
     16          1           0       -1.417292    2.491055   -0.625882
     17          1           0       -0.542942    1.196010    0.184037
     18          1           0       -0.973538    2.290418    2.409690
     19          1           0       -1.852857    3.592821    1.595169
     20          1           0       -0.114294    3.391338    1.319284
     21          6           0        3.408613   -0.606109   -0.412600
     22          6           0        3.847001    0.842647   -0.629177
     23          6           0        4.998586    0.968926   -1.627025
     24          1           0        4.267373   -1.193537   -0.059888
     25          1           0        3.108593   -1.039138   -1.376897
     26          1           0        4.144793    1.273243    0.335460
     27          1           0        2.987051    1.426736   -0.981230
     28          1           0        4.709091    0.564975   -2.602533
     29          1           0        5.873411    0.410610   -1.278362
     30          1           0        5.295999    2.012889   -1.766834
     31          6           0        2.258177   -0.748642    0.582343
     32          6           0        1.819790   -2.197399    0.798920
     33          6           0        0.668204   -2.323678    1.796768
     34          1           0        2.558198   -0.315614    1.546640
     35          1           0        1.399418   -0.161215    0.229632
     36          1           0        2.679740   -2.781488    1.150975
     37          1           0        1.521998   -2.627995   -0.165716
     38          1           0       -0.206620   -1.765361    1.448105
     39          1           0        0.957700   -1.919727    2.772277
     40          1           0        0.370793   -3.367641    1.936578
 ---------------------------------------------------------------------

 SCF Done:  E(RHF) =  -470.733387366     A.U. after   11 cycles
 E2 =    -0.1583434104D+01 EUMP2 =    -0.47231682146952D+03

 The electronic state is 1-A.
 Alpha  occ. eigenvalues --  -11.21656 -11.21618 -11.21612 -11.21600 -11.21434
 Alpha  occ. eigenvalues --  -11.21433 -11.21373 -11.21371 -11.21150 -11.21084
 Alpha  occ. eigenvalues --  -11.21078 -11.21056  -1.08479  -1.08439  -1.03570
 Alpha  occ. eigenvalues --   -1.03535  -0.96021  -0.95983  -0.87035  -0.87002
 Alpha  occ. eigenvalues --   -0.79649  -0.79591  -0.78353  -0.78196  -0.65242
 Alpha  occ. eigenvalues --   -0.64956  -0.61017  -0.60887  -0.59388  -0.59351
 Alpha  occ. eigenvalues --   -0.57650  -0.57578  -0.55376  -0.55209  -0.52712
 Alpha  occ. eigenvalues --   -0.52677  -0.52461  -0.52395  -0.50002  -0.49901
 Alpha  occ. eigenvalues --   -0.48020  -0.47886  -0.46828  -0.46601  -0.46074
 Alpha  occ. eigenvalues --   -0.45776  -0.45772  -0.45271  -0.43819  -0.43795
 Alpha virt. eigenvalues --    0.19454   0.23020   0.23964   0.24581   0.25483
 Alpha virt. eigenvalues --    0.26452   0.27019   0.27645   0.28489   0.29283
 Alpha virt. eigenvalues --    0.31165   0.31596   0.31773   0.31800   0.32112

 Mulliken charges:
               1
     1  C   -0.299393
     2  C   -0.299664
     3  C   -0.475754
     4  H    0.149793
     5  H    0.149126
     6  H    0.152107
     7  H    0.152333
     8  H    0.155201
     9  H    0.155108
    10  H    0.160411
    11  C   -0.298243
    12  C   -0.309562
    13  C   -0.475055
    14  H    0.149826
    15  H    0.150392
    16  H    0.151724
    17  H    0.160066
    18  H    0.155625
    19  H    0.155040
    20  H    0.160468
    21  C   -0.297485
    22  C   -0.299993
    23  C   -0.475726
    24  H    0.149783
    25  H    0.149516
    26  H    0.151969
    27  H    0.152259
    28  H    0.155264
    29  H    0.155189
    30  H    0.160321
    31  C   -0.308378
    32  C   -0.299049
    33  C   -0.477851
    34  H    0.149733
    35  H    0.158858
    36  H    0.152396
    37  H    0.151756
    38  H    0.155679
    39  H    0.155546
    40  H    0.160666
 Sum of Mulliken charges =  -0.00000

 Dipole moment (field-independent basis, Debye):
    X=              0.0106    Y=              0.0021    Z=              0.0082  Tot=              0.0135
 Quadrupole moment (field-independent basis, Debye-Ang):
   XX=            -84.8259   YY=            -84.7932   ZZ=            -85.0296
   XY=             -0.9232   XZ=              1.0707   YZ=             -0.8076

 Normal termination of Gaussian 16 at Wed May  5 19:55:39 2021.
