 Gaussian 16, Revision A.03,
 Gaussian 16:  EM64L-G16RevA.03 25-Dec-2016

 -------------
 #p 6-31g* mp2
 -------------

 ------------------------------------------------------
 Input file generated by CHIRIPA (05-May-2021 14:51:12)
 ------------------------------------------------------
 Symbolic Z-matrix:
 Charge =  0 Multiplicity = 1

                         Standard orientation:
 ---------------------------------------------------------------------
 Center     Atomic      Atomic             Coordinates (Angstroms)
 Number     Number       Type             X           Y           Z
 ---------------------------------------------------------------------
      1          6           0        2.763614   -0.269786   -0.082150
      2          6           0        2.764687   -1.164079   -1.322401
      3          6           0        2.972801   -2.641022   -0.986062
      4          1           0        3.714803   -0.394916    0.453132
      5          1           0        1.972894   -0.605744    0.602897
      6          1           0        3.554265   -0.825669   -2.005528
      7          1           0        1.813462   -1.036661   -1.854897
      8          1           0        2.178980   -3.000802   -0.323486
      9          1           0        3.929674   -2.788612   -0.474973
     10          1           0        2.970120   -3.262214   -1.887158
     11          6           0        2.556622    1.209566   -0.402151
     12          6           0        2.555549    2.103860    0.838100
     13          6           0        2.347435    3.580802    0.501762
     14          1           0        3.347341    1.545525   -1.087198
     15          1           0        1.605433    1.334697   -0.937433
     16          1           0        3.506773    1.976441    1.370596
     17          1           0        1.765971    1.765450    1.521227
     18          1           0        1.390562    3.728393   -0.009328
     19          1           0        3.141255    3.940583   -0.160815
     20          1           0        2.350115    4.201995    1.402857
     21          6           0       -2.972150   -0.118016   -0.359723
     22          6           0       -4.270562    0.617407   -0.026157
     23          6           0       -4.882778    1.316365   -1.240424
     24          1           0       -2.249548    0.597302   -0.775790
     25          1           0       -3.169792   -0.857151   -1.148401
     26          1           0       -4.070822    1.353976    0.762631
     27          1           0       -4.990090   -0.099710    0.389341
     28          1           0       -5.110256    0.591054   -2.028319
     29          1           0       -4.185764    2.052998   -1.652908
     30          1           0       -5.810117    1.835763   -0.979413
     31          6           0       -2.348086   -0.821765    0.844024
     32          6           0       -1.049674   -1.557188    0.510457
     33          6           0       -0.437458   -2.256145    1.724725
     34          1           0       -2.150444   -0.082631    1.632702
     35          1           0       -3.070688   -1.537083    1.260089
     36          1           0       -0.330145   -0.840072    0.094959
     37          1           0       -1.249414   -2.293756   -0.278330
     38          1           0       -1.134471   -2.992779    2.137209
     39          1           0       -0.209980   -1.530835    2.512620
     40          1           0        0.489882   -2.775544    1.463714
 ---------------------------------------------------------------------

 SCF Done:  E(RHF) =  -470.732528545     A.U. after   11 cycles
 E2 =    -0.1584651305D+01 EUMP2 =    -0.47231717984979D+03

 The electronic state is 1-A.
 Alpha  occ. eigenvalues --  -11.21672 -11.21648 -11.21635 -11.21574 -11.21473
 Alpha  occ. eigenvalues --  -11.21414 -11.21408 -11.21304 -11.21159 -11.21107
 Alpha  occ. eigenvalues --  -11.21104 -11.21055  -1.08528  -1.08410  -1.03633
 Alpha  occ. eigenvalues --   -1.03508  -0.96055  -0.95987  -0.87073  -0.86999
 Alpha  occ. eigenvalues --   -0.79669  -0.79598  -0.78332  -0.78234  -0.65398
 Alpha  occ. eigenvalues --   -0.64880  -0.61128  -0.60879  -0.59470  -0.59262
 Alpha  occ. eigenvalues --   -0.57678  -0.57558  -0.55444  -0.55185  -0.52772
 Alpha  occ. eigenvalues --   -0.52679  -0.52507  -0.52368  -0.50003  -0.49935
 Alpha  occ. eigenvalues --   -0.47981  -0.47896  -0.46723  -0.46604  -0.45971
 Alpha  occ. eigenvalues --   -0.45813  -0.45717  -0.45524  -0.43845  -0.43783
 Alpha virt. eigenvalues --    0.19716   0.22639   0.23500   0.24592   0.25640
 Alpha virt. eigenvalues --    0.26567   0.26604   0.27633   0.28867   0.29645
 Alpha virt. eigenvalues --    0.30253   0.31399   0.31707   0.31775   0.32247

 Mulliken charges:
               1
     1  C   -0.306544
     2  C   -0.299960
     3  C   -0.481032
     4  H    0.150037
     5  H    0.158454
     6  H    0.151906
     7  H    0.152949
     8  H    0.159802
     9  H    0.155143
    10  H    0.160334
    11  C   -0.299245
    12  C   -0.299422
    13  C   -0.475633
    14  H    0.149965
    15  H    0.148962
    16  H    0.152361
    17  H    0.151039
    18  H    0.154773
    19  H    0.155449
    20  H    0.160316
    21  C   -0.298296
    22  C   -0.299731
    23  C   -0.475759
    24  H    0.148990
    25  H    0.149805
    26  H    0.152048
    27  H    0.152161
    28  H    0.155289
    29  H    0.155181
    30  H    0.160475
    31  C   -0.297732
    32  C   -0.306934
    33  C   -0.481999
    34  H    0.149397
    35  H    0.150090
    36  H    0.158219
    37  H    0.152551
    38  H    0.156529
    39  H    0.155371
    40  H    0.164689
 Sum of Mulliken charges =  -0.00000

 Dipole moment (field-independent basis, Debye):
    X=             -0.0208    Y=             -0.0163    Z=              0.0119  Tot=              0.0290
 Quadrupole moment (field-independent basis, Debye-Ang):
   XX=            -83.7838   YY=            -85.5608   ZZ=            -85.3581
   XY=              1.0859   XZ=             -0.3980   YZ=              0.6773

 Normal termination of Gaussian 16 at Wed May  5 18:19:40 2021.
