 Gaussian 16, Revision A.03,
 Gaussian 16:  EM64L-G16RevA.03 25-Dec-2016

 -------------
 #p 6-31g* mp2
 -------------

 ------------------------------------------------------
 Input file generated by CHIRIPA (05-May-2021 14:51:10)
 ------------------------------------------------------
 Symbolic Z-matrix:
 Charge =  0 Multiplicity = 1

                         Standard orientation:
 ---------------------------------------------------------------------
 Center     Atomic      Atomic             Coordinates (Angstroms)
 Number     Number       Type             X           Y           Z
 ---------------------------------------------------------------------
      1          6           0       -3.318238   -0.280959    0.355523
      2          6           0       -4.180046    0.441040   -0.680812
      3          6           0       -5.147369    1.443322   -0.050326
      4          1           0       -3.972312   -0.799870    1.069571
      5          1           0       -2.752132    0.462577    0.933513
      6          1           0       -4.743312   -0.303716   -1.257599
      7          1           0       -3.523841    0.958135   -1.392587
      8          1           0       -4.599157    2.207809    0.509697
      9          1           0       -5.825557    0.938788    0.645452
     10          1           0       -5.753566    1.947992   -0.809069
     11          6           0       -2.346108   -1.286222   -0.259407
     12          6           0       -1.484301   -2.008222    0.776928
     13          6           0       -0.516978   -3.010503    0.146442
     14          1           0       -2.912214   -2.029758   -0.837397
     15          1           0       -1.692035   -0.767312   -0.973454
     16          1           0       -2.140505   -2.525317    1.488704
     17          1           0       -0.921034   -1.263465    1.353716
     18          1           0        0.161211   -2.505969   -0.549336
     19          1           0       -1.065189   -3.774990   -0.413581
     20          1           0        0.089220   -3.515174    0.905185
     21          6           0        3.349366    0.270598    0.181685
     22          6           0        3.297449   -1.038027   -0.607484
     23          6           0        4.338116   -2.054246   -0.136200
     24          1           0        4.354521    0.705089    0.093225
     25          1           0        3.195164    0.054070    1.247861
     26          1           0        3.450325   -0.818938   -1.672023
     27          1           0        2.292245   -1.469356   -0.517293
     28          1           0        4.184442   -2.301819    0.919116
     29          1           0        5.349102   -1.647705   -0.242175
     30          1           0        4.283350   -2.982253   -0.713836
     31          6           0        2.314980    1.296583   -0.277801
     32          6           0        2.366896    2.605209    0.511368
     33          6           0        1.326231    3.621427    0.040084
     34          1           0        2.469182    1.513112   -1.343978
     35          1           0        1.309824    0.862092   -0.189341
     36          1           0        3.372101    3.036538    0.421175
     37          1           0        2.214021    2.386119    1.575907
     38          1           0        0.315244    3.214887    0.146059
     39          1           0        1.479905    3.869001   -1.015234
     40          1           0        1.380997    4.549435    0.617720
 ---------------------------------------------------------------------

 SCF Done:  E(RHF) =  -470.733342319     A.U. after   11 cycles
 E2 =    -0.1583060319D+01 EUMP2 =    -0.47231640263818D+03

 The electronic state is 1-A.
 Alpha  occ. eigenvalues --  -11.21664 -11.21644 -11.21621 -11.21571 -11.21447
 Alpha  occ. eigenvalues --  -11.21442 -11.21387 -11.21372 -11.21119 -11.21113
 Alpha  occ. eigenvalues --  -11.21083 -11.21053  -1.08478  -1.08448  -1.03580
 Alpha  occ. eigenvalues --   -1.03535  -0.96023  -0.95992  -0.87049  -0.87000
 Alpha  occ. eigenvalues --   -0.79676  -0.79570  -0.78303  -0.78251  -0.65216
 Alpha  occ. eigenvalues --   -0.64986  -0.61096  -0.60831  -0.59383  -0.59366
 Alpha  occ. eigenvalues --   -0.57645  -0.57591  -0.55364  -0.55239  -0.52711
 Alpha  occ. eigenvalues --   -0.52687  -0.52463  -0.52405  -0.50098  -0.49838
 Alpha  occ. eigenvalues --   -0.48023  -0.47865  -0.46824  -0.46484  -0.45943
 Alpha  occ. eigenvalues --   -0.45775  -0.45759  -0.45548  -0.43824  -0.43802
 Alpha virt. eigenvalues --    0.19834   0.23122   0.23790   0.24553   0.25901
 Alpha virt. eigenvalues --    0.26947   0.27208   0.27609   0.27949   0.29257
 Alpha virt. eigenvalues --    0.31031   0.31497   0.31707   0.31923   0.31996

 Mulliken charges:
               1
     1  C   -0.298195
     2  C   -0.299799
     3  C   -0.475727
     4  H    0.149818
     5  H    0.148980
     6  H    0.152028
     7  H    0.152272
     8  H    0.155250
     9  H    0.155164
    10  H    0.160441
    11  C   -0.299209
    12  C   -0.300121
    13  C   -0.481650
    14  H    0.149902
    15  H    0.150374
    16  H    0.152418
    17  H    0.151444
    18  H    0.160730
    19  H    0.155878
    20  H    0.160340
    21  C   -0.297544
    22  C   -0.308533
    23  C   -0.475048
    24  H    0.149771
    25  H    0.149455
    26  H    0.151504
    27  H    0.160654
    28  H    0.155076
    29  H    0.154985
    30  H    0.160494
    31  C   -0.299357
    32  C   -0.299663
    33  C   -0.475577
    34  H    0.149698
    35  H    0.149143
    36  H    0.152322
    37  H    0.151979
    38  H    0.154431
    39  H    0.155344
    40  H    0.160528
 Sum of Mulliken charges =  -0.00000

 Dipole moment (field-independent basis, Debye):
    X=             -0.0104    Y=             -0.0142    Z=             -0.0076  Tot=              0.0192
 Quadrupole moment (field-independent basis, Debye-Ang):
   XX=            -84.8336   YY=            -85.3175   ZZ=            -84.4813
   XY=              1.9727   XZ=             -0.4215   YZ=             -0.3522

 Normal termination of Gaussian 16 at Wed May  5 23:03:44 2021.
