 Gaussian 16, Revision A.03,
 Gaussian 16:  EM64L-G16RevA.03 25-Dec-2016

 -------------
 #p 6-31g* mp2
 -------------

 ------------------------------------------------------
 Input file generated by CHIRIPA (05-May-2021 14:55:25)
 ------------------------------------------------------
 Symbolic Z-matrix:
 Charge =  0 Multiplicity = 1

                         Standard orientation:
 ---------------------------------------------------------------------
 Center     Atomic      Atomic             Coordinates (Angstroms)
 Number     Number       Type             X           Y           Z
 ---------------------------------------------------------------------
      1          6           0       -1.353924    1.124759    0.223224
      2          6           0       -2.293011    1.246987    1.252640
      3          6           0       -3.522209    0.585528    1.174592
      4          6           0       -3.780443   -0.193376    0.047688
      5          6           0       -2.865319   -0.334887   -0.994336
      6          6           0       -1.642567    0.335604   -0.895007
      7          1           0       -0.401557    1.642105    0.292118
      8          1           0       -2.071562    1.859176    2.122254
      9          1           0       -4.267317    0.662741    1.957069
     10          1           0       -3.114672   -0.952312   -1.848752
     11          1           0       -0.915156    0.238855   -1.695981
     12          7           0       -5.078329   -0.898414   -0.046202
     13          8           0       -5.281687   -1.578580   -1.049525
     14          8           0       -5.867677   -0.757507    0.885308
     15          6           0        5.096050   -0.181501    0.391417
     16          6           0        5.867267   -1.363713   -0.196449
     17          6           0        6.925784   -1.913458    0.760168
     18          1           0        5.804473    0.616020    0.654176
     19          1           0        4.616700   -0.495208    1.329077
     20          1           0        6.343881   -1.048256   -1.133433
     21          1           0        5.156907   -2.158438   -0.458017
     22          1           0        6.463003   -2.254921    1.691746
     23          1           0        7.656721   -1.138432    1.012491
     24          1           0        7.465058   -2.757933    0.319822
     25          6           0        4.034283    0.379074   -0.553111
     26          6           0        3.263066    1.561286    0.034755
     27          6           0        2.204549    2.111031   -0.921863
     28          1           0        4.513633    0.692781   -1.490771
     29          1           0        3.325861   -0.418448   -0.815871
     30          1           0        3.973426    2.356010    0.296322
     31          1           0        2.786451    1.245829    0.971740
     32          1           0        1.473611    1.336006   -1.174186
     33          1           0        2.667329    2.452494   -1.853440
     34          1           0        1.665275    2.955506   -0.481516
 ---------------------------------------------------------------------

 SCF Done:  E(RHF) =  -669.534966696     A.U. after   15 cycles
 E2 =    -0.2091637022D+01 EUMP2 =    -0.67162660371826D+03

 The electronic state is 1-A.
 Alpha  occ. eigenvalues --  -20.60707 -20.60702 -15.85761 -11.31106 -11.27687
 Alpha  occ. eigenvalues --  -11.27679 -11.27323 -11.26678 -11.26665 -11.22745
 Alpha  occ. eigenvalues --  -11.22556 -11.22278 -11.22162 -11.22060 -11.21524
 Alpha  occ. eigenvalues --   -1.59783  -1.39337  -1.19277  -1.09281  -1.08668
 Alpha  occ. eigenvalues --   -1.04685  -1.04425  -0.96904  -0.95504  -0.87923
 Alpha  occ. eigenvalues --   -0.86079  -0.82347  -0.80503  -0.79027  -0.77403
 Alpha  occ. eigenvalues --   -0.71979  -0.71107  -0.70410  -0.65916  -0.64928
 Alpha  occ. eigenvalues --   -0.64708  -0.62074  -0.61784  -0.60322  -0.58469
 Alpha  occ. eigenvalues --   -0.56299  -0.55060  -0.53553  -0.53316  -0.53007
 Alpha  occ. eigenvalues --   -0.52769  -0.50806  -0.48816  -0.48735  -0.48725
 Alpha  occ. eigenvalues --   -0.47516  -0.46582  -0.46466  -0.44747  -0.44647
 Alpha  occ. eigenvalues --   -0.37243  -0.36296
 Alpha virt. eigenvalues --    0.05136   0.11349   0.16618   0.19641   0.22520
 Alpha virt. eigenvalues --    0.23845   0.24751   0.26004   0.26598   0.27411
 Alpha virt. eigenvalues --    0.29230   0.30091   0.31082   0.31152   0.31540

 Mulliken charges:
               1
     1  C   -0.176563
     2  C   -0.220822
     3  C   -0.170628
     4  C    0.157954
     5  C   -0.170703
     6  C   -0.224602
     7  H    0.238688
     8  H    0.223228
     9  H    0.275194
    10  H    0.275319
    11  H    0.224347
    12  N    0.488047
    13  O   -0.460723
    14  O   -0.460677
    15  C   -0.299032
    16  C   -0.300365
    17  C   -0.476199
    18  H    0.151086
    19  H    0.150487
    20  H    0.152811
    21  H    0.152798
    22  H    0.155996
    23  H    0.155840
    24  H    0.162147
    25  C   -0.298991
    26  C   -0.301196
    27  C   -0.485607
    28  H    0.151892
    29  H    0.149508
    30  H    0.157142
    31  H    0.151118
    32  H    0.149165
    33  H    0.164747
    34  H    0.158593
 Sum of Mulliken charges =  -0.00000

 Dipole moment (field-independent basis, Debye):
    X=              4.8859    Y=              2.4969    Z=              0.3215  Tot=              5.4963
 Quadrupole moment (field-independent basis, Debye-Ang):
   XX=           -128.8472   YY=            -95.4161   ZZ=            -91.1142
   XY=             -9.9918   XZ=             -3.2164   YZ=              1.9920

 Normal termination of Gaussian 16 at Wed May  5 20:48:55 2021.
