 Gaussian 16, Revision A.03,
 Gaussian 16:  EM64L-G16RevA.03 25-Dec-2016

 -------------
 #p 6-31g* mp2
 -------------

 ------------------------------------------------------
 Input file generated by CHIRIPA (05-May-2021 14:51:13)
 ------------------------------------------------------
 Symbolic Z-matrix:
 Charge =  0 Multiplicity = 1

                         Standard orientation:
 ---------------------------------------------------------------------
 Center     Atomic      Atomic             Coordinates (Angstroms)
 Number     Number       Type             X           Y           Z
 ---------------------------------------------------------------------
      1          6           0       -3.976049    0.150930    0.303207
      2          6           0       -4.428564    0.459257   -1.124431
      3          6           0       -5.914848    0.807410   -1.211278
      4          1           0       -4.573005   -0.682395    0.698374
      5          1           0       -4.188357    1.018559    0.943159
      6          1           0       -4.214200   -0.408176   -1.761787
      7          1           0       -3.830330    1.291820   -1.516313
      8          1           0       -6.141057    1.686306   -0.598928
      9          1           0       -6.527109   -0.023349   -0.845797
     10          1           0       -6.216904    1.024254   -2.240648
     11          6           0       -2.492573   -0.198932    0.406278
     12          6           0       -2.040057   -0.507260    1.833916
     13          6           0       -0.553773   -0.855413    1.920764
     14          1           0       -2.280264   -1.066562   -0.233674
     15          1           0       -1.895616    0.634393    0.011111
     16          1           0       -2.638291   -1.339822    2.225798
     17          1           0       -2.254421    0.360174    2.471272
     18          1           0        0.058487   -0.024653    1.555282
     19          1           0       -0.327564   -1.734308    1.308413
     20          1           0       -0.251717   -1.072257    2.950133
     21          6           0        2.753515   -0.539206   -0.541999
     22          6           0        3.399769   -1.924553   -0.508019
     23          6           0        2.425308   -3.040850   -0.884983
     24          1           0        1.894889   -0.525236    0.143211
     25          1           0        2.353351   -0.353528   -1.548372
     26          1           0        3.799818   -2.107000    0.497611
     27          1           0        4.257072   -1.935169   -1.193244
     28          1           0        2.034866   -2.886244   -1.896049
     29          1           0        1.575013   -3.059052   -0.195586
     30          1           0        2.908110   -4.022590   -0.854189
     31          6           0        3.715106    0.587209   -0.167486
     32          6           0        3.068852    1.972556   -0.201467
     33          6           0        4.043313    3.088852    0.175498
     34          1           0        4.115270    0.401531    0.838887
     35          1           0        4.573732    0.573238   -0.852695
     36          1           0        2.211549    1.983171    0.483759
     37          1           0        2.668804    2.155003   -1.207096
     38          1           0        4.893607    3.107055   -0.513899
     39          1           0        4.433754    2.934245    1.186564
     40          1           0        3.560511    4.070592    0.144704
 ---------------------------------------------------------------------

 SCF Done:  E(RHF) =  -470.732903023     A.U. after   11 cycles
 E2 =    -0.1583425476D+01 EUMP2 =    -0.47231632849822D+03

 The electronic state is 1-A.
 Alpha  occ. eigenvalues --  -11.21659 -11.21609 -11.21597 -11.21523 -11.21424
 Alpha  occ. eigenvalues --  -11.21364 -11.21322 -11.21202 -11.21169 -11.21077
 Alpha  occ. eigenvalues --  -11.21063 -11.21027  -1.08461  -1.08361  -1.03576
 Alpha  occ. eigenvalues --   -1.03482  -0.96032  -0.95927  -0.87057  -0.86943
 Alpha  occ. eigenvalues --   -0.79675  -0.79529  -0.78308  -0.78125  -0.65099
 Alpha  occ. eigenvalues --   -0.64998  -0.60996  -0.60869  -0.59394  -0.59296
 Alpha  occ. eigenvalues --   -0.57660  -0.57530  -0.55421  -0.55122  -0.52724
 Alpha  occ. eigenvalues --   -0.52646  -0.52509  -0.52328  -0.50056  -0.49789
 Alpha  occ. eigenvalues --   -0.48109  -0.47811  -0.46702  -0.46545  -0.45987
 Alpha  occ. eigenvalues --   -0.45728  -0.45677  -0.45300  -0.43821  -0.43724
 Alpha virt. eigenvalues --    0.21101   0.23053   0.23145   0.24178   0.25580
 Alpha virt. eigenvalues --    0.26169   0.27129   0.27650   0.27701   0.29399
 Alpha virt. eigenvalues --    0.30261   0.31515   0.31760   0.31897   0.32481

 Mulliken charges:
               1
     1  C   -0.298325
     2  C   -0.299700
     3  C   -0.475729
     4  H    0.149677
     5  H    0.149508
     6  H    0.152079
     7  H    0.152077
     8  H    0.155173
     9  H    0.155190
    10  H    0.160306
    11  C   -0.298546
    12  C   -0.299580
    13  C   -0.483395
    14  H    0.149991
    15  H    0.150131
    16  H    0.152227
    17  H    0.152114
    18  H    0.158888
    19  H    0.158564
    20  H    0.160663
    21  C   -0.308353
    22  C   -0.298660
    23  C   -0.478707
    24  H    0.161967
    25  H    0.148451
    26  H    0.151717
    27  H    0.151423
    28  H    0.154978
    29  H    0.157355
    30  H    0.159978
    31  C   -0.297644
    32  C   -0.300747
    33  C   -0.475610
    34  H    0.149290
    35  H    0.149309
    36  H    0.151389
    37  H    0.151947
    38  H    0.155384
    39  H    0.155270
    40  H    0.159950
 Sum of Mulliken charges =  -0.00000

 Dipole moment (field-independent basis, Debye):
    X=             -0.0468    Y=             -0.0019    Z=              0.0224  Tot=              0.0519
 Quadrupole moment (field-independent basis, Debye-Ang):
   XX=            -86.2470   YY=            -84.7698   ZZ=            -83.9194
   XY=              0.0330   XZ=             -0.5651   YZ=             -0.1592

 Normal termination of Gaussian 16 at Wed May  5 23:11:33 2021.
