 Gaussian 16, Revision A.03,
 Gaussian 16:  EM64L-G16RevA.03 25-Dec-2016

 -------------
 #p 6-31g* mp2
 -------------

 ------------------------------------------------------
 Input file generated by CHIRIPA (05-May-2021 14:55:22)
 ------------------------------------------------------
 Symbolic Z-matrix:
 Charge =  0 Multiplicity = 1

                         Standard orientation:
 ---------------------------------------------------------------------
 Center     Atomic      Atomic             Coordinates (Angstroms)
 Number     Number       Type             X           Y           Z
 ---------------------------------------------------------------------
      1          6           0       -0.608818   -1.550850    0.554263
      2          6           0       -0.938346   -1.232883   -0.767413
      3          6           0       -2.066026   -0.456673   -1.050933
      4          6           0       -2.845421   -0.013139    0.016358
      5          6           0       -2.543293   -0.313174    1.343757
      6          6           0       -1.410929   -1.090792    1.603780
      7          1           0        0.269010   -2.154375    0.765382
      8          1           0       -0.317244   -1.588798   -1.584483
      9          1           0       -2.344243   -0.195722   -2.064796
     10          1           0       -3.181703    0.056076    2.137170
     11          1           0       -1.157436   -1.336179    2.631190
     12          7           0       -4.041725    0.809345   -0.271354
     13          8           0       -4.712107    1.187895    0.686730
     14          8           0       -4.286353    1.059884   -1.449498
     15          6           0        3.192835   -0.420230   -0.496204
     16          6           0        3.246705   -1.730307    0.290423
     17          6           0        2.850047   -2.942710   -0.552509
     18          1           0        2.177271   -0.278119   -0.890385
     19          1           0        3.858430   -0.495998   -1.367201
     20          1           0        2.582261   -1.651587    1.160444
     21          1           0        4.262209   -1.869221    0.682940
     22          1           0        3.518920   -3.049354   -1.412647
     23          1           0        1.829427   -2.830483   -0.932431
     24          1           0        2.895529   -3.868507    0.029463
     25          6           0        3.586700    0.800887    0.332935
     26          6           0        3.532830    2.110964   -0.453692
     27          6           0        3.929488    3.323367    0.389241
     28          1           0        2.921104    0.876654    1.203932
     29          1           0        4.602264    0.658774    0.727117
     30          1           0        2.517326    2.249878   -0.846208
     31          1           0        4.197273    2.032243   -1.323711
     32          1           0        4.950107    3.211139    0.769163
     33          1           0        3.260614    3.430010    1.249379
     34          1           0        3.884004    4.249163   -0.192732
 ---------------------------------------------------------------------

 SCF Done:  E(RHF) =  -669.534482490     A.U. after   15 cycles
 E2 =    -0.2093512412D+01 EUMP2 =    -0.67162799490137D+03

 The electronic state is 1-A.
 Alpha  occ. eigenvalues --  -20.60777 -20.60772 -15.85832 -11.31205 -11.27785
 Alpha  occ. eigenvalues --  -11.27779 -11.27451 -11.26784 -11.26771 -11.22790
 Alpha  occ. eigenvalues --  -11.22452 -11.22265 -11.22087 -11.22017 -11.21431
 Alpha  occ. eigenvalues --   -1.59853  -1.39406  -1.19382  -1.09281  -1.08761
 Alpha  occ. eigenvalues --   -1.04790  -1.04387  -0.96833  -0.95601  -0.87844
 Alpha  occ. eigenvalues --   -0.86189  -0.82441  -0.80471  -0.79006  -0.77487
 Alpha  occ. eigenvalues --   -0.72050  -0.71177  -0.70588  -0.65958  -0.65025
 Alpha  occ. eigenvalues --   -0.64768  -0.62185  -0.61729  -0.60229  -0.58406
 Alpha  occ. eigenvalues --   -0.56270  -0.55071  -0.53523  -0.53253  -0.53100
 Alpha  occ. eigenvalues --   -0.52875  -0.50801  -0.48820  -0.48805  -0.48746
 Alpha  occ. eigenvalues --   -0.47515  -0.46550  -0.46433  -0.44810  -0.44590
 Alpha  occ. eigenvalues --   -0.37332  -0.36388
 Alpha virt. eigenvalues --    0.05033   0.11128   0.16449   0.19320   0.22788
 Alpha virt. eigenvalues --    0.24104   0.24529   0.25949   0.26961   0.27914
 Alpha virt. eigenvalues --    0.29340   0.29682   0.30649   0.31562   0.31753

 Mulliken charges:
               1
     1  C   -0.174324
     2  C   -0.224321
     3  C   -0.171243
     4  C    0.158140
     5  C   -0.170457
     6  C   -0.220957
     7  H    0.236787
     8  H    0.225947
     9  H    0.275884
    10  H    0.275668
    11  H    0.223532
    12  N    0.488019
    13  O   -0.460353
    14  O   -0.460354
    15  C   -0.301220
    16  C   -0.304968
    17  C   -0.482503
    18  H    0.149672
    19  H    0.152255
    20  H    0.145255
    21  H    0.159187
    22  H    0.163866
    23  H    0.145571
    24  H    0.164123
    25  C   -0.298341
    26  C   -0.300763
    27  C   -0.476233
    28  H    0.150108
    29  H    0.150909
    30  H    0.154319
    31  H    0.152482
    32  H    0.155338
    33  H    0.156221
    34  H    0.162753
 Sum of Mulliken charges =  -0.00000

 Dipole moment (field-independent basis, Debye):
    X=              4.3900    Y=             -2.8288    Z=              1.0032  Tot=              5.3179
 Quadrupole moment (field-independent basis, Debye-Ang):
   XX=           -117.6859   YY=            -96.1441   ZZ=            -90.0779
   XY=              7.7529   XZ=             -4.4328   YZ=             -0.1530

 Normal termination of Gaussian 16 at Wed May  5 15:59:10 2021.
