 Gaussian 16, Revision A.03,
 Gaussian 16:  EM64L-G16RevA.03 25-Dec-2016

 -------------
 #p 6-31g* mp2
 -------------

 ------------------------------------------------------
 Input file generated by CHIRIPA (05-May-2021 14:53:13)
 ------------------------------------------------------
 Symbolic Z-matrix:
 Charge =  0 Multiplicity = 1

                         Standard orientation:
 ---------------------------------------------------------------------
 Center     Atomic      Atomic             Coordinates (Angstroms)
 Number     Number       Type             X           Y           Z
 ---------------------------------------------------------------------
      1          6           0       -3.469713    0.970620   -0.630210
      2          6           0       -2.493976    1.986632   -0.035533
      3          6           0       -2.494628    3.317491   -0.788266
      4          1           0       -3.211930    0.797589   -1.684038
      5          1           0       -4.482384    1.397030   -0.622088
      6          1           0       -1.483661    1.557892   -0.043502
      7          1           0       -2.753994    2.157120    1.017055
      8          1           0       -3.491181    3.770391   -0.769167
      9          1           0       -2.213630    3.167759   -1.835749
     10          1           0       -1.790096    4.028994   -0.346387
     11          6           0       -3.480476   -0.364869    0.111466
     12          6           0       -4.456213   -1.380881   -0.483211
     13          6           0       -4.455561   -2.711740    0.269522
     14          1           0       -2.467805   -0.791279    0.103344
     15          1           0       -3.738259   -0.191838    1.165294
     16          1           0       -4.196195   -1.551369   -1.535798
     17          1           0       -5.466527   -0.952141   -0.475242
     18          1           0       -4.736559   -2.562008    1.317006
     19          1           0       -3.459008   -3.164640    0.250423
     20          1           0       -5.160093   -3.423243   -0.172357
     21          6           0        4.862543   -0.338640   -1.117677
     22          6           0        4.761081    0.510285   -0.010630
     23          6           0        3.576013    0.574943    0.728276
     24          6           0        2.507293   -0.226759    0.330277
     25          6           0        2.577469   -1.082561   -0.767889
     26          6           0        3.772335   -1.130956   -1.492113
     27          1           0        5.786938   -0.382551   -1.685973
     28          1           0        5.606134    1.126746    0.282470
     29          1           0        3.470188    1.223329    1.589562
     30          1           0        1.718042   -1.685096   -1.035759
     31          1           0        3.848273   -1.791167   -2.351415
     32          7           0        1.247528   -0.166917    1.104752
     33          8           0        0.320368   -0.883335    0.733596
     34          8           0        1.211138    0.595272    2.068277
 ---------------------------------------------------------------------

 SCF Done:  E(RHF) =  -669.536225064     A.U. after   15 cycles
 E2 =    -0.2091723627D+01 EUMP2 =    -0.67162794869057D+03

 The electronic state is 1-A.
 Alpha  occ. eigenvalues --  -20.61040 -20.61035 -15.86067 -11.31357 -11.27919
 Alpha  occ. eigenvalues --  -11.27911 -11.27646 -11.26915 -11.26905 -11.20556
 Alpha  occ. eigenvalues --  -11.20383 -11.20248 -11.20210 -11.20122 -11.19879
 Alpha  occ. eigenvalues --   -1.60093  -1.39651  -1.19521  -1.08931  -1.07234
 Alpha  occ. eigenvalues --   -1.04913  -1.02469  -0.95777  -0.94928  -0.86315
 Alpha  occ. eigenvalues --   -0.85951  -0.82615  -0.78506  -0.77673  -0.76995
 Alpha  occ. eigenvalues --   -0.72284  -0.71406  -0.70630  -0.65179  -0.64915
 Alpha  occ. eigenvalues --   -0.63867  -0.62261  -0.59882  -0.58296  -0.56525
 Alpha  occ. eigenvalues --   -0.55417  -0.54228  -0.53246  -0.53004  -0.51675
 Alpha  occ. eigenvalues --   -0.51350  -0.49074  -0.49036  -0.48871  -0.46831
 Alpha  occ. eigenvalues --   -0.45542  -0.45170  -0.44578  -0.44248  -0.42674
 Alpha  occ. eigenvalues --   -0.37497  -0.36512
 Alpha virt. eigenvalues --    0.04826   0.11144   0.16312   0.21260   0.24016
 Alpha virt. eigenvalues --    0.25253   0.27200   0.27655   0.28140   0.28742
 Alpha virt. eigenvalues --    0.29151   0.30925   0.32305   0.32409   0.32761

 Mulliken charges:
               1
     1  C   -0.297087
     2  C   -0.299244
     3  C   -0.475562
     4  H    0.143382
     5  H    0.144129
     6  H    0.159246
     7  H    0.154309
     8  H    0.152280
     9  H    0.150159
    10  H    0.157847
    11  C   -0.308399
    12  C   -0.298429
    13  C   -0.474737
    14  H    0.176395
    15  H    0.148852
    16  H    0.146674
    17  H    0.147326
    18  H    0.155074
    19  H    0.157471
    20  H    0.154685
    21  C   -0.170432
    22  C   -0.218575
    23  C   -0.170376
    24  C    0.157600
    25  C   -0.170665
    26  C   -0.218510
    27  H    0.226274
    28  H    0.224096
    29  H    0.276106
    30  H    0.275374
    31  H    0.224045
    32  N    0.491764
    33  O   -0.463580
    34  O   -0.457494
 Sum of Mulliken charges =  -0.00000

 Dipole moment (field-independent basis, Debye):
    X=              4.8177    Y=             -0.2901    Z=             -2.5597  Tot=              5.4632
 Quadrupole moment (field-independent basis, Debye-Ang):
   XX=            -72.8421   YY=            -94.4234   ZZ=            -95.0894
   XY=             -0.2428   XZ=             -5.0564   YZ=              3.8932

 Normal termination of Gaussian 16 at Thu May  6 13:43:16 2021.
