 Gaussian 16, Revision A.03,
 Gaussian 16:  EM64L-G16RevA.03 25-Dec-2016

 -------------
 #p 6-31g* mp2
 -------------

 ------------------------------------------------------
 Input file generated by CHIRIPA (05-May-2021 14:57:24)
 ------------------------------------------------------
 Symbolic Z-matrix:
 Charge =  0 Multiplicity = 1

                         Standard orientation:
 ---------------------------------------------------------------------
 Center     Atomic      Atomic             Coordinates (Angstroms)
 Number     Number       Type             X           Y           Z
 ---------------------------------------------------------------------
      1          6           0       -2.889895    2.186261   -0.187298
      2          6           0       -2.397846    0.999800    0.366526
      3          6           0       -3.215107   -0.130213    0.465020
      4          6           0       -4.525229   -0.038093   -0.002297
      5          6           0       -5.044574    1.129628   -0.559072
      6          6           0       -4.209362    2.247280   -0.647518
      7          1           0       -2.248054    3.059281   -0.259908
      8          1           0       -1.373545    0.949515    0.724751
      9          1           0       -2.859860   -1.061419    0.889372
     10          1           0       -6.070030    1.149227   -0.907605
     11          1           0       -4.594186    3.167371   -1.078086
     12          7           0       -5.399928   -1.227844    0.096656
     13          8           0       -6.550447   -1.120911   -0.322282
     14          8           0       -4.918436   -2.244776    0.591279
     15          6           0        1.893988   -0.323731    0.409619
     16          6           0        2.452974   -0.832402   -0.767373
     17          6           0        3.829729   -0.746064   -0.994616
     18          6           0        4.621509   -0.141970   -0.019197
     19          6           0        4.094380    0.374233    1.163579
     20          6           0        2.715028    0.276905    1.369646
     21          1           0        0.823484   -0.395069    0.577922
     22          1           0        1.817771   -1.299387   -1.514693
     23          1           0        4.288773   -1.131565   -1.896884
     24          1           0        4.753157    0.834224    1.890106
     25          1           0        2.283669    0.672814    2.284649
     26          7           0        6.080393   -0.044751   -0.248559
     27          8           0        6.756361    0.492121    0.626354
     28          8           0        6.520273   -0.507262   -1.298905
 ---------------------------------------------------------------------

 SCF Done:  E(RHF) =  -868.336672368     A.U. after   16 cycles
 E2 =    -0.2599471817D+01 EUMP2 =    -0.87093614418519D+03

 The electronic state is 1-A.
 Alpha  occ. eigenvalues --  -20.61398 -20.61387 -20.61191 -20.61185 -15.86456
 Alpha  occ. eigenvalues --  -15.86247 -11.31940 -11.31740 -11.28608 -11.28493
 Alpha  occ. eigenvalues --  -11.28313 -11.28298 -11.28285 -11.28197 -11.27694
 Alpha  occ. eigenvalues --  -11.27500 -11.27421 -11.27365  -1.60469  -1.60263
 Alpha  occ. eigenvalues --   -1.40020  -1.39813  -1.20137  -1.19929  -1.09502
 Alpha  occ. eigenvalues --   -1.09328  -1.05578  -1.05339  -0.96313  -0.96139
 Alpha  occ. eigenvalues --   -0.86964  -0.86745  -0.83167  -0.82951  -0.78194
 Alpha  occ. eigenvalues --   -0.77957  -0.72670  -0.72464  -0.71796  -0.71587
 Alpha  occ. eigenvalues --   -0.71231  -0.71119  -0.65794  -0.65622  -0.65586
 Alpha  occ. eigenvalues --   -0.65336  -0.62936  -0.62672  -0.56106  -0.55891
 Alpha  occ. eigenvalues --   -0.53875  -0.53706  -0.53628  -0.53437  -0.49439
 Alpha  occ. eigenvalues --   -0.49418  -0.49234  -0.49210  -0.45399  -0.45189
 Alpha  occ. eigenvalues --   -0.38105  -0.37957  -0.37184  -0.36930
 Alpha virt. eigenvalues --    0.04371   0.04547   0.10460   0.10710   0.15761
 Alpha virt. eigenvalues --    0.15949   0.18064   0.21843   0.24673   0.26724
 Alpha virt. eigenvalues --    0.27569   0.28792   0.29979   0.31619   0.31967

 Mulliken charges:
               1
     1  C   -0.170405
     2  C   -0.221951
     3  C   -0.171832
     4  C    0.158995
     5  C   -0.169504
     6  C   -0.218343
     7  H    0.228325
     8  H    0.216534
     9  H    0.273318
    10  H    0.278246
    11  H    0.226527
    12  N    0.488096
    13  O   -0.457882
    14  O   -0.460228
    15  C   -0.174894
    16  C   -0.218427
    17  C   -0.170377
    18  C    0.159438
    19  C   -0.170434
    20  C   -0.219255
    21  H    0.220118
    22  H    0.226576
    23  H    0.277837
    24  H    0.277219
    25  H    0.222177
    26  N    0.487875
    27  O   -0.459161
    28  O   -0.458587
 Sum of Mulliken charges =  -0.00000

 Dipole moment (field-independent basis, Debye):
    X=             -2.0938    Y=              3.8957    Z=              0.3426  Tot=              4.4360
 Quadrupole moment (field-independent basis, Debye-Ang):
   XX=           -176.3411   YY=           -103.5304   ZZ=           -100.8981
   XY=            -22.3408   XZ=              7.9075   YZ=              0.9725

 Normal termination of Gaussian 16 at Wed May  5 17:53:32 2021.
