 Gaussian 16, Revision A.03,
 Gaussian 16:  EM64L-G16RevA.03 25-Dec-2016

 -------------
 #p 6-31g* mp2
 -------------

 ------------------------------------------------------
 Input file generated by CHIRIPA (05-May-2021 14:57:22)
 ------------------------------------------------------
 Symbolic Z-matrix:
 Charge =  0 Multiplicity = 1

                         Standard orientation:
 ---------------------------------------------------------------------
 Center     Atomic      Atomic             Coordinates (Angstroms)
 Number     Number       Type             X           Y           Z
 ---------------------------------------------------------------------
      1          6           0        1.939513    2.445455    0.943597
      2          6           0        3.040663    2.238967    0.106130
      3          6           0        3.330798    0.961966   -0.383400
      4          6           0        2.494922   -0.090590   -0.013633
      5          6           0        1.390475    0.083174    0.819009
      6          6           0        1.119379    1.368797    1.296742
      7          1           0        1.721524    3.440808    1.319293
      8          1           0        3.679325    3.073250   -0.169784
      9          1           0        4.176792    0.773905   -1.033281
     10          1           0        0.772105   -0.768112    1.076589
     11          1           0        0.263532    1.526202    1.946968
     12          7           0        2.791997   -1.447057   -0.525631
     13          8           0        2.040158   -2.357786   -0.185120
     14          8           0        3.771058   -1.573843   -1.257752
     15          6           0       -2.067692   -2.328961    1.112664
     16          6           0       -2.055175   -1.132304    1.836802
     17          6           0       -2.263605    0.090281    1.191518
     18          6           0       -2.482531    0.079327   -0.185159
     19          6           0       -2.500858   -1.096168   -0.934267
     20          6           0       -2.290100   -2.307112   -0.268125
     21          1           0       -1.904875   -3.274172    1.622038
     22          1           0       -1.882697   -1.146245    2.909230
     23          1           0       -2.259085    1.031484    1.727742
     24          1           0       -2.675392   -1.050382   -2.002377
     25          1           0       -2.300362   -3.234902   -0.833055
     26          7           0       -2.704417    1.367462   -0.879332
     27          8           0       -2.895097    1.330888   -2.092980
     28          8           0       -2.683451    2.389284   -0.196634
 ---------------------------------------------------------------------

 SCF Done:  E(RHF) =  -868.337827785     A.U. after   16 cycles
 E2 =    -0.2603255626D+01 EUMP2 =    -0.87094108341080D+03

 The electronic state is 1-A.
 Alpha  occ. eigenvalues --  -20.61205 -20.61174 -20.60859 -20.60829 -15.86246
 Alpha  occ. eigenvalues --  -15.85895 -11.31626 -11.31066 -11.28305 -11.28105
 Alpha  occ. eigenvalues --  -11.27860 -11.27647 -11.27575 -11.27340 -11.27264
 Alpha  occ. eigenvalues --  -11.27056 -11.26626 -11.26594  -1.60261  -1.59923
 Alpha  occ. eigenvalues --   -1.39819  -1.39482  -1.19816  -1.19239  -1.09163
 Alpha  occ. eigenvalues --   -1.08666  -1.05245  -1.04612  -0.96004  -0.95527
 Alpha  occ. eigenvalues --   -0.86598  -0.86024  -0.82847  -0.82379  -0.77924
 Alpha  occ. eigenvalues --   -0.77449  -0.72466  -0.72127  -0.71581  -0.71240
 Alpha  occ. eigenvalues --   -0.70866  -0.70338  -0.65441  -0.65216  -0.64900
 Alpha  occ. eigenvalues --   -0.64635  -0.62593  -0.61994  -0.55626  -0.55153
 Alpha  occ. eigenvalues --   -0.53573  -0.53303  -0.52878  -0.52621  -0.49232
 Alpha  occ. eigenvalues --   -0.49210  -0.48882  -0.48860  -0.45223  -0.44930
 Alpha  occ. eigenvalues --   -0.37779  -0.37209  -0.36904  -0.36053
 Alpha virt. eigenvalues --    0.04602   0.05074   0.10710   0.11485   0.16077
 Alpha virt. eigenvalues --    0.16629   0.20109   0.22191   0.25580   0.27559
 Alpha virt. eigenvalues --    0.28625   0.29042   0.30392   0.31355   0.32188

 Mulliken charges:
               1
     1  C   -0.167402
     2  C   -0.219041
     3  C   -0.169747
     4  C    0.156775
     5  C   -0.175530
     6  C   -0.218972
     7  H    0.228857
     8  H    0.224238
     9  H    0.275086
    10  H    0.278803
    11  H    0.216152
    12  N    0.488314
    13  O   -0.466059
    14  O   -0.459914
    15  C   -0.166542
    16  C   -0.232193
    17  C   -0.178538
    18  C    0.163139
    19  C   -0.169777
    20  C   -0.211370
    21  H    0.232476
    22  H    0.223889
    23  H    0.270044
    24  H    0.278931
    25  H    0.231099
    26  N    0.489131
    27  O   -0.456709
    28  O   -0.465138
 Sum of Mulliken charges =  -0.00000

 Dipole moment (field-independent basis, Debye):
    X=             -0.4275    Y=              0.0718    Z=              4.0198  Tot=              4.0432
 Quadrupole moment (field-independent basis, Debye-Ang):
   XX=           -111.6412   YY=           -104.7594   ZZ=           -101.6420
   XY=             26.4052   XZ=             -3.1665   YZ=              2.1958

 Normal termination of Gaussian 16 at Wed May  5 17:47:52 2021.
