 Gaussian 16, Revision A.03,
 Gaussian 16:  EM64L-G16RevA.03 25-Dec-2016

 -------------
 #p 6-31g* mp2
 -------------

 ------------------------------------------------------
 Input file generated by CHIRIPA (05-May-2021 14:55:21)
 ------------------------------------------------------
 Symbolic Z-matrix:
 Charge =  0 Multiplicity = 1

                         Standard orientation:
 ---------------------------------------------------------------------
 Center     Atomic      Atomic             Coordinates (Angstroms)
 Number     Number       Type             X           Y           Z
 ---------------------------------------------------------------------
      1          6           0        0.757401   -0.009525    2.018619
      2          6           0        1.960197    0.698329    2.112133
      3          6           0        2.966833    0.516760    1.159104
      4          6           0        2.736018   -0.384640    0.121081
      5          6           0        1.548431   -1.104651    0.000624
      6          6           0        0.555712   -0.907174    0.965020
      7          1           0       -0.019173    0.137701    2.763370
      8          1           0        2.119593    1.396106    2.929289
      9          1           0        3.907516    1.051735    1.207423
     10          1           0        1.418644   -1.793359   -0.825364
     11          1           0       -0.377397   -1.458268    0.889872
     12          7           0        3.794332   -0.585280   -0.893866
     13          8           0        3.566409   -1.385216   -1.798736
     14          8           0        4.831721    0.061195   -0.765292
     15          6           0       -3.837018   -0.002323   -0.628450
     16          6           0       -4.461071   -0.879006    0.457814
     17          6           0       -5.576202   -1.778323   -0.076511
     18          1           0       -4.620831    0.616120   -1.086831
     19          1           0       -3.440099   -0.645620   -1.425957
     20          1           0       -4.855464   -0.234302    1.253695
     21          1           0       -3.675648   -1.495294    0.913793
     22          1           0       -5.193229   -2.445171   -0.855772
     23          1           0       -6.379749   -1.177013   -0.513937
     24          1           0       -6.008277   -2.396391    0.716687
     25          6           0       -2.720666    0.902347   -0.109741
     26          6           0       -2.096614    1.779031   -1.196005
     27          6           0       -0.981481    2.678348   -0.661680
     28          1           0       -3.117585    1.545645    0.687766
     29          1           0       -1.936853    0.283905    0.348638
     30          1           0       -2.882037    2.395319   -1.651984
     31          1           0       -1.702221    1.134327   -1.991887
     32          1           0       -0.177936    2.077038   -0.224255
     33          1           0       -1.364454    3.345195    0.117580
     34          1           0       -0.549407    3.296415   -1.454878
 ---------------------------------------------------------------------

 SCF Done:  E(RHF) =  -669.534657424     A.U. after   15 cycles
 E2 =    -0.2093914241D+01 EUMP2 =    -0.67162857166515D+03

 The electronic state is 1-A.
 Alpha  occ. eigenvalues --  -20.60830 -20.60825 -15.85885 -11.31288 -11.27861
 Alpha  occ. eigenvalues --  -11.27858 -11.27598 -11.26873 -11.26863 -11.22342
 Alpha  occ. eigenvalues --  -11.22016 -11.21983 -11.21929 -11.21643 -11.21277
 Alpha  occ. eigenvalues --   -1.59904  -1.39457  -1.19475  -1.09031  -1.08843
 Alpha  occ. eigenvalues --   -1.04881  -1.04032  -0.96470  -0.95681  -0.87489
 Alpha  occ. eigenvalues --   -0.86278  -0.82510  -0.80115  -0.78860  -0.77551
 Alpha  occ. eigenvalues --   -0.72103  -0.71228  -0.70558  -0.65763  -0.65116
 Alpha  occ. eigenvalues --   -0.64819  -0.62226  -0.61442  -0.59848  -0.58088
 Alpha  occ. eigenvalues --   -0.55774  -0.55355  -0.53282  -0.53134  -0.53011
 Alpha  occ. eigenvalues --   -0.52823  -0.50410  -0.48867  -0.48855  -0.48408
 Alpha  occ. eigenvalues --   -0.47152  -0.46359  -0.46292  -0.44855  -0.44304
 Alpha  occ. eigenvalues --   -0.37378  -0.36449
 Alpha virt. eigenvalues --    0.04976   0.11026   0.16431   0.19693   0.22822
 Alpha virt. eigenvalues --    0.23739   0.25158   0.26464   0.27327   0.28111
 Alpha virt. eigenvalues --    0.29337   0.30412   0.31254   0.31441   0.31717

 Mulliken charges:
               1
     1  C   -0.169369
     2  C   -0.218406
     3  C   -0.170552
     4  C    0.158714
     5  C   -0.172888
     6  C   -0.218690
     7  H    0.227730
     8  H    0.224468
     9  H    0.276299
    10  H    0.276072
    11  H    0.225372
    12  N    0.488149
    13  O   -0.460180
    14  O   -0.459992
    15  C   -0.298704
    16  C   -0.298857
    17  C   -0.475851
    18  H    0.153061
    19  H    0.149692
    20  H    0.152898
    21  H    0.142858
    22  H    0.156255
    23  H    0.157821
    24  H    0.161167
    25  C   -0.303437
    26  C   -0.298339
    27  C   -0.482162
    28  H    0.148142
    29  H    0.145409
    30  H    0.153320
    31  H    0.153208
    32  H    0.162565
    33  H    0.151492
    34  H    0.162735
 Sum of Mulliken charges =  -0.00000

 Dipole moment (field-independent basis, Debye):
    X=             -3.6927    Y=              0.7226    Z=              3.5587  Tot=              5.1790
 Quadrupole moment (field-independent basis, Debye-Ang):
   XX=           -113.7763   YY=            -93.6158   ZZ=            -93.1783
   XY=              4.6004   XZ=             10.8926   YZ=              0.5381

 Normal termination of Gaussian 16 at Wed May  5 17:28:09 2021.
