 Gaussian 16, Revision A.03,
 Gaussian 16:  EM64L-G16RevA.03 25-Dec-2016

 -------------
 #p 6-31g* mp2
 -------------

 ------------------------------------------------------
 Input file generated by CHIRIPA (05-May-2021 14:57:23)
 ------------------------------------------------------
 Symbolic Z-matrix:
 Charge =  0 Multiplicity = 1

                         Standard orientation:
 ---------------------------------------------------------------------
 Center     Atomic      Atomic             Coordinates (Angstroms)
 Number     Number       Type             X           Y           Z
 ---------------------------------------------------------------------
      1          6           0        5.590574    0.085153    0.785434
      2          6           0        5.176612   -1.190086    0.386784
      3          6           0        3.913760   -1.381197   -0.181749
      4          6           0        3.086763   -0.269856   -0.337591
      5          6           0        3.470499    1.013152    0.049613
      6          6           0        4.737700    1.180770    0.615875
      7          1           0        6.573277    0.224489    1.226202
      8          1           0        5.836862   -2.042783    0.517254
      9          1           0        3.567956   -2.357454   -0.499178
     10          1           0        2.790165    1.843914   -0.093207
     11          1           0        5.056534    2.172290    0.924549
     12          7           0        1.747536   -0.459742   -0.938269
     13          8           0        1.037662    0.535601   -1.064793
     14          8           0        1.433082   -1.600323   -1.271184
     15          6           0       -1.688284    2.173019    0.193968
     16          6           0       -2.719253    2.101230   -0.748618
     17          6           0       -3.622192    1.033982   -0.733356
     18          6           0       -3.464022    0.051545    0.242906
     19          6           0       -2.447182    0.094958    1.195504
     20          6           0       -1.555773    1.171419    1.161316
     21          1           0       -0.991338    3.005660    0.174761
     22          1           0       -2.824581    2.877652   -1.501027
     23          1           0       -4.429458    0.953602   -1.451185
     24          1           0       -2.367667   -0.694104    1.933389
     25          1           0       -0.756065    1.224571    1.894588
     26          7           0       -4.413820   -1.083179    0.269082
     27          8           0       -4.252959   -1.935971    1.139430
     28          8           0       -5.301148   -1.098297   -0.581246
 ---------------------------------------------------------------------

 SCF Done:  E(RHF) =  -868.337282953     A.U. after   16 cycles
 E2 =    -0.2600451180D+01 EUMP2 =    -0.87093773413346D+03

 The electronic state is 1-A.
 Alpha  occ. eigenvalues --  -20.61319 -20.61303 -20.59793 -20.59788 -15.86347
 Alpha  occ. eigenvalues --  -15.84845 -11.31739 -11.30015 -11.28358 -11.28254
 Alpha  occ. eigenvalues --  -11.28011 -11.27333 -11.27268 -11.26613 -11.26609
 Alpha  occ. eigenvalues --  -11.26347 -11.25611 -11.25576  -1.60378  -1.58870
 Alpha  occ. eigenvalues --   -1.39938  -1.38431  -1.19903  -1.18179  -1.09287
 Alpha  occ. eigenvalues --   -1.07613  -1.05307  -1.03595  -0.96125  -0.94488
 Alpha  occ. eigenvalues --   -0.86702  -0.85018  -0.82960  -0.81354  -0.78017
 Alpha  occ. eigenvalues --   -0.76421  -0.72583  -0.71710  -0.71079  -0.71002
 Alpha  occ. eigenvalues --   -0.70181  -0.69351  -0.65553  -0.65301  -0.63873
 Alpha  occ. eigenvalues --   -0.63660  -0.62660  -0.60993  -0.55786  -0.54141
 Alpha  occ. eigenvalues --   -0.53637  -0.53396  -0.51872  -0.51745  -0.49341
 Alpha  occ. eigenvalues --   -0.49299  -0.47836  -0.47818  -0.45338  -0.43883
 Alpha  occ. eigenvalues --   -0.37877  -0.36914  -0.36031  -0.35145
 Alpha virt. eigenvalues --    0.04503   0.06161   0.10737   0.12502   0.16037
 Alpha virt. eigenvalues --    0.17693   0.20793   0.22290   0.26672   0.27542
 Alpha virt. eigenvalues --    0.28256   0.29146   0.30688   0.31668   0.32425

 Mulliken charges:
               1
     1  C   -0.170732
     2  C   -0.218131
     3  C   -0.170677
     4  C    0.158335
     5  C   -0.172639
     6  C   -0.218058
     7  H    0.227321
     8  H    0.225843
     9  H    0.278115
    10  H    0.269052
    11  H    0.223418
    12  N    0.489346
    13  O   -0.465104
    14  O   -0.455149
    15  C   -0.151534
    16  C   -0.216933
    17  C   -0.169537
    18  C    0.159776
    19  C   -0.169635
    20  C   -0.209439
    21  H    0.218315
    22  H    0.219106
    23  H    0.272262
    24  H    0.271135
    25  H    0.213858
    26  N    0.488593
    27  O   -0.463588
    28  O   -0.463321
 Sum of Mulliken charges =  -0.00000

 Dipole moment (field-independent basis, Debye):
    X=              8.3783    Y=              4.5842    Z=              1.9083  Tot=              9.7392
 Quadrupole moment (field-independent basis, Debye-Ang):
   XX=            -99.0774   YY=            -99.9249   ZZ=           -104.4895
   XY=            -15.3883   XZ=              8.5903   YZ=             -1.0360

 Normal termination of Gaussian 16 at Fri May  7 03:23:28 2021.
