 Gaussian 16, Revision A.03,
 Gaussian 16:  EM64L-G16RevA.03 25-Dec-2016

 -------------
 #p 6-31g* mp2
 -------------

 ------------------------------------------------------
 Input file generated by CHIRIPA (05-May-2021 14:53:16)
 ------------------------------------------------------
 Symbolic Z-matrix:
 Charge =  0 Multiplicity = 1

                         Standard orientation:
 ---------------------------------------------------------------------
 Center     Atomic      Atomic             Coordinates (Angstroms)
 Number     Number       Type             X           Y           Z
 ---------------------------------------------------------------------
      1          6           0        3.963697   -0.064046    0.226756
      2          6           0        4.205088    0.774102   -1.029120
      3          6           0        5.517817    1.556129   -0.974627
      4          1           0        3.963107    0.595389    1.105443
      5          1           0        4.801980   -0.761810    0.360175
      6          1           0        3.365923    1.469123   -1.160896
      7          1           0        4.204912    0.112621   -1.904939
      8          1           0        6.367972    0.874744   -0.867146
      9          1           0        5.524217    2.238954   -0.118876
     10          1           0        5.670314    2.148320   -1.882324
     11          6           0        2.655298   -0.851612    0.187248
     12          6           0        2.413908   -1.689760    1.443124
     13          6           0        1.101178   -2.471787    1.388631
     14          1           0        1.817015   -0.153848    0.053829
     15          1           0        2.655888   -1.511047   -0.691439
     16          1           0        2.414083   -1.028279    2.318943
     17          1           0        3.253072   -2.384781    1.574900
     18          1           0        1.094778   -3.154612    0.532880
     19          1           0        0.251023   -1.790402    1.281150
     20          1           0        0.948681   -3.063978    2.296328
     21          6           0       -3.147015   -1.887280   -1.167121
     22          6           0       -4.161298   -1.086801   -0.631414
     23          6           0       -3.861791    0.158858   -0.071792
     24          6           0       -2.531264    0.574713   -0.064522
     25          6           0       -1.498488   -0.199944   -0.590420
     26          6           0       -1.821184   -1.442082   -1.144954
     27          1           0       -3.388686   -2.853571   -1.599872
     28          1           0       -5.191842   -1.429985   -0.647260
     29          1           0       -4.627408    0.798751    0.349851
     30          1           0       -0.480516    0.169162   -0.560186
     31          1           0       -1.031423   -2.061629   -1.560265
     32          7           0       -2.201914    1.891573    0.525232
     33          8           0       -1.021846    2.235145    0.519446
     34          8           0       -3.130075    2.555221    0.982098
 ---------------------------------------------------------------------

 SCF Done:  E(RHF) =  -669.535226988     A.U. after   15 cycles
 E2 =    -0.2092875792D+01 EUMP2 =    -0.67162810278060D+03

 The electronic state is 1-A.
 Alpha  occ. eigenvalues --  -20.60804 -20.60795 -15.85853 -11.31191 -11.27751
 Alpha  occ. eigenvalues --  -11.27720 -11.27480 -11.26771 -11.26742 -11.21835
 Alpha  occ. eigenvalues --  -11.21730 -11.21589 -11.21447 -11.21409 -11.20991
 Alpha  occ. eigenvalues --   -1.59876  -1.39431  -1.19363  -1.08759  -1.08603
 Alpha  occ. eigenvalues --   -1.04763  -1.03664  -0.96139  -0.95601  -0.87157
 Alpha  occ. eigenvalues --   -0.86157  -0.82434  -0.79749  -0.78455  -0.77465
 Alpha  occ. eigenvalues --   -0.72073  -0.71199  -0.70476  -0.65265  -0.65010
 Alpha  occ. eigenvalues --   -0.64722  -0.62129  -0.61032  -0.59507  -0.57762
 Alpha  occ. eigenvalues --   -0.55456  -0.55252  -0.53168  -0.52900  -0.52793
 Alpha  occ. eigenvalues --   -0.52469  -0.50073  -0.48831  -0.48827  -0.48054
 Alpha  occ. eigenvalues --   -0.46755  -0.45960  -0.45853  -0.44839  -0.43934
 Alpha  occ. eigenvalues --   -0.37341  -0.36305
 Alpha virt. eigenvalues --    0.05012   0.11237   0.16479   0.20163   0.23031
 Alpha virt. eigenvalues --    0.24102   0.24900   0.26339   0.27486   0.28357
 Alpha virt. eigenvalues --    0.29772   0.30479   0.31576   0.31690   0.32101

 Mulliken charges:
               1
     1  C   -0.297200
     2  C   -0.301501
     3  C   -0.476001
     4  H    0.155155
     5  H    0.149423
     6  H    0.156874
     7  H    0.148759
     8  H    0.154061
     9  H    0.157977
    10  H    0.160843
    11  C   -0.307256
    12  C   -0.298987
    13  C   -0.481745
    14  H    0.153169
    15  H    0.144199
    16  H    0.158050
    17  H    0.152617
    18  H    0.147333
    19  H    0.159503
    20  H    0.162957
    21  C   -0.170994
    22  C   -0.218619
    23  C   -0.170454
    24  C    0.157390
    25  C   -0.180113
    26  C   -0.219644
    27  H    0.225765
    28  H    0.223498
    29  H    0.275552
    30  H    0.288309
    31  H    0.225868
    32  N    0.487169
    33  O   -0.462023
    34  O   -0.459934
 Sum of Mulliken charges =  -0.00000

 Dipole moment (field-independent basis, Debye):
    X=             -1.1126    Y=             -4.5582    Z=             -2.0079  Tot=              5.1036
 Quadrupole moment (field-independent basis, Debye-Ang):
   XX=            -84.4154   YY=           -100.5751   ZZ=            -94.7503
   XY=              9.8353   XZ=              4.4137   YZ=             -0.2759

 Normal termination of Gaussian 16 at Thu May  6 18:51:25 2021.
