 Gaussian 16, Revision A.03,
 Gaussian 16:  EM64L-G16RevA.03 25-Dec-2016

 -------------
 #p 6-31g* mp2
 -------------

 ------------------------------------------------------
 Input file generated by CHIRIPA (05-May-2021 14:51:09)
 ------------------------------------------------------
 Symbolic Z-matrix:
 Charge =  0 Multiplicity = 1

                         Standard orientation:
 ---------------------------------------------------------------------
 Center     Atomic      Atomic             Coordinates (Angstroms)
 Number     Number       Type             X           Y           Z
 ---------------------------------------------------------------------
      1          6           0       -3.118539   -0.359304   -0.004224
      2          6           0       -2.484780   -1.145329    1.144036
      3          6           0       -1.158603   -1.797871    0.752581
      4          1           0       -3.277443   -1.032893   -0.857437
      5          1           0       -2.414504    0.413377   -0.342888
      6          1           0       -3.190350   -1.915398    1.481351
      7          1           0       -2.327542   -0.469834    1.994682
      8          1           0       -0.434945   -1.039832    0.435884
      9          1           0       -1.302655   -2.493609   -0.080364
     10          1           0       -0.723024   -2.354577    1.588171
     11          6           0       -4.444900    0.298874    0.371668
     12          6           0       -5.078658    1.084899   -0.776592
     13          6           0       -6.404836    1.737441   -0.385138
     14          1           0       -5.148935   -0.473807    0.710332
     15          1           0       -4.285996    0.972463    1.224881
     16          1           0       -5.235897    0.409404   -1.627238
     17          1           0       -4.373089    1.854968   -1.113907
     18          1           0       -6.260784    2.433179    0.447807
     19          1           0       -7.128494    0.979402   -0.068440
     20          1           0       -6.840415    2.294147   -1.220727
     21          6           0        3.683851   -0.714770   -0.046421
     22          6           0        2.575056   -1.346101   -0.889024
     23          6           0        2.391286   -2.836812   -0.603009
     24          1           0        4.627067   -1.245041   -0.236424
     25          1           0        3.453096   -0.859098    1.018152
     26          1           0        2.807137   -1.199415   -1.951679
     27          1           0        1.634410   -0.814142   -0.697138
     28          1           0        2.135529   -2.998538    0.449148
     29          1           0        3.314919   -3.386000   -0.812523
     30          1           0        1.593743   -3.267906   -1.216151
     31          6           0        3.879588    0.775200   -0.321023
     32          6           0        4.988383    1.406531    0.521581
     33          6           0        5.172152    2.897242    0.235566
     34          1           0        4.110343    0.919528   -1.385596
     35          1           0        2.936371    1.305471   -0.131019
     36          1           0        5.929029    0.874572    0.329694
     37          1           0        4.756302    1.259844    1.584236
     38          1           0        4.248520    3.446430    0.445079
     39          1           0        5.427910    3.058969   -0.816591
     40          1           0        5.969696    3.328336    0.848707
 ---------------------------------------------------------------------

 SCF Done:  E(RHF) =  -470.733051260     A.U. after   11 cycles
 E2 =    -0.1582883443D+01 EUMP2 =    -0.47231593470268D+03

 The electronic state is 1-A.
 Alpha  occ. eigenvalues --  -11.21615 -11.21612 -11.21590 -11.21513 -11.21422
 Alpha  occ. eigenvalues --  -11.21378 -11.21363 -11.21311 -11.21080 -11.21073
 Alpha  occ. eigenvalues --  -11.21067 -11.20964  -1.08449  -1.08391  -1.03563
 Alpha  occ. eigenvalues --   -1.03465  -0.96026  -0.95901  -0.87027  -0.86934
 Alpha  occ. eigenvalues --   -0.79621  -0.79541  -0.78269  -0.78200  -0.65114
 Alpha  occ. eigenvalues --   -0.65000  -0.61055  -0.60794  -0.59367  -0.59305
 Alpha  occ. eigenvalues --   -0.57673  -0.57474  -0.55346  -0.55175  -0.52701
 Alpha  occ. eigenvalues --   -0.52619  -0.52404  -0.52342  -0.50014  -0.49818
 Alpha  occ. eigenvalues --   -0.47988  -0.47823  -0.46766  -0.46454  -0.45857
 Alpha  occ. eigenvalues --   -0.45754  -0.45714  -0.45543  -0.43796  -0.43736
 Alpha virt. eigenvalues --    0.21432   0.23012   0.23609   0.24830   0.25875
 Alpha virt. eigenvalues --    0.26668   0.27019   0.27489   0.27765   0.29215
 Alpha virt. eigenvalues --    0.29931   0.30647   0.31521   0.32193   0.32522

 Mulliken charges:
               1
     1  C   -0.298257
     2  C   -0.300420
     3  C   -0.478747
     4  H    0.149767
     5  H    0.149138
     6  H    0.151998
     7  H    0.151593
     8  H    0.159200
     9  H    0.155888
    10  H    0.160132
    11  C   -0.298257
    12  C   -0.299665
    13  C   -0.475716
    14  H    0.149618
    15  H    0.149593
    16  H    0.151997
    17  H    0.151942
    18  H    0.155167
    19  H    0.155208
    20  H    0.160309
    21  C   -0.298220
    22  C   -0.304707
    23  C   -0.474806
    24  H    0.149555
    25  H    0.149444
    26  H    0.151526
    27  H    0.156489
    28  H    0.156489
    29  H    0.153989
    30  H    0.160495
    31  C   -0.298058
    32  C   -0.299611
    33  C   -0.475669
    34  H    0.149554
    35  H    0.148783
    36  H    0.152008
    37  H    0.151873
    38  H    0.154977
    39  H    0.155184
    40  H    0.160220
 Sum of Mulliken charges =  -0.00000

 Dipole moment (field-independent basis, Debye):
    X=             -0.0199    Y=             -0.0168    Z=              0.0015  Tot=              0.0261
 Quadrupole moment (field-independent basis, Debye-Ang):
   XX=            -85.1656   YY=            -85.4721   ZZ=            -84.2171
   XY=              0.5264   XZ=             -0.1664   YZ=              0.4499

 Normal termination of Gaussian 16 at Thu May  6 03:44:34 2021.
