 Gaussian 16, Revision A.03,
 Gaussian 16:  EM64L-G16RevA.03 25-Dec-2016

 -------------
 #p 6-31g* mp2
 -------------

 ------------------------------------------------------
 Input file generated by CHIRIPA (05-May-2021 14:55:24)
 ------------------------------------------------------
 Symbolic Z-matrix:
 Charge =  0 Multiplicity = 1

                         Standard orientation:
 ---------------------------------------------------------------------
 Center     Atomic      Atomic             Coordinates (Angstroms)
 Number     Number       Type             X           Y           Z
 ---------------------------------------------------------------------
      1          6           0       -4.576675   -0.454068   -1.453498
      2          6           0       -3.304440   -0.985201   -1.689800
      3          6           0       -2.261065   -0.757200   -0.787619
      4          6           0       -2.526346    0.009923    0.345711
      5          6           0       -3.783076    0.552680    0.609023
      6          6           0       -4.811518    0.311827   -0.306861
      7          1           0       -5.381394   -0.636177   -2.159656
      8          1           0       -3.119163   -1.580379   -2.579452
      9          1           0       -1.266589   -1.156406   -0.945958
     10          1           0       -3.937265    1.142043    1.504733
     11          1           0       -5.798551    0.725567   -0.120767
     12          7           0       -1.429676    0.258100    1.308064
     13          8           0       -1.689143    0.937263    2.299049
     14          8           0       -0.331404   -0.231240    1.053148
     15          6           0        3.280290    0.748532   -0.023210
     16          6           0        3.584580    1.805344   -1.085538
     17          6           0        3.209406    3.218441   -0.638108
     18          1           0        2.210601    0.784331    0.224640
     19          1           0        3.823300    0.998509    0.898770
     20          1           0        3.042248    1.552691   -2.005679
     21          1           0        4.653632    1.766896   -1.331026
     22          1           0        3.760502    3.495158    0.266504
     23          1           0        2.139962    3.279737   -0.411982
     24          1           0        3.435345    3.958039   -1.412580
     25          6           0        3.649861   -0.669224   -0.455776
     26          6           0        3.345571   -1.726036    0.606552
     27          6           0        3.720746   -3.139133    0.159121
     28          1           0        3.106851   -0.919201   -1.377757
     29          1           0        4.719550   -0.705023   -0.703626
     30          1           0        2.276519   -1.687587    0.852039
     31          1           0        3.887903   -1.473383    1.526691
     32          1           0        4.790190   -3.200428   -0.067005
     33          1           0        3.169650   -3.415849   -0.745491
     34          1           0        3.494807   -3.878731    0.933593
 ---------------------------------------------------------------------

 SCF Done:  E(RHF) =  -669.536308474     A.U. after   15 cycles
 E2 =    -0.2091645900D+01 EUMP2 =    -0.67162795437348D+03

 The electronic state is 1-A.
 Alpha  occ. eigenvalues --  -20.61085 -20.61065 -15.86104 -11.31376 -11.27937
 Alpha  occ. eigenvalues --  -11.27929 -11.27661 -11.26930 -11.26920 -11.20748
 Alpha  occ. eigenvalues --  -11.20449 -11.20389 -11.20305 -11.20299 -11.20092
 Alpha  occ. eigenvalues --   -1.60131  -1.39691  -1.19540  -1.08953  -1.07392
 Alpha  occ. eigenvalues --   -1.04929  -1.02608  -0.95803  -0.95075  -0.86332
 Alpha  occ. eigenvalues --   -0.86098  -0.82643  -0.78647  -0.77713  -0.77156
 Alpha  occ. eigenvalues --   -0.72332  -0.71439  -0.70649  -0.65203  -0.64931
 Alpha  occ. eigenvalues --   -0.64010  -0.62278  -0.60015  -0.58443  -0.56675
 Alpha  occ. eigenvalues --   -0.55434  -0.54376  -0.53263  -0.53020  -0.51812
 Alpha  occ. eigenvalues --   -0.51500  -0.49114  -0.49082  -0.49011  -0.46981
 Alpha  occ. eigenvalues --   -0.45709  -0.45137  -0.44754  -0.44444  -0.42822
 Alpha  occ. eigenvalues --   -0.37514  -0.36528
 Alpha virt. eigenvalues --    0.04792   0.11128   0.16274   0.21134   0.23720
 Alpha virt. eigenvalues --    0.25096   0.27015   0.27404   0.28102   0.28649
 Alpha virt. eigenvalues --    0.29146   0.30986   0.32054   0.32476   0.32668

 Mulliken charges:
               1
     1  C   -0.170430
     2  C   -0.218467
     3  C   -0.170458
     4  C    0.157254
     5  C   -0.170464
     6  C   -0.218551
     7  H    0.226368
     8  H    0.224214
     9  H    0.275298
    10  H    0.276086
    11  H    0.224149
    12  N    0.495181
    13  O   -0.457311
    14  O   -0.467129
    15  C   -0.309093
    16  C   -0.298278
    17  C   -0.474684
    18  H    0.174860
    19  H    0.147675
    20  H    0.146209
    21  H    0.148030
    22  H    0.155486
    23  H    0.156566
    24  H    0.155388
    25  C   -0.295011
    26  C   -0.307555
    27  C   -0.474563
    28  H    0.141699
    29  H    0.144322
    30  H    0.173258
    31  H    0.150605
    32  H    0.151892
    33  H    0.149079
    34  H    0.158374
 Sum of Mulliken charges =  -0.00000

 Dipole moment (field-independent basis, Debye):
    X=             -4.2545    Y=             -0.8362    Z=             -3.1990  Tot=              5.3883
 Quadrupole moment (field-independent basis, Debye-Ang):
   XX=            -73.8660   YY=            -95.8136   ZZ=            -95.9300
   XY=              0.7623   XZ=              6.3731   YZ=              1.5033

 Normal termination of Gaussian 16 at Thu May  6 19:20:31 2021.
