 Gaussian 16, Revision A.03,
 Gaussian 16:  EM64L-G16RevA.03 25-Dec-2016

 -------------
 #p 6-31g* mp2
 -------------

 ------------------------------------------------------
 Input file generated by CHIRIPA (05-May-2021 14:53:18)
 ------------------------------------------------------
 Symbolic Z-matrix:
 Charge =  0 Multiplicity = 1

                         Standard orientation:
 ---------------------------------------------------------------------
 Center     Atomic      Atomic             Coordinates (Angstroms)
 Number     Number       Type             X           Y           Z
 ---------------------------------------------------------------------
      1          6           0        2.925294    1.235444    0.218066
      2          6           0        2.228541    1.918972   -0.958925
      3          6           0        1.751625    3.332468   -0.623700
      4          1           0        2.235965    1.198343    1.072697
      5          1           0        3.781773    1.847203    0.533644
      6          1           0        1.374453    1.305410   -1.273079
      7          1           0        2.919543    1.954279   -1.810914
      8          1           0        2.596131    3.964683   -0.330929
      9          1           0        1.042262    3.312127    0.209962
     10          1           0        1.256460    3.802532   -1.479101
     11          6           0        3.407759   -0.178341   -0.101567
     12          6           0        4.104513   -0.861869    1.075425
     13          6           0        4.581429   -2.275365    0.740199
     14          1           0        2.551280   -0.790100   -0.417145
     15          1           0        4.097089   -0.141240   -0.956197
     16          1           0        3.413510   -0.897176    1.927413
     17          1           0        4.958600   -0.248307    1.389579
     18          1           0        5.290792   -2.255025   -0.093462
     19          1           0        3.736923   -2.907580    0.447429
     20          1           0        5.076594   -2.745429    1.595600
     21          6           0       -3.933598    1.422841    0.884545
     22          6           0       -2.607622    1.694073    0.531358
     23          6           0       -1.789671    0.684634    0.015086
     24          6           0       -2.332726   -0.590406   -0.135421
     25          6           0       -3.649893   -0.891929    0.207281
     26          6           0       -4.449593    0.132980    0.721666
     27          1           0       -4.561913    2.213005    1.284865
     28          1           0       -2.204216    2.694864    0.656763
     29          1           0       -0.759671    0.867007   -0.266445
     30          1           0       -4.023807   -1.899391    0.070799
     31          1           0       -5.478999   -0.080557    0.995106
     32          7           0       -1.476459   -1.667243   -0.680977
     33          8           0       -1.978717   -2.782261   -0.803889
     34          8           0       -0.319271   -1.375859   -0.975340
 ---------------------------------------------------------------------

 SCF Done:  E(RHF) =  -669.536073664     A.U. after   15 cycles
 E2 =    -0.2092632076D+01 EUMP2 =    -0.67162870574042D+03

 The electronic state is 1-A.
 Alpha  occ. eigenvalues --  -20.60968 -20.60954 -15.85999 -11.31274 -11.27838
 Alpha  occ. eigenvalues --  -11.27811 -11.27567 -11.26839 -11.26819 -11.21543
 Alpha  occ. eigenvalues --  -11.21404 -11.21116 -11.20983 -11.20582 -11.20371
 Alpha  occ. eigenvalues --   -1.60024  -1.39582  -1.19442  -1.08854  -1.08036
 Alpha  occ. eigenvalues --   -1.04832  -1.03233  -0.95704  -0.95682  -0.86700
 Alpha  occ. eigenvalues --   -0.86236  -0.82539  -0.79319  -0.77800  -0.77552
 Alpha  occ. eigenvalues --   -0.72227  -0.71336  -0.70563  -0.65104  -0.64942
 Alpha  occ. eigenvalues --   -0.64590  -0.62210  -0.60596  -0.59095  -0.57262
 Alpha  occ. eigenvalues --   -0.55347  -0.54972  -0.53167  -0.52929  -0.52423
 Alpha  occ. eigenvalues --   -0.52089  -0.49629  -0.48990  -0.48963  -0.47611
 Alpha  occ. eigenvalues --   -0.46357  -0.45339  -0.45190  -0.44917  -0.43424
 Alpha  occ. eigenvalues --   -0.37421  -0.36430
 Alpha virt. eigenvalues --    0.04909   0.11211   0.16413   0.19242   0.23144
 Alpha virt. eigenvalues --    0.24329   0.26338   0.26549   0.27921   0.28391
 Alpha virt. eigenvalues --    0.29453   0.30977   0.31649   0.31815   0.32622

 Mulliken charges:
               1
     1  C   -0.296456
     2  C   -0.311314
     3  C   -0.477057
     4  H    0.144125
     5  H    0.147565
     6  H    0.161257
     7  H    0.156718
     8  H    0.158849
     9  H    0.143580
    10  H    0.159755
    11  C   -0.309782
    12  C   -0.298508
    13  C   -0.476851
    14  H    0.177088
    15  H    0.147240
    16  H    0.150025
    17  H    0.147541
    18  H    0.153741
    19  H    0.162948
    20  H    0.157030
    21  C   -0.170111
    22  C   -0.223616
    23  C   -0.177552
    24  C    0.155173
    25  C   -0.169523
    26  C   -0.219152
    27  H    0.226098
    28  H    0.225548
    29  H    0.290805
    30  H    0.275728
    31  H    0.223758
    32  N    0.491981
    33  O   -0.458538
    34  O   -0.468093
 Sum of Mulliken charges =  -0.00000

 Dipole moment (field-independent basis, Debye):
    X=             -3.0970    Y=              3.6122    Z=              1.8107  Tot=              5.0910
 Quadrupole moment (field-independent basis, Debye-Ang):
   XX=            -77.5393   YY=            -98.6712   ZZ=            -96.1043
   XY=             -3.7794   XZ=             -5.2335   YZ=             -2.0996

 Normal termination of Gaussian 16 at Thu May  6 12:21:03 2021.
