 Gaussian 16, Revision A.03,
 Gaussian 16:  EM64L-G16RevA.03 25-Dec-2016

 -------------
 #p 6-31g* mp2
 -------------

 ------------------------------------------------------
 Input file generated by CHIRIPA (05-May-2021 14:57:27)
 ------------------------------------------------------
 Symbolic Z-matrix:
 Charge =  0 Multiplicity = 1

                         Standard orientation:
 ---------------------------------------------------------------------
 Center     Atomic      Atomic             Coordinates (Angstroms)
 Number     Number       Type             X           Y           Z
 ---------------------------------------------------------------------
      1          6           0        2.026273    2.697237   -0.358584
      2          6           0        1.217128    2.131635    0.632325
      3          6           0        1.389389    0.797726    1.013847
      4          6           0        2.384870    0.055072    0.380781
      5          6           0        3.206949    0.590054   -0.609810
      6          6           0        3.016855    1.926001   -0.975401
      7          1           0        1.885530    3.734242   -0.648772
      8          1           0        0.447040    2.728206    1.113066
      9          1           0        0.777014    0.334672    1.778043
     10          1           0        3.966289   -0.029731   -1.070991
     11          1           0        3.646718    2.362615   -1.745262
     12          7           0        2.576675   -1.358157    0.776249
     13          8           0        3.460722   -1.991250    0.203282
     14          8           0        1.839333   -1.805992    1.651696
     15          6           0       -3.976196    1.365082    0.684074
     16          6           0       -4.231058   -0.007376    0.773094
     17          6           0       -3.338800   -0.932374    0.222819
     18          6           0       -2.196359   -0.447803   -0.412249
     19          6           0       -1.914569    0.913401   -0.517182
     20          6           0       -2.820802    1.820287    0.040355
     21          1           0       -4.674751    2.076608    1.114360
     22          1           0       -5.127546   -0.363766    1.272433
     23          1           0       -3.511518   -2.000366    0.277406
     24          1           0       -1.012420    1.238418   -1.021075
     25          1           0       -2.620296    2.885582   -0.030283
     26          7           0       -1.244368   -1.417469   -0.998644
     27          8           0       -0.245041   -0.965023   -1.552965
     28          8           0       -1.515552   -2.611580   -0.892834
 ---------------------------------------------------------------------

 SCF Done:  E(RHF) =  -868.335982860     A.U. after   16 cycles
 E2 =    -0.2604804285D+01 EUMP2 =    -0.87094078714468D+03

 The electronic state is 1-A.
 Alpha  occ. eigenvalues --  -20.60794 -20.60751 -20.60080 -20.60051 -15.85816
 Alpha  occ. eigenvalues --  -15.85129 -11.31331 -11.30705 -11.27928 -11.27919
 Alpha  occ. eigenvalues --  -11.27767 -11.27391 -11.27277 -11.27245 -11.27058
 Alpha  occ. eigenvalues --  -11.26949 -11.26551 -11.26423  -1.59832  -1.59113
 Alpha  occ. eigenvalues --   -1.39386  -1.38676  -1.19559  -1.18943  -1.08920
 Alpha  occ. eigenvalues --   -1.08321  -1.05007  -1.04412  -0.95722  -0.95112
 Alpha  occ. eigenvalues --   -0.86372  -0.85825  -0.82569  -0.81959  -0.77582
 Alpha  occ. eigenvalues --   -0.76943  -0.72065  -0.71378  -0.71231  -0.70658
 Alpha  occ. eigenvalues --   -0.70305  -0.70121  -0.65211  -0.65004  -0.64634
 Alpha  occ. eigenvalues --   -0.64479  -0.62351  -0.61767  -0.55496  -0.54977
 Alpha  occ. eigenvalues --   -0.53382  -0.53195  -0.52549  -0.52486  -0.48815
 Alpha  occ. eigenvalues --   -0.48772  -0.48137  -0.48101  -0.44776  -0.44040
 Alpha  occ. eigenvalues --   -0.37600  -0.36978  -0.36779  -0.35673
 Alpha virt. eigenvalues --    0.04949   0.05617   0.11016   0.11525   0.16263
 Alpha virt. eigenvalues --    0.17168   0.20767   0.21854   0.26297   0.27924
 Alpha virt. eigenvalues --    0.28168   0.28666   0.30120   0.31681   0.32537

 Mulliken charges:
               1
     1  C   -0.174746
     2  C   -0.229968
     3  C   -0.171221
     4  C    0.178818
     5  C   -0.165105
     6  C   -0.216612
     7  H    0.220943
     8  H    0.216640
     9  H    0.273311
    10  H    0.277246
    11  H    0.222572
    12  N    0.490846
    13  O   -0.457655
    14  O   -0.463610
    15  C   -0.170279
    16  C   -0.219463
    17  C   -0.168372
    18  C    0.156379
    19  C   -0.173791
    20  C   -0.225513
    21  H    0.225350
    22  H    0.224856
    23  H    0.278888
    24  H    0.280294
    25  H    0.217570
    26  N    0.489552
    27  O   -0.464680
    28  O   -0.452251
 Sum of Mulliken charges =  -0.00000

 Dipole moment (field-independent basis, Debye):
    X=             -3.9121    Y=              7.8903    Z=              0.5555  Tot=              8.8244
 Quadrupole moment (field-independent basis, Debye-Ang):
   XX=            -88.9554   YY=           -105.9100   ZZ=           -106.2882
   XY=              8.0465   XZ=            -10.9994   YZ=             -1.5238

 Normal termination of Gaussian 16 at Thu May  6 06:51:31 2021.
