 Gaussian 16, Revision A.03,
 Gaussian 16:  EM64L-G16RevA.03 25-Dec-2016

 -------------
 #p 6-31g* mp2
 -------------

 ------------------------------------------------------
 Input file generated by CHIRIPA (05-May-2021 14:51:13)
 ------------------------------------------------------
 Symbolic Z-matrix:
 Charge =  0 Multiplicity = 1

                         Standard orientation:
 ---------------------------------------------------------------------
 Center     Atomic      Atomic             Coordinates (Angstroms)
 Number     Number       Type             X           Y           Z
 ---------------------------------------------------------------------
      1          6           0        3.304096   -0.322348   -0.248876
      2          6           0        4.818461   -0.129700   -0.335891
      3          6           0        5.396888   -0.589262   -1.674554
      4          1           0        3.066056   -1.382984   -0.408038
      5          1           0        2.823364    0.232038   -1.066769
      6          1           0        5.296096   -0.683158    0.482745
      7          1           0        5.052938    0.930570   -0.176314
      8          1           0        4.947423   -0.029298   -2.501006
      9          1           0        5.191962   -1.652194   -1.838203
     10          1           0        6.480715   -0.442532   -1.715155
     11          6           0        2.711111    0.132456    1.083508
     12          6           0        1.196746   -0.060192    1.170523
     13          6           0        0.618319    0.399370    2.509186
     14          1           0        3.191842   -0.421929    1.901401
     15          1           0        2.949151    1.193093    1.242670
     16          1           0        0.962268   -1.120461    1.010946
     17          1           0        0.719111    0.493266    0.351887
     18          1           0        0.823245    1.462303    2.672835
     19          1           0        1.067784   -0.160594    3.335638
     20          1           0       -0.465508    0.252640    2.549787
     21          6           0       -3.141155    0.824646   -0.235291
     22          6           0       -2.186447    1.804473   -0.918267
     23          6           0       -2.466242    3.260349   -0.544189
     24          1           0       -4.174758    1.081764   -0.504552
     25          1           0       -3.062520    0.945929    0.853976
     26          1           0       -2.265849    1.680415   -2.005888
     27          1           0       -1.154986    1.544876   -0.647502
     28          1           0       -2.367604    3.406247    0.536359
     29          1           0       -3.484779    3.542557   -0.829744
     30          1           0       -1.772259    3.943650   -1.043536
     31          6           0       -2.874051   -0.634755   -0.599341
     32          6           0       -3.828759   -1.614581    0.083634
     33          6           0       -3.548965   -3.070457   -0.290443
     34          1           0       -2.952687   -0.756037   -1.688609
     35          1           0       -1.840449   -0.891872   -0.330080
     36          1           0       -4.860220   -1.354984   -0.187130
     37          1           0       -3.749358   -1.490523    1.171256
     38          1           0       -2.530429   -3.352665   -0.004887
     39          1           0       -3.647602   -3.216356   -1.370991
     40          1           0       -4.242949   -3.753758    0.208904
 ---------------------------------------------------------------------

 SCF Done:  E(RHF) =  -470.733276091     A.U. after   11 cycles
 E2 =    -0.1583598071D+01 EUMP2 =    -0.47231687416171D+03

 The electronic state is 1-A.
 Alpha  occ. eigenvalues --  -11.21681 -11.21628 -11.21587 -11.21584 -11.21454
 Alpha  occ. eigenvalues --  -11.21391 -11.21383 -11.21316 -11.21166 -11.21088
 Alpha  occ. eigenvalues --  -11.21069 -11.21061  -1.08492  -1.08406  -1.03593
 Alpha  occ. eigenvalues --   -1.03514  -0.96034  -0.95965  -0.87048  -0.86983
 Alpha  occ. eigenvalues --   -0.79686  -0.79565  -0.78359  -0.78160  -0.65200
 Alpha  occ. eigenvalues --   -0.64986  -0.61118  -0.60797  -0.59405  -0.59326
 Alpha  occ. eigenvalues --   -0.57645  -0.57576  -0.55322  -0.55244  -0.52730
 Alpha  occ. eigenvalues --   -0.52665  -0.52460  -0.52388  -0.50006  -0.49887
 Alpha  occ. eigenvalues --   -0.48066  -0.47887  -0.46909  -0.46454  -0.46051
 Alpha  occ. eigenvalues --   -0.45771  -0.45732  -0.45324  -0.43830  -0.43769
 Alpha virt. eigenvalues --    0.19771   0.23016   0.23835   0.24763   0.25612
 Alpha virt. eigenvalues --    0.26224   0.26676   0.27715   0.28297   0.29463
 Alpha virt. eigenvalues --    0.30027   0.31519   0.31737   0.31939   0.32167

 Mulliken charges:
               1
     1  C   -0.298501
     2  C   -0.299704
     3  C   -0.475760
     4  H    0.149787
     5  H    0.149730
     6  H    0.151987
     7  H    0.152018
     8  H    0.155318
     9  H    0.155264
    10  H    0.160343
    11  C   -0.297766
    12  C   -0.308532
    13  C   -0.477052
    14  H    0.149751
    15  H    0.149854
    16  H    0.152007
    17  H    0.159566
    18  H    0.155598
    19  H    0.155875
    20  H    0.160654
    21  C   -0.298202
    22  C   -0.307862
    23  C   -0.475316
    24  H    0.149662
    25  H    0.149769
    26  H    0.151861
    27  H    0.159296
    28  H    0.155439
    29  H    0.155259
    30  H    0.159729
    31  C   -0.302609
    32  C   -0.299489
    33  C   -0.475589
    34  H    0.149307
    35  H    0.154549
    36  H    0.151902
    37  H    0.151510
    38  H    0.154971
    39  H    0.155202
    40  H    0.160173
 Sum of Mulliken charges =  -0.00000

 Dipole moment (field-independent basis, Debye):
    X=              0.0339    Y=             -0.0014    Z=              0.0013  Tot=              0.0339
 Quadrupole moment (field-independent basis, Debye-Ang):
   XX=            -84.6951   YY=            -85.2104   ZZ=            -84.8740
   XY=              0.0701   XZ=              1.1099   YZ=             -0.8652

 Normal termination of Gaussian 16 at Wed May  5 15:19:51 2021.
