 Gaussian 16, Revision A.03,
 Gaussian 16:  EM64L-G16RevA.03 25-Dec-2016

 -------------
 #p 6-31g* mp2
 -------------

 ------------------------------------------------------
 Input file generated by CHIRIPA (05-May-2021 14:55:22)
 ------------------------------------------------------
 Symbolic Z-matrix:
 Charge =  0 Multiplicity = 1

                         Standard orientation:
 ---------------------------------------------------------------------
 Center     Atomic      Atomic             Coordinates (Angstroms)
 Number     Number       Type             X           Y           Z
 ---------------------------------------------------------------------
      1          6           0       -1.676694    2.306691    0.387006
      2          6           0       -1.161827    1.135015   -0.177449
      3          6           0       -2.001882    0.053131   -0.457420
      4          6           0       -3.357816    0.177782   -0.158766
      5          6           0       -3.900834    1.331880    0.403799
      6          6           0       -3.042147    2.401217    0.675321
      7          1           0       -1.016883    3.142251    0.601212
      8          1           0       -0.101815    1.058786   -0.402412
      9          1           0       -1.629798   -0.865651   -0.894239
     10          1           0       -4.961892    1.378172    0.616944
     11          1           0       -3.444778    3.309928    1.113701
     12          7           0       -4.257007   -0.960918   -0.450686
     13          8           0       -5.447884   -0.826028   -0.178193
     14          8           0       -3.753889   -1.966760   -0.946460
     15          6           0        4.485933   -0.062680   -0.384411
     16          6           0        5.877092    0.377442    0.072709
     17          6           0        6.620114    1.186907   -0.990528
     18          1           0        4.580175   -0.659281   -1.302088
     19          1           0        3.896186    0.826040   -0.648555
     20          1           0        6.463579   -0.511760    0.337228
     21          1           0        5.779543    0.972904    0.989510
     22          1           0        6.058892    2.090820   -1.248548
     23          1           0        6.746815    0.597721   -1.904535
     24          1           0        7.612249    1.491252   -0.642815
     25          6           0        3.730690   -0.872881    0.667686
     26          6           0        2.339532   -1.313004    0.210566
     27          6           0        1.596510   -2.122470    1.273804
     28          1           0        4.320437   -1.761601    0.931830
     29          1           0        3.636449   -0.276281    1.585362
     30          1           0        2.437081   -1.908466   -0.706235
     31          1           0        1.753045   -0.423802   -0.053954
     32          1           0        1.469810   -1.533283    2.187811
     33          1           0        2.157732   -3.026381    1.531822
     34          1           0        0.604375   -2.426814    0.926091
 ---------------------------------------------------------------------

 SCF Done:  E(RHF) =  -669.535471490     A.U. after   15 cycles
 E2 =    -0.2091364926D+01 EUMP2 =    -0.67162683641552D+03

 The electronic state is 1-A.
 Alpha  occ. eigenvalues --  -20.60752 -20.60747 -15.85806 -11.31171 -11.27744
 Alpha  occ. eigenvalues --  -11.27736 -11.27487 -11.26762 -11.26734 -11.22398
 Alpha  occ. eigenvalues --  -11.22108 -11.22030 -11.21967 -11.21602 -11.21516
 Alpha  occ. eigenvalues --   -1.59828  -1.39381  -1.19345  -1.09053  -1.08741
 Alpha  occ. eigenvalues --   -1.04749  -1.04115  -0.96531  -0.95575  -0.87543
 Alpha  occ. eigenvalues --   -0.86149  -0.82410  -0.80196  -0.78874  -0.77452
 Alpha  occ. eigenvalues --   -0.72024  -0.71150  -0.70457  -0.65718  -0.64997
 Alpha  occ. eigenvalues --   -0.64751  -0.62162  -0.61463  -0.59898  -0.58151
 Alpha  occ. eigenvalues --   -0.55811  -0.55252  -0.53222  -0.53073  -0.52982
 Alpha  occ. eigenvalues --   -0.52824  -0.50465  -0.48791  -0.48779  -0.48486
 Alpha  occ. eigenvalues --   -0.47230  -0.46399  -0.46330  -0.44787  -0.44366
 Alpha  occ. eigenvalues --   -0.37328  -0.36343
 Alpha virt. eigenvalues --    0.05068   0.11276   0.16506   0.19519   0.22610
 Alpha virt. eigenvalues --    0.23750   0.24956   0.26332   0.26649   0.28407
 Alpha virt. eigenvalues --    0.28863   0.29634   0.31181   0.31431   0.32339

 Mulliken charges:
               1
     1  C   -0.171844
     2  C   -0.222758
     3  C   -0.173260
     4  C    0.158665
     5  C   -0.170936
     6  C   -0.218462
     7  H    0.225639
     8  H    0.230743
     9  H    0.276182
    10  H    0.275569
    11  H    0.223313
    12  N    0.488148
    13  O   -0.460502
    14  O   -0.460514
    15  C   -0.297771
    16  C   -0.300053
    17  C   -0.475906
    18  H    0.151797
    19  H    0.144189
    20  H    0.153999
    21  H    0.151810
    22  H    0.154068
    23  H    0.156458
    24  H    0.161879
    25  C   -0.298120
    26  C   -0.304727
    27  C   -0.476569
    28  H    0.153427
    29  H    0.149641
    30  H    0.155923
    31  H    0.141414
    32  H    0.156231
    33  H    0.159547
    34  H    0.162783
 Sum of Mulliken charges =  -0.00000

 Dipole moment (field-independent basis, Debye):
    X=              3.3080    Y=              3.9212    Z=              1.0774  Tot=              5.2421
 Quadrupole moment (field-independent basis, Debye-Ang):
   XX=           -112.9089   YY=            -91.7822   ZZ=            -95.4919
   XY=            -16.3667   XZ=             -5.2260   YZ=              1.3110

 Normal termination of Gaussian 16 at Thu May  6 12:35:44 2021.
