 Gaussian 16, Revision A.03,
 Gaussian 16:  EM64L-G16RevA.03 25-Dec-2016

 -------------
 #p 6-31g* mp2
 -------------

 ------------------------------------------------------
 Input file generated by CHIRIPA (05-May-2021 14:51:13)
 ------------------------------------------------------
 Symbolic Z-matrix:
 Charge =  0 Multiplicity = 1

                         Standard orientation:
 ---------------------------------------------------------------------
 Center     Atomic      Atomic             Coordinates (Angstroms)
 Number     Number       Type             X           Y           Z
 ---------------------------------------------------------------------
      1          6           0        3.898794    0.666407    0.315986
      2          6           0        2.504201    0.489777    0.917564
      3          6           0        1.739781    1.808716    1.035269
      4          1           0        4.471878    1.369994    0.935247
      5          1           0        3.806419    1.127620   -0.677062
      6          1           0        2.599091    0.027765    1.908602
      7          1           0        1.934435   -0.213620    0.296905
      8          1           0        1.615663    2.271228    0.050749
      9          1           0        2.284096    2.513983    1.671603
     10          1           0        0.745522    1.659282    1.467677
     11          6           0        4.675358   -0.643279    0.191887
     12          6           0        6.069951   -0.466649   -0.409691
     13          6           0        6.834371   -1.785589   -0.527396
     14          1           0        4.767734   -1.104493    1.184934
     15          1           0        4.102274   -1.346867   -0.427375
     16          1           0        6.639717    0.236747    0.210967
     17          1           0        5.975061   -0.004637   -1.400729
     18          1           0        6.290057   -2.490856   -1.163730
     19          1           0        6.958489   -2.248100    0.457124
     20          1           0        7.828631   -1.636155   -0.959805
     21          6           0       -5.045079   -0.013555   -0.159811
     22          6           0       -5.592500   -1.356790    0.323964
     23          6           0       -7.110377   -1.345000    0.507557
     24          1           0       -5.322765    0.768899    0.559633
     25          1           0       -5.528323    0.250399   -1.110704
     26          1           0       -5.107353   -1.618795    1.272964
     27          1           0       -5.313315   -2.136169   -0.396618
     28          1           0       -7.610838   -1.108340   -0.436971
     29          1           0       -7.403706   -0.588027    1.242097
     30          1           0       -7.480433   -2.315063    0.853813
     31          6           0       -3.529073   -0.009572   -0.348062
     32          6           0       -2.981652    1.333662   -0.831836
     33          6           0       -1.463776    1.321872   -1.015429
     34          1           0       -3.045828   -0.273527    0.602832
     35          1           0       -3.251387   -0.792027   -1.067505
     36          1           0       -3.260838    2.113042   -0.111254
     37          1           0       -3.466798    1.595668   -1.780837
     38          1           0       -1.170445    0.564899   -1.749970
     39          1           0       -0.963314    1.085213   -0.070902
     40          1           0       -1.093718    2.291937   -1.361685
 ---------------------------------------------------------------------

 SCF Done:  E(RHF) =  -470.732732592     A.U. after   11 cycles
 E2 =    -0.1582613905D+01 EUMP2 =    -0.47231534649741D+03

 The electronic state is 1-A.
 Alpha  occ. eigenvalues --  -11.21595 -11.21583 -11.21565 -11.21562 -11.21394
 Alpha  occ. eigenvalues --  -11.21378 -11.21335 -11.21319 -11.21066 -11.21057
 Alpha  occ. eigenvalues --  -11.20999 -11.20976  -1.08419  -1.08397  -1.03541
 Alpha  occ. eigenvalues --   -1.03468  -0.96031  -0.95880  -0.87076  -0.86869
 Alpha  occ. eigenvalues --   -0.79630  -0.79505  -0.78229  -0.78214  -0.65070
 Alpha  occ. eigenvalues --   -0.65012  -0.61022  -0.60819  -0.59350  -0.59320
 Alpha  occ. eigenvalues --   -0.57682  -0.57464  -0.55408  -0.55088  -0.52771
 Alpha  occ. eigenvalues --   -0.52615  -0.52412  -0.52250  -0.50016  -0.49719
 Alpha  occ. eigenvalues --   -0.47929  -0.47828  -0.46650  -0.46526  -0.45775
 Alpha  occ. eigenvalues --   -0.45747  -0.45694  -0.45677  -0.43774  -0.43718
 Alpha virt. eigenvalues --    0.21964   0.22981   0.23533   0.24888   0.26465
 Alpha virt. eigenvalues --    0.26546   0.27119   0.27410   0.27693   0.29247
 Alpha virt. eigenvalues --    0.29392   0.31340   0.31557   0.32059   0.32304

 Mulliken charges:
               1
     1  C   -0.298337
     2  C   -0.301456
     3  C   -0.476666
     4  H    0.149569
     5  H    0.149773
     6  H    0.151444
     7  H    0.153373
     8  H    0.157998
     9  H    0.154585
    10  H    0.159933
    11  C   -0.298277
    12  C   -0.299647
    13  C   -0.475687
    14  H    0.149412
    15  H    0.149690
    16  H    0.151886
    17  H    0.151933
    18  H    0.155157
    19  H    0.155136
    20  H    0.160187
    21  C   -0.298240
    22  C   -0.299634
    23  C   -0.475696
    24  H    0.149632
    25  H    0.149540
    26  H    0.151887
    27  H    0.151894
    28  H    0.155173
    29  H    0.155178
    30  H    0.160224
    31  C   -0.298271
    32  C   -0.299967
    33  C   -0.479809
    34  H    0.149142
    35  H    0.149510
    36  H    0.151758
    37  H    0.151529
    38  H    0.153832
    39  H    0.162596
    40  H    0.159715
 Sum of Mulliken charges =  -0.00000

 Dipole moment (field-independent basis, Debye):
    X=              0.0102    Y=              0.0090    Z=              0.0001  Tot=              0.0136
 Quadrupole moment (field-independent basis, Debye-Ang):
   XX=            -86.4265   YY=            -85.4745   ZZ=            -83.0477
   XY=              0.5348   XZ=              0.7220   YZ=              0.3285

 Normal termination of Gaussian 16 at Wed May  5 16:52:57 2021.
