 Gaussian 16, Revision A.03,
 Gaussian 16:  EM64L-G16RevA.03 25-Dec-2016

 -------------
 #p 6-31g* mp2
 -------------

 ------------------------------------------------------
 Input file generated by CHIRIPA (05-May-2021 14:51:09)
 ------------------------------------------------------
 Symbolic Z-matrix:
 Charge =  0 Multiplicity = 1

                         Standard orientation:
 ---------------------------------------------------------------------
 Center     Atomic      Atomic             Coordinates (Angstroms)
 Number     Number       Type             X           Y           Z
 ---------------------------------------------------------------------
      1          6           0       -2.016743   -0.722159    0.454972
      2          6           0       -2.083450   -2.096918    1.120984
      3          6           0       -0.734448   -2.548297    1.681560
      4          1           0       -1.272761   -0.748889   -0.352939
      5          1           0       -1.657466    0.014881    1.186469
      6          1           0       -2.443812   -2.830892    0.388838
      7          1           0       -2.827498   -2.066966    1.927279
      8          1           0       -0.371936   -1.838112    2.431775
      9          1           0        0.013930   -2.606379    0.884592
     10          1           0       -0.805013   -3.533434    2.153139
     11          6           0       -3.357612   -0.257162   -0.110338
     12          6           0       -3.290905    1.117598   -0.776349
     13          6           0       -4.639906    1.568977   -1.336925
     14          1           0       -3.716889   -0.994201   -0.841835
     15          1           0       -4.101594   -0.230431    0.697574
     16          1           0       -2.546857    1.087645   -1.582644
     17          1           0       -2.930543    1.851571   -0.044203
     18          1           0       -5.388285    1.627058   -0.539958
     19          1           0       -5.002419    0.858792   -2.087140
     20          1           0       -4.569342    2.554113   -1.808504
     21          6           0        2.841949    0.063967   -0.787348
     22          6           0        2.976650   -1.426711   -0.474743
     23          6           0        3.286307   -2.265234   -1.715220
     24          1           0        2.048995    0.205237   -1.534483
     25          1           0        3.773309    0.420332   -1.248831
     26          1           0        2.045819   -1.779847   -0.012721
     27          1           0        3.769246   -1.564431    0.271878
     28          1           0        4.225449   -1.940780   -2.174940
     29          1           0        2.492230   -2.157419   -2.461156
     30          1           0        3.378425   -3.327639   -1.468910
     31          6           0        2.532406    0.915353    0.442713
     32          6           0        2.397704    2.406031    0.130108
     33          6           0        2.088049    3.244555    1.370586
     34          1           0        1.601046    0.558988    0.904197
     35          1           0        3.325360    0.774083    1.189849
     36          1           0        1.605109    2.543751   -0.616512
     37          1           0        3.328535    2.759168   -0.331914
     38          1           0        2.882125    3.136740    2.116521
     39          1           0        1.148906    2.920100    1.830305
     40          1           0        1.995930    4.306960    1.124275
 ---------------------------------------------------------------------

 SCF Done:  E(RHF) =  -470.733398280     A.U. after   11 cycles
 E2 =    -0.1583374883D+01 EUMP2 =    -0.47231677316304D+03

 The electronic state is 1-A.
 Alpha  occ. eigenvalues --  -11.21673 -11.21662 -11.21559 -11.21548 -11.21493
 Alpha  occ. eigenvalues --  -11.21427 -11.21361 -11.21295 -11.21128 -11.21114
 Alpha  occ. eigenvalues --  -11.21062 -11.21049  -1.08507  -1.08387  -1.03598
 Alpha  occ. eigenvalues --   -1.03497  -0.96047  -0.95949  -0.87067  -0.86963
 Alpha  occ. eigenvalues --   -0.79683  -0.79542  -0.78347  -0.78172  -0.65164
 Alpha  occ. eigenvalues --   -0.65000  -0.61072  -0.60835  -0.59415  -0.59316
 Alpha  occ. eigenvalues --   -0.57664  -0.57552  -0.55370  -0.55208  -0.52733
 Alpha  occ. eigenvalues --   -0.52654  -0.52493  -0.52357  -0.50052  -0.49849
 Alpha  occ. eigenvalues --   -0.48087  -0.47817  -0.46806  -0.46465  -0.46045
 Alpha  occ. eigenvalues --   -0.45780  -0.45707  -0.45410  -0.43853  -0.43748
 Alpha virt. eigenvalues --    0.20208   0.23128   0.23689   0.24148   0.25920
 Alpha virt. eigenvalues --    0.26415   0.26867   0.27712   0.28315   0.29948
 Alpha virt. eigenvalues --    0.30055   0.31558   0.31777   0.31873   0.31964

 Mulliken charges:
               1
     1  C   -0.299532
     2  C   -0.299514
     3  C   -0.482839
     4  H    0.149566
     5  H    0.149657
     6  H    0.152205
     7  H    0.152363
     8  H    0.155829
     9  H    0.161618
    10  H    0.161025
    11  C   -0.298396
    12  C   -0.299697
    13  C   -0.475756
    14  H    0.149847
    15  H    0.150072
    16  H    0.151642
    17  H    0.152005
    18  H    0.155360
    19  H    0.155306
    20  H    0.160489
    21  C   -0.297457
    22  C   -0.308788
    23  C   -0.475242
    24  H    0.148915
    25  H    0.149362
    26  H    0.160091
    27  H    0.152177
    28  H    0.155330
    29  H    0.154301
    30  H    0.160164
    31  C   -0.300492
    32  C   -0.299562
    33  C   -0.475532
    34  H    0.152389
    35  H    0.149320
    36  H    0.152224
    37  H    0.151671
    38  H    0.155066
    39  H    0.154697
    40  H    0.160115
 Sum of Mulliken charges =  -0.00000

 Dipole moment (field-independent basis, Debye):
    X=             -0.0390    Y=             -0.0196    Z=              0.0184  Tot=              0.0473
 Quadrupole moment (field-independent basis, Debye-Ang):
   XX=            -84.5593   YY=            -85.3238   ZZ=            -84.8168
   XY=              0.6160   XZ=             -0.2367   YZ=             -0.0119

 Normal termination of Gaussian 16 at Wed May  5 23:00:20 2021.
