 Gaussian 16, Revision A.03,
 Gaussian 16:  EM64L-G16RevA.03 25-Dec-2016

 -------------
 #p 6-31g* mp2
 -------------

 ------------------------------------------------------
 Input file generated by CHIRIPA (05-May-2021 14:55:19)
 ------------------------------------------------------
 Symbolic Z-matrix:
 Charge =  0 Multiplicity = 1

                         Standard orientation:
 ---------------------------------------------------------------------
 Center     Atomic      Atomic             Coordinates (Angstroms)
 Number     Number       Type             X           Y           Z
 ---------------------------------------------------------------------
      1          6           0        0.798065   -0.880101   -0.166003
      2          6           0        1.750780   -1.902857   -0.112859
      3          6           0        3.113502   -1.600440   -0.034884
      4          6           0        3.489912   -0.258397   -0.011949
      5          6           0        2.564662    0.783017   -0.063508
      6          6           0        1.207325    0.457215   -0.141202
      7          1           0       -0.258439   -1.124109   -0.226467
      8          1           0        1.435842   -2.942325   -0.131956
      9          1           0        3.872208   -2.372444    0.007485
     10          1           0        2.909157    1.809813   -0.042742
     11          1           0        0.469650    1.253574   -0.182346
     12          7           0        4.929715    0.074137    0.070450
     13          8           0        5.235540    1.264412    0.089195
     14          8           0        5.725143   -0.861796    0.114730
     15          6           0       -3.711437    0.901341    0.391520
     16          6           0       -3.188530    2.010021   -0.522473
     17          6           0       -2.285906    3.003352    0.209892
     18          1           0       -4.263310    1.353432    1.226981
     19          1           0       -2.858792    0.366949    0.832899
     20          1           0       -4.041909    2.541274   -0.963075
     21          1           0       -2.638000    1.555230   -1.355958
     22          1           0       -1.416265    2.492298    0.635509
     23          1           0       -2.828150    3.483945    1.030625
     24          1           0       -1.923333    3.787370   -0.462207
     25          6           0       -4.615257   -0.099542   -0.326163
     26          6           0       -5.138165   -1.208222    0.587829
     27          6           0       -6.040789   -2.201553   -0.144535
     28          1           0       -5.467903    0.434851   -0.767542
     29          1           0       -4.063384   -0.551633   -1.161624
     30          1           0       -5.688694   -0.753431    1.421315
     31          1           0       -4.284786   -1.739475    1.028431
     32          1           0       -5.498545   -2.682146   -0.965268
     33          1           0       -6.910430   -1.690499   -0.570152
     34          1           0       -6.403361   -2.985570    0.527565
 ---------------------------------------------------------------------

 SCF Done:  E(RHF) =  -669.535493931     A.U. after   15 cycles
 E2 =    -0.2091328098D+01 EUMP2 =    -0.67162682202910D+03

 The electronic state is 1-A.
 Alpha  occ. eigenvalues --  -20.60748 -20.60743 -15.85801 -11.31172 -11.27744
 Alpha  occ. eigenvalues --  -11.27733 -11.27492 -11.26763 -11.26725 -11.22675
 Alpha  occ. eigenvalues --  -11.22437 -11.22414 -11.22283 -11.22209 -11.21760
 Alpha  occ. eigenvalues --   -1.59824  -1.39377  -1.19344  -1.09406  -1.08741
 Alpha  occ. eigenvalues --   -1.04749  -1.04474  -0.96925  -0.95575  -0.87937
 Alpha  occ. eigenvalues --   -0.86148  -0.82406  -0.80533  -0.79195  -0.77453
 Alpha  occ. eigenvalues --   -0.72020  -0.71147  -0.70461  -0.66085  -0.64996
 Alpha  occ. eigenvalues --   -0.64764  -0.62218  -0.61758  -0.60283  -0.58514
 Alpha  occ. eigenvalues --   -0.56267  -0.55234  -0.53595  -0.53351  -0.53077
 Alpha  occ. eigenvalues --   -0.52821  -0.50853  -0.48851  -0.48775  -0.48760
 Alpha  occ. eigenvalues --   -0.47581  -0.46730  -0.46673  -0.44781  -0.44726
 Alpha  occ. eigenvalues --   -0.37330  -0.36349
 Alpha virt. eigenvalues --    0.05081   0.11263   0.16557   0.18028   0.22482
 Alpha virt. eigenvalues --    0.23645   0.25041   0.25757   0.26496   0.28385
 Alpha virt. eigenvalues --    0.29440   0.30773   0.30831   0.31164   0.31664

 Mulliken charges:
               1
     1  C   -0.174359
     2  C   -0.218485
     3  C   -0.171047
     4  C    0.158901
     5  C   -0.172490
     6  C   -0.226409
     7  H    0.226416
     8  H    0.223328
     9  H    0.275552
    10  H    0.276206
    11  H    0.234488
    12  N    0.488024
    13  O   -0.460312
    14  O   -0.460542
    15  C   -0.299088
    16  C   -0.302057
    17  C   -0.480685
    18  H    0.154542
    19  H    0.142888
    20  H    0.157809
    21  H    0.148790
    22  H    0.148575
    23  H    0.162117
    24  H    0.164153
    25  C   -0.298931
    26  C   -0.299642
    27  C   -0.476089
    28  H    0.153320
    29  H    0.147009
    30  H    0.154760
    31  H    0.148833
    32  H    0.154576
    33  H    0.157362
    34  H    0.162487
 Sum of Mulliken charges =  -0.00000

 Dipole moment (field-independent basis, Debye):
    X=             -5.3286    Y=             -1.0969    Z=             -0.2815  Tot=              5.4476
 Quadrupole moment (field-independent basis, Debye-Ang):
   XX=           -129.0807   YY=            -89.3046   ZZ=            -95.7667
   XY=             -5.3526   XZ=             -1.4622   YZ=             -0.1345

 Normal termination of Gaussian 16 at Wed May  5 18:53:16 2021.
