 Gaussian 16, Revision A.03,
 Gaussian 16:  EM64L-G16RevA.03 25-Dec-2016

 -------------
 #p 6-31g* mp2
 -------------

 ------------------------------------------------------
 Input file generated by CHIRIPA (05-May-2021 14:55:23)
 ------------------------------------------------------
 Symbolic Z-matrix:
 Charge =  0 Multiplicity = 1

                         Standard orientation:
 ---------------------------------------------------------------------
 Center     Atomic      Atomic             Coordinates (Angstroms)
 Number     Number       Type             X           Y           Z
 ---------------------------------------------------------------------
      1          6           0       -1.843611    2.431774    1.136231
      2          6           0       -2.182243    1.260686    1.822090
      3          6           0       -2.574086    0.115844    1.121845
      4          6           0       -2.616362    0.177622   -0.270163
      5          6           0       -2.284970    1.329410   -0.982100
      6          6           0       -1.895963    2.462344   -0.261211
      7          1           0       -1.540320    3.316490    1.688217
      8          1           0       -2.142500    1.234048    2.907335
      9          1           0       -2.841533   -0.804006    1.627579
     10          1           0       -2.334220    1.325440   -2.064217
     11          1           0       -1.633532    3.370440   -0.796503
     12          7           0       -3.029688   -1.028068   -1.022408
     13          8           0       -3.058801   -0.947871   -2.248523
     14          8           0       -3.316713   -2.030455   -0.371660
     15          6           0        4.014130   -0.350160    0.180036
     16          6           0        4.453571    0.597210   -0.936820
     17          6           0        5.961410    0.850609   -0.937922
     18          1           0        4.317532    0.069686    1.148861
     19          1           0        4.547250   -1.304933    0.072399
     20          1           0        3.918750    1.549431   -0.827920
     21          1           0        4.148917    0.175153   -1.903086
     22          1           0        6.509658   -0.087817   -1.069765
     23          1           0        6.278183    1.294270    0.011510
     24          1           0        6.253668    1.530439   -1.744318
     25          6           0        2.509368   -0.613257    0.194194
     26          6           0        2.069927   -1.560626    1.311050
     27          6           0        0.562087   -1.814025    1.312152
     28          1           0        1.976248    0.341516    0.301833
     29          1           0        2.205965   -1.033104   -0.774630
     30          1           0        2.374580   -1.138569    2.277316
     31          1           0        2.604747   -2.512847    1.202150
     32          1           0        0.245314   -2.257687    0.362721
     33          1           0        0.013839   -0.875600    1.443996
     34          1           0        0.269830   -2.493856    2.118548
 ---------------------------------------------------------------------

 SCF Done:  E(RHF) =  -669.534852785     A.U. after   15 cycles
 E2 =    -0.2092807689D+01 EUMP2 =    -0.67162766047413D+03

 The electronic state is 1-A.
 Alpha  occ. eigenvalues --  -20.60779 -20.60765 -15.85825 -11.31186 -11.27798
 Alpha  occ. eigenvalues --  -11.27773 -11.27561 -11.26803 -11.26792 -11.21709
 Alpha  occ. eigenvalues --  -11.21580 -11.21457 -11.21380 -11.21178 -11.20893
 Alpha  occ. eigenvalues --   -1.59846  -1.39399  -1.19401  -1.08785  -1.08470
 Alpha  occ. eigenvalues --   -1.04816  -1.03554  -0.96007  -0.95613  -0.87028
 Alpha  occ. eigenvalues --   -0.86193  -0.82449  -0.79633  -0.78287  -0.77485
 Alpha  occ. eigenvalues --   -0.72046  -0.71167  -0.70508  -0.65110  -0.65046
 Alpha  occ. eigenvalues --   -0.64801  -0.62151  -0.60965  -0.59374  -0.57636
 Alpha  occ. eigenvalues --   -0.55352  -0.55304  -0.53299  -0.52900  -0.52680
 Alpha  occ. eigenvalues --   -0.52281  -0.49916  -0.48805  -0.48798  -0.47928
 Alpha  occ. eigenvalues --   -0.46657  -0.45821  -0.45749  -0.44792  -0.43815
 Alpha  occ. eigenvalues --   -0.37376  -0.36321
 Alpha virt. eigenvalues --    0.05036   0.11214   0.16485   0.21341   0.22817
 Alpha virt. eigenvalues --    0.24279   0.26610   0.27041   0.27447   0.27893
 Alpha virt. eigenvalues --    0.28518   0.30744   0.31508   0.31747   0.31882

 Mulliken charges:
               1
     1  C   -0.170863
     2  C   -0.219386
     3  C   -0.171889
     4  C    0.162288
     5  C   -0.170450
     6  C   -0.218903
     7  H    0.225792
     8  H    0.224102
     9  H    0.277454
    10  H    0.275858
    11  H    0.223599
    12  N    0.488090
    13  O   -0.460777
    14  O   -0.459954
    15  C   -0.298131
    16  C   -0.299334
    17  C   -0.475635
    18  H    0.147982
    19  H    0.150838
    20  H    0.149037
    21  H    0.153443
    22  H    0.156272
    23  H    0.154318
    24  H    0.159959
    25  C   -0.298681
    26  C   -0.298876
    27  C   -0.484363
    28  H    0.147046
    29  H    0.152413
    30  H    0.148259
    31  H    0.153302
    32  H    0.161670
    33  H    0.156979
    34  H    0.158542
 Sum of Mulliken charges =  -0.00000

 Dipole moment (field-independent basis, Debye):
    X=              1.3757    Y=              4.2226    Z=              2.6026  Tot=              5.1474
 Quadrupole moment (field-independent basis, Debye-Ang):
   XX=           -104.3594   YY=            -91.8930   ZZ=            -92.3900
   XY=            -11.0635   XZ=             -8.1012   YZ=             -2.4712

 Normal termination of Gaussian 16 at Thu May  6 15:56:11 2021.
