 Gaussian 16, Revision A.03,
 Gaussian 16:  EM64L-G16RevA.03 25-Dec-2016

 -------------
 #p 6-31g* mp2
 -------------

 ------------------------------------------------------
 Input file generated by CHIRIPA (05-May-2021 14:57:25)
 ------------------------------------------------------
 Symbolic Z-matrix:
 Charge =  0 Multiplicity = 1

                         Standard orientation:
 ---------------------------------------------------------------------
 Center     Atomic      Atomic             Coordinates (Angstroms)
 Number     Number       Type             X           Y           Z
 ---------------------------------------------------------------------
      1          6           0        0.725897   -0.966115   -0.411688
      2          6           0        1.140817    0.301613   -0.832673
      3          6           0        2.462285    0.715995   -0.641467
      4          6           0        3.346283   -0.166845   -0.023057
      5          6           0        2.963177   -1.436177    0.407428
      6          6           0        1.636795   -1.829441    0.205930
      7          1           0       -0.302560   -1.279815   -0.564219
      8          1           0        0.435580    0.974182   -1.312607
      9          1           0        2.810229    1.691901   -0.957632
     10          1           0        3.689146   -2.084518    0.882866
     11          1           0        1.317364   -2.814555    0.533895
     12          7           0        4.747863    0.260665    0.184812
     13          8           0        5.507288   -0.535784    0.732151
     14          8           0        5.060457    1.384101   -0.203536
     15          6           0       -3.736861   -2.194889   -0.195678
     16          6           0       -3.281021   -1.470169   -1.301803
     17          6           0       -2.933806   -0.122033   -1.173278
     18          6           0       -3.055194    0.472439    0.081775
     19          6           0       -3.506206   -0.222893    1.202664
     20          6           0       -3.847803   -1.570039    1.050828
     21          1           0       -4.004404   -3.241770   -0.304574
     22          1           0       -3.193858   -1.952838   -2.271069
     23          1           0       -2.578128    0.462603   -2.012988
     24          1           0       -3.582517    0.285623    2.156082
     25          1           0       -4.201523   -2.130395    1.911599
     26          7           0       -2.690587    1.899127    0.230178
     27          8           0       -2.806460    2.399752    1.346684
     28          8           0       -2.295840    2.489726   -0.772819
 ---------------------------------------------------------------------

 SCF Done:  E(RHF) =  -868.338341760     A.U. after   16 cycles
 E2 =    -0.2601964394D+01 EUMP2 =    -0.87094030615435D+03

 The electronic state is 1-A.
 Alpha  occ. eigenvalues --  -20.61951 -20.61895 -20.60510 -20.60497 -15.86957
 Alpha  occ. eigenvalues --  -15.85558 -11.32439 -11.30900 -11.29042 -11.28940
 Alpha  occ. eigenvalues --  -11.28729 -11.28060 -11.27966 -11.27507 -11.27418
 Alpha  occ. eigenvalues --  -11.27128 -11.26533 -11.26368  -1.60977  -1.59582
 Alpha  occ. eigenvalues --   -1.40531  -1.39136  -1.20634  -1.19068  -1.09979
 Alpha  occ. eigenvalues --   -1.08472  -1.06033  -1.04462  -0.96795  -0.95310
 Alpha  occ. eigenvalues --   -0.87401  -0.85868  -0.83611  -0.82137  -0.78655
 Alpha  occ. eigenvalues --   -0.77187  -0.73164  -0.72308  -0.71777  -0.71674
 Alpha  occ. eigenvalues --   -0.70905  -0.70200  -0.66250  -0.65979  -0.64718
 Alpha  occ. eigenvalues --   -0.64468  -0.63339  -0.61801  -0.56471  -0.55406
 Alpha  occ. eigenvalues --   -0.54072  -0.53929  -0.52804  -0.52543  -0.49936
 Alpha  occ. eigenvalues --   -0.49919  -0.48537  -0.48530  -0.45893  -0.44546
 Alpha  occ. eigenvalues --   -0.38618  -0.37641  -0.37049  -0.36071
 Alpha virt. eigenvalues --    0.03821   0.05337   0.09918   0.11558   0.15290
 Alpha virt. eigenvalues --    0.16838   0.20116   0.21865   0.25818   0.26738
 Alpha virt. eigenvalues --    0.27978   0.28704   0.29814   0.30803   0.32066

 Mulliken charges:
               1
     1  C   -0.178975
     2  C   -0.228794
     3  C   -0.169926
     4  C    0.158056
     5  C   -0.171296
     6  C   -0.220518
     7  H    0.229921
     8  H    0.233387
     9  H    0.278210
    10  H    0.273833
    11  H    0.219006
    12  N    0.488023
    13  O   -0.462128
    14  O   -0.459337
    15  C   -0.172534
    16  C   -0.223994
    17  C   -0.185406
    18  C    0.162634
    19  C   -0.169184
    20  C   -0.218432
    21  H    0.230145
    22  H    0.228327
    23  H    0.276668
    24  H    0.280415
    25  H    0.228558
    26  N    0.488952
    27  O   -0.452077
    28  O   -0.463535
 Sum of Mulliken charges =  -0.00000

 Dipole moment (field-independent basis, Debye):
    X=             -6.6220    Y=             -6.3961    Z=             -1.1159  Tot=              9.2740
 Quadrupole moment (field-independent basis, Debye-Ang):
   XX=           -129.9716   YY=           -105.7496   ZZ=            -99.7076
   XY=             10.1426   XZ=             -2.1629   YZ=             -2.8465

 Normal termination of Gaussian 16 at Thu May  6 16:23:22 2021.
