 Gaussian 16, Revision A.03,
 Gaussian 16:  EM64L-G16RevA.03 25-Dec-2016

 -------------
 #p 6-31g* mp2
 -------------

 ------------------------------------------------------
 Input file generated by CHIRIPA (05-May-2021 14:51:08)
 ------------------------------------------------------
 Symbolic Z-matrix:
 Charge =  0 Multiplicity = 1

                         Standard orientation:
 ---------------------------------------------------------------------
 Center     Atomic      Atomic             Coordinates (Angstroms)
 Number     Number       Type             X           Y           Z
 ---------------------------------------------------------------------
      1          6           0        3.554115   -0.041468    0.071776
      2          6           0        5.052848   -0.194117    0.333471
      3          6           0        5.762643    1.149097    0.505987
      4          1           0        3.406012    0.571345   -0.827929
      5          1           0        3.097924    0.511029    0.904862
      6          1           0        5.505837   -0.747367   -0.499194
      7          1           0        5.197402   -0.806798    1.232550
      8          1           0        5.337792    1.703869    1.348798
      9          1           0        5.647978    1.763638   -0.392785
     10          1           0        6.833002    1.016575    0.692077
     11          6           0        2.830661   -1.375576   -0.102860
     12          6           0        1.331928   -1.222927   -0.364555
     13          6           0        0.622133   -2.566141   -0.537071
     14          1           0        3.286852   -1.928073   -0.935946
     15          1           0        2.978763   -1.988389    0.796846
     16          1           0        1.187374   -0.610246   -1.263633
     17          1           0        0.878939   -0.669677    0.468110
     18          1           0        0.736797   -3.180682    0.361701
     19          1           0        1.046984   -3.120914   -1.379882
     20          1           0       -0.448226   -2.433619   -0.723161
     21          6           0       -2.910501    1.414057    0.094231
     22          6           0       -1.529907    1.589562   -0.539129
     23          6           0       -0.979279    3.006301   -0.373440
     24          1           0       -3.607364    2.134712   -0.355193
     25          1           0       -2.850195    1.662348    1.162926
     26          1           0       -1.592498    1.339682   -1.606020
     27          1           0       -0.836295    0.868276   -0.088280
     28          1           0       -0.888152    3.262619    0.687031
     29          1           0       -1.648651    3.736703   -0.839333
     30          1           0        0.008422    3.109500   -0.833502
     31          6           0       -3.474275    0.002987   -0.063147
     32          6           0       -4.854868   -0.172518    0.570212
     33          6           0       -5.405497   -1.589257    0.404524
     34          1           0       -3.534582   -0.245303   -1.131842
     35          1           0       -2.777411   -0.717668    0.386276
     36          1           0       -5.548481    0.548769    0.119364
     37          1           0       -4.792277    0.077362    1.637104
     38          1           0       -4.736125   -2.319659    0.870416
     39          1           0       -5.496624   -1.845574   -0.655947
     40          1           0       -6.393198   -1.692455    0.864586
 ---------------------------------------------------------------------

 SCF Done:  E(RHF) =  -470.732991567     A.U. after   11 cycles
 E2 =    -0.1583386444D+01 EUMP2 =    -0.47231637801095D+03

 The electronic state is 1-A.
 Alpha  occ. eigenvalues --  -11.21613 -11.21610 -11.21595 -11.21470 -11.21419
 Alpha  occ. eigenvalues --  -11.21386 -11.21359 -11.21315 -11.21079 -11.21078
 Alpha  occ. eigenvalues --  -11.21064 -11.21015  -1.08458  -1.08388  -1.03564
 Alpha  occ. eigenvalues --   -1.03473  -0.95991  -0.95947  -0.87014  -0.86956
 Alpha  occ. eigenvalues --   -0.79742  -0.79453  -0.78356  -0.78109  -0.65120
 Alpha  occ. eigenvalues --   -0.64998  -0.61000  -0.60848  -0.59431  -0.59246
 Alpha  occ. eigenvalues --   -0.57612  -0.57548  -0.55278  -0.55239  -0.52700
 Alpha  occ. eigenvalues --   -0.52624  -0.52432  -0.52352  -0.49962  -0.49877
 Alpha  occ. eigenvalues --   -0.48202  -0.47678  -0.46779  -0.46494  -0.45984
 Alpha  occ. eigenvalues --   -0.45769  -0.45680  -0.45333  -0.43791  -0.43745
 Alpha virt. eigenvalues --    0.21216   0.23101   0.23892   0.24164   0.25762
 Alpha virt. eigenvalues --    0.26447   0.26974   0.27107   0.28635   0.29208
 Alpha virt. eigenvalues --    0.30613   0.31184   0.31693   0.31807   0.32255

 Mulliken charges:
               1
     1  C   -0.298360
     2  C   -0.299627
     3  C   -0.475711
     4  H    0.149558
     5  H    0.149371
     6  H    0.151986
     7  H    0.151933
     8  H    0.155243
     9  H    0.155201
    10  H    0.160292
    11  C   -0.297345
    12  C   -0.303081
    13  C   -0.478399
    14  H    0.149582
    15  H    0.149431
    16  H    0.154375
    17  H    0.152999
    18  H    0.154767
    19  H    0.155461
    20  H    0.162897
    21  C   -0.297693
    22  C   -0.308635
    23  C   -0.475283
    24  H    0.149362
    25  H    0.148878
    26  H    0.150640
    27  H    0.163522
    28  H    0.154456
    29  H    0.154761
    30  H    0.160205
    31  C   -0.300194
    32  C   -0.299530
    33  C   -0.475782
    34  H    0.149381
    35  H    0.150761
    36  H    0.152090
    37  H    0.151865
    38  H    0.155222
    39  H    0.155153
    40  H    0.160253
 Sum of Mulliken charges =  -0.00000

 Dipole moment (field-independent basis, Debye):
    X=              0.0272    Y=             -0.0202    Z=             -0.0052  Tot=              0.0343
 Quadrupole moment (field-independent basis, Debye-Ang):
   XX=            -85.3621   YY=            -86.5626   ZZ=            -82.9820
   XY=             -1.1693   XZ=              0.0708   YZ=             -0.4250

 Normal termination of Gaussian 16 at Wed May  5 15:05:35 2021.
