 Gaussian 16, Revision A.03,
 Gaussian 16:  EM64L-G16RevA.03 25-Dec-2016

 -------------
 #p 6-31g* mp2
 -------------

 ------------------------------------------------------
 Input file generated by CHIRIPA (05-May-2021 14:51:13)
 ------------------------------------------------------
 Symbolic Z-matrix:
 Charge =  0 Multiplicity = 1

                         Standard orientation:
 ---------------------------------------------------------------------
 Center     Atomic      Atomic             Coordinates (Angstroms)
 Number     Number       Type             X           Y           Z
 ---------------------------------------------------------------------
      1          6           0        4.286906    0.069167   -0.294158
      2          6           0        4.923831    1.382929    0.160089
      3          6           0        6.136696    1.774921   -0.684360
      4          1           0        5.039446   -0.730049   -0.250769
      5          1           0        3.987603    0.159817   -1.347532
      6          1           0        5.220589    1.290298    1.212691
      7          1           0        4.169636    2.179073    0.115796
      8          1           0        5.852274    1.894755   -1.734763
      9          1           0        6.909198    1.000930   -0.631636
     10          1           0        6.576443    2.717001   -0.342354
     11          6           0        3.073202   -0.336053    0.540376
     12          6           0        2.436278   -1.649816    0.086129
     13          6           0        1.223413   -2.041807    0.930578
     14          1           0        3.372505   -0.426703    1.593749
     15          1           0        2.320663    0.463163    0.496987
     16          1           0        3.190473   -2.445959    0.130422
     17          1           0        2.139520   -1.557184   -0.966473
     18          1           0        0.450910   -1.267817    0.877853
     19          1           0        1.507834   -2.161642    1.980980
     20          1           0        0.783666   -2.983888    0.588572
     21          6           0       -3.664199   -0.509850   -0.534634
     22          6           0       -2.879083   -1.638513    0.134469
     23          6           0       -2.856429   -2.918880   -0.700960
     24          1           0       -4.693319   -0.847086   -0.719367
     25          1           0       -3.222999   -0.298959   -1.518637
     26          1           0       -3.320780   -1.846274    1.117502
     27          1           0       -1.851762   -1.298485    0.317804
     28          1           0       -2.396505   -2.733863   -1.677095
     29          1           0       -3.873869   -3.284763   -0.872852
     30          1           0       -2.289920   -3.712560   -0.203969
     31          6           0       -3.695910    0.776737    0.288416
     32          6           0       -4.481027    1.905400   -0.380687
     33          6           0       -4.503679    3.185766    0.454742
     34          1           0       -4.137110    0.565845    1.272419
     35          1           0       -2.666789    1.113973    0.473149
     36          1           0       -5.508346    1.565372   -0.564022
     37          1           0       -4.039329    2.113160   -1.363720
     38          1           0       -3.486239    3.551649    0.626635
     39          1           0       -4.963604    3.000750    1.430877
     40          1           0       -5.070189    3.979447   -0.042249
 ---------------------------------------------------------------------

 SCF Done:  E(RHF) =  -470.733173800     A.U. after   11 cycles
 E2 =    -0.1582627741D+01 EUMP2 =    -0.47231580154140D+03

 The electronic state is 1-A.
 Alpha  occ. eigenvalues --  -11.21630 -11.21623 -11.21600 -11.21516 -11.21434
 Alpha  occ. eigenvalues --  -11.21391 -11.21374 -11.21326 -11.21089 -11.21088
 Alpha  occ. eigenvalues --  -11.21072 -11.21033  -1.08459  -1.08408  -1.03566
 Alpha  occ. eigenvalues --   -1.03493  -0.96018  -0.95946  -0.87027  -0.86972
 Alpha  occ. eigenvalues --   -0.79664  -0.79527  -0.78283  -0.78209  -0.65130
 Alpha  occ. eigenvalues --   -0.65011  -0.61076  -0.60801  -0.59417  -0.59282
 Alpha  occ. eigenvalues --   -0.57618  -0.57567  -0.55362  -0.55186  -0.52731
 Alpha  occ. eigenvalues --   -0.52613  -0.52465  -0.52353  -0.50054  -0.49835
 Alpha  occ. eigenvalues --   -0.48026  -0.47807  -0.46804  -0.46456  -0.45871
 Alpha  occ. eigenvalues --   -0.45760  -0.45727  -0.45540  -0.43808  -0.43757
 Alpha virt. eigenvalues --    0.21555   0.23106   0.23567   0.24960   0.25662
 Alpha virt. eigenvalues --    0.26831   0.27081   0.27122   0.27821   0.29039
 Alpha virt. eigenvalues --    0.30242   0.30893   0.31677   0.31782   0.32477

 Mulliken charges:
               1
     1  C   -0.298299
     2  C   -0.299663
     3  C   -0.475723
     4  H    0.149796
     5  H    0.149472
     6  H    0.152022
     7  H    0.151854
     8  H    0.155175
     9  H    0.155245
    10  H    0.160331
    11  C   -0.298423
    12  C   -0.299602
    13  C   -0.480659
    14  H    0.149740
    15  H    0.149298
    16  H    0.152146
    17  H    0.151832
    18  H    0.159067
    19  H    0.155544
    20  H    0.161522
    21  C   -0.297819
    22  C   -0.306831
    23  C   -0.475475
    24  H    0.149504
    25  H    0.148969
    26  H    0.151728
    27  H    0.159902
    28  H    0.154655
    29  H    0.154889
    30  H    0.160466
    31  C   -0.298038
    32  C   -0.299603
    33  C   -0.475681
    34  H    0.149749
    35  H    0.148572
    36  H    0.152063
    37  H    0.151760
    38  H    0.155020
    39  H    0.155265
    40  H    0.160233
 Sum of Mulliken charges =  -0.00000

 Dipole moment (field-independent basis, Debye):
    X=              0.0247    Y=             -0.0109    Z=              0.0143  Tot=              0.0306
 Quadrupole moment (field-independent basis, Debye-Ang):
   XX=            -84.5164   YY=            -85.5983   ZZ=            -84.6780
   XY=             -0.3320   XZ=              0.4886   YZ=             -0.7840

 Normal termination of Gaussian 16 at Wed May  5 21:34:55 2021.
