 Gaussian 16, Revision A.03,
 Gaussian 16:  EM64L-G16RevA.03 25-Dec-2016

 -------------
 #p 6-31g* mp2
 -------------

 ------------------------------------------------------
 Input file generated by CHIRIPA (05-May-2021 14:57:22)
 ------------------------------------------------------
 Symbolic Z-matrix:
 Charge =  0 Multiplicity = 1

                         Standard orientation:
 ---------------------------------------------------------------------
 Center     Atomic      Atomic             Coordinates (Angstroms)
 Number     Number       Type             X           Y           Z
 ---------------------------------------------------------------------
      1          6           0        3.575684    1.263014   -1.829129
      2          6           0        3.401539    1.898084   -0.595078
      3          6           0        2.929415    1.184271    0.510416
      4          6           0        2.640003   -0.169368    0.345514
      5          6           0        2.803045   -0.830369   -0.870950
      6          6           0        3.276408   -0.096788   -1.962890
      7          1           0        3.942922    1.825200   -2.682638
      8          1           0        3.633149    2.954017   -0.488271
      9          1           0        2.785366    1.650980    1.477293
     10          1           0        2.563624   -1.884112   -0.946592
     11          1           0        3.410684   -0.592606   -2.920063
     12          7           0        2.139530   -0.935514    1.508677
     13          8           0        1.891768   -2.127112    1.337371
     14          8           0        2.004498   -0.329915    2.569644
     15          6           0       -3.170336    2.441669    0.488227
     16          6           0       -1.859032    1.955202    0.469438
     17          6           0       -1.599122    0.627963    0.115273
     18          6           0       -2.679190   -0.188787   -0.215881
     19          6           0       -3.996754    0.266436   -0.206560
     20          6           0       -4.233139    1.597222    0.150763
     21          1           0       -3.363103    3.474078    0.764576
     22          1           0       -1.031688    2.608737    0.731048
     23          1           0       -0.593732    0.225366    0.092435
     24          1           0       -4.800859   -0.409008   -0.472285
     25          1           0       -5.252539    1.972294    0.164485
     26          7           0       -2.416488   -1.595753   -0.592490
     27          8           0       -3.385449   -2.295076   -0.880066
     28          8           0       -1.246596   -1.972568   -0.592969
 ---------------------------------------------------------------------

 SCF Done:  E(RHF) =  -868.337124580     A.U. after   16 cycles
 E2 =    -0.2601286880D+01 EUMP2 =    -0.87093841145984D+03

 The electronic state is 1-A.
 Alpha  occ. eigenvalues --  -20.60730 -20.60609 -20.60446 -20.60410 -15.85723
 Alpha  occ. eigenvalues --  -15.85480 -11.31280 -11.30914 -11.27946 -11.27746
 Alpha  occ. eigenvalues --  -11.27617 -11.27504 -11.27500 -11.27274 -11.26949
 Alpha  occ. eigenvalues --  -11.26806 -11.26545 -11.26535  -1.59754  -1.59500
 Alpha  occ. eigenvalues --   -1.39290  -1.39052  -1.19471  -1.19099  -1.08827
 Alpha  occ. eigenvalues --   -1.08486  -1.04868  -1.04517  -0.95622  -0.95309
 Alpha  occ. eigenvalues --   -0.86253  -0.85919  -0.82431  -0.82139  -0.77459
 Alpha  occ. eigenvalues --   -0.77175  -0.71927  -0.71719  -0.71110  -0.70815
 Alpha  occ. eigenvalues --   -0.70528  -0.70213  -0.65092  -0.64849  -0.64756
 Alpha  occ. eigenvalues --   -0.64535  -0.62186  -0.61877  -0.55350  -0.55040
 Alpha  occ. eigenvalues --   -0.53235  -0.52936  -0.52834  -0.52603  -0.48721
 Alpha  occ. eigenvalues --   -0.48671  -0.48468  -0.48453  -0.44658  -0.44407
 Alpha  occ. eigenvalues --   -0.37470  -0.37088  -0.36482  -0.36113
 Alpha virt. eigenvalues --    0.05045   0.05374   0.11143   0.11537   0.16497
 Alpha virt. eigenvalues --    0.16850   0.21226   0.21551   0.26821   0.27328
 Alpha virt. eigenvalues --    0.28203   0.28347   0.30817   0.30998   0.32171

 Mulliken charges:
               1
     1  C   -0.171117
     2  C   -0.219399
     3  C   -0.179458
     4  C    0.149234
     5  C   -0.166514
     6  C   -0.218660
     7  H    0.225901
     8  H    0.221632
     9  H    0.272949
    10  H    0.286088
    11  H    0.226685
    12  N    0.488265
    13  O   -0.445679
    14  O   -0.466873
    15  C   -0.170838
    16  C   -0.218280
    17  C   -0.167320
    18  C    0.158296
    19  C   -0.170443
    20  C   -0.218813
    21  H    0.224046
    22  H    0.220563
    23  H    0.273964
    24  H    0.275224
    25  H    0.222458
    26  N    0.487808
    27  O   -0.461870
    28  O   -0.457847
 Sum of Mulliken charges =  -0.00000

 Dipole moment (field-independent basis, Debye):
    X=              0.9232    Y=              7.3178    Z=             -2.8738  Tot=              7.9159
 Quadrupole moment (field-independent basis, Debye-Ang):
   XX=            -86.5317   YY=           -104.7336   ZZ=           -107.8846
   XY=             -5.8066   XZ=            -13.3175   YZ=              3.0468

 Normal termination of Gaussian 16 at Thu May  6 08:06:52 2021.
