 Gaussian 16, Revision A.03,
 Gaussian 16:  EM64L-G16RevA.03 25-Dec-2016

 -------------
 #p 6-31g* mp2
 -------------

 ------------------------------------------------------
 Input file generated by CHIRIPA (05-May-2021 14:51:14)
 ------------------------------------------------------
 Symbolic Z-matrix:
 Charge =  0 Multiplicity = 1

                         Standard orientation:
 ---------------------------------------------------------------------
 Center     Atomic      Atomic             Coordinates (Angstroms)
 Number     Number       Type             X           Y           Z
 ---------------------------------------------------------------------
      1          6           0        1.935210   -0.926478    0.143682
      2          6           0        2.182461   -1.780837    1.387436
      3          6           0        1.246430   -2.986872    1.471815
      4          1           0        0.891621   -0.583160    0.143992
      5          1           0        2.058568   -1.550908   -0.752010
      6          1           0        2.060030   -1.154649    2.280473
      7          1           0        3.225635   -2.122003    1.384264
      8          1           0        1.373502   -3.634979    0.598654
      9          1           0        0.201274   -2.662128    1.499955
     10          1           0        1.440497   -3.583728    2.368454
     11          6           0        2.863247    0.282976    0.045217
     12          6           0        2.615997    1.137334   -1.198537
     13          6           0        3.552027    2.343369   -1.282916
     14          1           0        2.739889    0.907406    0.940909
     15          1           0        3.906836   -0.060343    0.044907
     16          1           0        1.572823    1.478500   -1.195365
     17          1           0        2.738428    0.511146   -2.091574
     18          1           0        4.597183    2.018626   -1.311056
     19          1           0        3.424956    2.991476   -0.409755
     20          1           0        3.357960    2.940225   -2.179555
     21          6           0       -2.750599   -0.161120   -0.570691
     22          6           0       -2.045572   -1.512374   -0.693321
     23          6           0       -2.760455   -2.467519   -1.649581
     24          1           0       -3.781612   -0.322483   -0.227296
     25          1           0       -2.821068    0.299477   -1.565818
     26          1           0       -1.975222   -1.969659    0.301946
     27          1           0       -1.016059   -1.347760   -1.036280
     28          1           0       -2.817875   -2.035661   -2.653973
     29          1           0       -3.782487   -2.661093   -1.308143
     30          1           0       -2.239527   -3.427318   -1.722247
     31          6           0       -2.047859    0.804623    0.381792
     32          6           0       -2.752885    2.155876    0.504422
     33          6           0       -2.038003    3.111021    1.460682
     34          1           0       -1.977390    0.344026    1.376920
     35          1           0       -1.016846    0.965986    0.038397
     36          1           0       -3.782398    1.991263    0.847380
     37          1           0       -2.823235    2.613161   -0.490845
     38          1           0       -1.015971    3.304595    1.119244
     39          1           0       -1.980583    2.679163    2.465074
     40          1           0       -2.558930    4.070821    1.533348
 ---------------------------------------------------------------------

 SCF Done:  E(RHF) =  -470.732203178     A.U. after   11 cycles
 E2 =    -0.1585187583D+01 EUMP2 =    -0.47231739076150D+03

 The electronic state is 1-A.
 Alpha  occ. eigenvalues --  -11.21667 -11.21651 -11.21559 -11.21550 -11.21475
 Alpha  occ. eigenvalues --  -11.21394 -11.21372 -11.21267 -11.21136 -11.21102
 Alpha  occ. eigenvalues --  -11.21054 -11.20992  -1.08516  -1.08385  -1.03579
 Alpha  occ. eigenvalues --   -1.03500  -0.96024  -0.95954  -0.87034  -0.86979
 Alpha  occ. eigenvalues --   -0.79726  -0.79518  -0.78565  -0.77985  -0.65255
 Alpha  occ. eigenvalues --   -0.64923  -0.60969  -0.60924  -0.59453  -0.59262
 Alpha  occ. eigenvalues --   -0.57693  -0.57518  -0.55318  -0.55243  -0.52718
 Alpha  occ. eigenvalues --   -0.52655  -0.52445  -0.52400  -0.50002  -0.49881
 Alpha  occ. eigenvalues --   -0.48190  -0.47733  -0.46722  -0.46669  -0.46554
 Alpha  occ. eigenvalues --   -0.45731  -0.45704  -0.44783  -0.43813  -0.43756
 Alpha virt. eigenvalues --    0.20395   0.22539   0.23586   0.24662   0.24861
 Alpha virt. eigenvalues --    0.25802   0.26970   0.27525   0.28591   0.30398
 Alpha virt. eigenvalues --    0.30481   0.31305   0.31704   0.31906   0.32062

 Mulliken charges:
               1
     1  C   -0.310004
     2  C   -0.298665
     3  C   -0.479689
     4  H    0.163338
     5  H    0.148176
     6  H    0.151529
     7  H    0.151431
     8  H    0.154591
     9  H    0.160019
    10  H    0.159485
    11  C   -0.297119
    12  C   -0.302434
    13  C   -0.475587
    14  H    0.149436
    15  H    0.149623
    16  H    0.152163
    17  H    0.152021
    18  H    0.155602
    19  H    0.155313
    20  H    0.160169
    21  C   -0.297668
    22  C   -0.308012
    23  C   -0.475289
    24  H    0.149690
    25  H    0.149501
    26  H    0.153843
    27  H    0.159326
    28  H    0.154988
    29  H    0.154815
    30  H    0.160702
    31  C   -0.305748
    32  C   -0.299088
    33  C   -0.475791
    34  H    0.148980
    35  H    0.155063
    36  H    0.152434
    37  H    0.152229
    38  H    0.154698
    39  H    0.155219
    40  H    0.160711
 Sum of Mulliken charges =  -0.00000

 Dipole moment (field-independent basis, Debye):
    X=             -0.0304    Y=              0.0076    Z=             -0.0082  Tot=              0.0324
 Quadrupole moment (field-independent basis, Debye-Ang):
   XX=            -84.6096   YY=            -85.8749   ZZ=            -84.3993
   XY=             -1.0298   XZ=             -0.9716   YZ=             -0.2894

 Normal termination of Gaussian 16 at Thu May  6 02:27:13 2021.
