 Gaussian 16, Revision A.03,
 Gaussian 16:  EM64L-G16RevA.03 25-Dec-2016

 -------------
 #p 6-31g* mp2
 -------------

 ------------------------------------------------------
 Input file generated by CHIRIPA (05-May-2021 14:55:23)
 ------------------------------------------------------
 Symbolic Z-matrix:
 Charge =  0 Multiplicity = 1

                         Standard orientation:
 ---------------------------------------------------------------------
 Center     Atomic      Atomic             Coordinates (Angstroms)
 Number     Number       Type             X           Y           Z
 ---------------------------------------------------------------------
      1          6           0       -4.831227    2.031932    0.286329
      2          6           0       -5.318147    0.761414    0.610698
      3          6           0       -4.553590   -0.379738    0.350367
      4          6           0       -3.300829   -0.212920   -0.237895
      5          6           0       -2.788102    1.039410   -0.572665
      6          6           0       -3.569982    2.166637   -0.303277
      7          1           0       -5.431883    2.912997    0.492078
      8          1           0       -6.297291    0.653784    1.068671
      9          1           0       -4.906196   -1.375258    0.591253
     10          1           0       -1.808292    1.114922   -1.028393
     11          1           0       -3.189282    3.152087   -0.556259
     12          7           0       -2.482256   -1.413636   -0.518289
     13          8           0       -1.381739   -1.239840   -1.037225
     14          8           0       -2.956676   -2.505817   -0.213817
     15          6           0        3.883294   -0.488679    0.491918
     16          6           0        2.459172    0.065791    0.541148
     17          6           0        1.441376   -0.962125    1.036400
     18          1           0        3.903868   -1.371474   -0.161683
     19          1           0        4.169183   -0.835419    1.494631
     20          1           0        2.176561    0.412652   -0.461067
     21          1           0        2.442026    0.947483    1.194555
     22          1           0        1.696044   -1.300969    2.045821
     23          1           0        1.429071   -1.838838    0.380791
     24          1           0        0.430003   -0.544707    1.063723
     25          6           0        4.912199    0.527150   -0.001211
     26          6           0        6.336321   -0.027321   -0.050442
     27          6           0        7.354117    1.000595   -0.545693
     28          1           0        4.626311    0.873889   -1.003924
     29          1           0        4.891625    1.409945    0.652389
     30          1           0        6.353467   -0.909013   -0.703849
     31          1           0        6.618932   -0.374182    0.951773
     32          1           0        7.366421    1.877309    0.109915
     33          1           0        7.099448    1.339439   -1.555114
     34          1           0        8.365490    0.583178   -0.573016
 ---------------------------------------------------------------------

 SCF Done:  E(RHF) =  -669.535703260     A.U. after   15 cycles
 E2 =    -0.2091287363D+01 EUMP2 =    -0.67162699062296D+03

 The electronic state is 1-A.
 Alpha  occ. eigenvalues --  -20.60887 -20.60862 -15.85899 -11.31256 -11.27820
 Alpha  occ. eigenvalues --  -11.27815 -11.27560 -11.26834 -11.26824 -11.21225
 Alpha  occ. eigenvalues --  -11.20938 -11.20869 -11.20781 -11.20755 -11.19918
 Alpha  occ. eigenvalues --   -1.59936  -1.39492  -1.19425  -1.08824  -1.07879
 Alpha  occ. eigenvalues --   -1.04825  -1.02915  -0.95668  -0.95334  -0.86354
 Alpha  occ. eigenvalues --   -0.86224  -0.82494  -0.79003  -0.77690  -0.77543
 Alpha  occ. eigenvalues --   -0.72131  -0.71256  -0.70532  -0.65081  -0.64828
 Alpha  occ. eigenvalues --   -0.64509  -0.62172  -0.60302  -0.58751  -0.56963
 Alpha  occ. eigenvalues --   -0.55328  -0.54614  -0.53155  -0.52917  -0.52033
 Alpha  occ. eigenvalues --   -0.51773  -0.49296  -0.48890  -0.48863  -0.47313
 Alpha  occ. eigenvalues --   -0.46051  -0.45223  -0.45161  -0.44854  -0.43125
 Alpha  occ. eigenvalues --   -0.37405  -0.36427
 Alpha virt. eigenvalues --    0.04972   0.11200   0.16442   0.21278   0.23375
 Alpha virt. eigenvalues --    0.24755   0.27006   0.27292   0.27803   0.28215
 Alpha virt. eigenvalues --    0.28853   0.30770   0.31815   0.32132   0.32320

 Mulliken charges:
               1
     1  C   -0.170707
     2  C   -0.218493
     3  C   -0.170860
     4  C    0.158203
     5  C   -0.171778
     6  C   -0.218442
     7  H    0.225866
     8  H    0.223715
     9  H    0.275831
    10  H    0.276120
    11  H    0.223850
    12  N    0.487995
    13  O   -0.457905
    14  O   -0.459293
    15  C   -0.298022
    16  C   -0.300731
    17  C   -0.469592
    18  H    0.152105
    19  H    0.148045
    20  H    0.151591
    21  H    0.144836
    22  H    0.146942
    23  H    0.168145
    24  H    0.157322
    25  C   -0.297685
    26  C   -0.299330
    27  C   -0.475368
    28  H    0.148605
    29  H    0.147152
    30  H    0.152645
    31  H    0.151357
    32  H    0.153898
    33  H    0.154586
    34  H    0.159398
 Sum of Mulliken charges =  -0.00000

 Dipole moment (field-independent basis, Debye):
    X=             -3.0900    Y=              4.1199    Z=              0.8985  Tot=              5.2277
 Quadrupole moment (field-independent basis, Debye-Ang):
   XX=            -74.7116   YY=            -95.4685   ZZ=            -94.6869
   XY=            -11.9391   XZ=             -4.0153   YZ=             -1.9240

 Normal termination of Gaussian 16 at Thu May  6 14:15:47 2021.
