 Gaussian 16, Revision A.03,
 Gaussian 16:  EM64L-G16RevA.03 25-Dec-2016

 -------------
 #p 6-31g* mp2
 -------------

 ------------------------------------------------------
 Input file generated by CHIRIPA (05-May-2021 14:55:23)
 ------------------------------------------------------
 Symbolic Z-matrix:
 Charge =  0 Multiplicity = 1

                         Standard orientation:
 ---------------------------------------------------------------------
 Center     Atomic      Atomic             Coordinates (Angstroms)
 Number     Number       Type             X           Y           Z
 ---------------------------------------------------------------------
      1          6           0        4.385074   -0.935411   -1.578400
      2          6           0        3.820298   -1.894902   -0.731685
      3          6           0        2.947776   -1.513182    0.291810
      4          6           0        2.660650   -0.157210    0.440771
      5          6           0        3.207380    0.822458   -0.386651
      6          6           0        4.077355    0.417821   -1.403489
      7          1           0        5.061881   -1.240842   -2.370890
      8          1           0        4.057477   -2.946553   -0.865183
      9          1           0        2.496453   -2.235072    0.961587
     10          1           0        2.951981    1.863278   -0.228910
     11          1           0        4.514491    1.165166   -2.059563
     12          7           0        1.738298    0.259030    1.520776
     13          8           0        1.501353    1.459990    1.631188
     14          8           0        1.269768   -0.623561    2.236422
     15          6           0       -4.052245   -0.236214   -0.657608
     16          6           0       -4.681249   -1.195198    0.353672
     17          6           0       -5.582874   -2.240183   -0.304258
     18          1           0       -4.849766    0.267760   -1.220559
     19          1           0       -3.471187   -0.814965   -1.388918
     20          1           0       -5.259815   -0.614695    1.083667
     21          1           0       -3.882141   -1.696806    0.914413
     22          1           0       -5.014553   -2.844264   -1.018889
     23          1           0       -6.400056   -1.756005   -0.848673
     24          1           0       -6.022069   -2.915257    0.436851
     25          6           0       -3.148177    0.814292   -0.015092
     26          6           0       -2.519173    1.773275   -1.026372
     27          6           0       -1.617547    2.818261   -0.368442
     28          1           0       -3.729235    1.393043    0.716217
     29          1           0       -2.350654    0.310318    0.547860
     30          1           0       -3.318281    2.274884   -1.587113
     31          1           0       -1.940606    1.192773   -1.756367
     32          1           0       -0.800366    2.334083    0.175972
     33          1           0       -2.185869    3.422342    0.346189
     34          1           0       -1.178351    3.493334   -1.109551
 ---------------------------------------------------------------------

 SCF Done:  E(RHF) =  -669.536365943     A.U. after   15 cycles
 E2 =    -0.2091094272D+01 EUMP2 =    -0.67162746021440D+03

 The electronic state is 1-A.
 Alpha  occ. eigenvalues --  -20.61012 -20.61007 -15.86026 -11.31316 -11.27880
 Alpha  occ. eigenvalues --  -11.27870 -11.27612 -11.26879 -11.26868 -11.21058
 Alpha  occ. eigenvalues --  -11.20895 -11.20816 -11.20665 -11.20603 -11.20051
 Alpha  occ. eigenvalues --   -1.60065  -1.39621  -1.19484  -1.08895  -1.07780
 Alpha  occ. eigenvalues --   -1.04875  -1.02874  -0.95741  -0.95307  -0.86320
 Alpha  occ. eigenvalues --   -0.86277  -0.82574  -0.78941  -0.77637  -0.77568
 Alpha  occ. eigenvalues --   -0.72248  -0.71376  -0.70592  -0.65140  -0.64878
 Alpha  occ. eigenvalues --   -0.64415  -0.62222  -0.60274  -0.58703  -0.56919
 Alpha  occ. eigenvalues --   -0.55382  -0.54588  -0.53210  -0.52966  -0.52024
 Alpha  occ. eigenvalues --   -0.51715  -0.49254  -0.49016  -0.48994  -0.47256
 Alpha  occ. eigenvalues --   -0.46018  -0.45173  -0.45092  -0.44818  -0.43136
 Alpha  occ. eigenvalues --   -0.37462  -0.36475
 Alpha virt. eigenvalues --    0.04854   0.11177   0.16323   0.21294   0.23473
 Alpha virt. eigenvalues --    0.24935   0.27181   0.27298   0.27945   0.28259
 Alpha virt. eigenvalues --    0.28833   0.30820   0.31978   0.32298   0.32518

 Mulliken charges:
               1
     1  C   -0.170490
     2  C   -0.218609
     3  C   -0.170914
     4  C    0.157983
     5  C   -0.170706
     6  C   -0.218576
     7  H    0.226130
     8  H    0.223887
     9  H    0.275729
    10  H    0.276576
    11  H    0.224086
    12  N    0.487608
    13  O   -0.458465
    14  O   -0.458683
    15  C   -0.297491
    16  C   -0.299814
    17  C   -0.475247
    18  H    0.147400
    19  H    0.146248
    20  H    0.152299
    21  H    0.154806
    22  H    0.153142
    23  H    0.153894
    24  H    0.159386
    25  C   -0.299550
    26  C   -0.299006
    27  C   -0.484675
    28  H    0.150118
    29  H    0.157288
    30  H    0.148112
    31  H    0.145979
    32  H    0.174969
    33  H    0.154819
    34  H    0.151768
 Sum of Mulliken charges =  -0.00000

 Dipole moment (field-independent basis, Debye):
    X=              3.4802    Y=             -1.5084    Z=             -3.6458  Tot=              5.2611
 Quadrupole moment (field-independent basis, Debye-Ang):
   XX=            -78.3749   YY=            -90.3440   ZZ=            -98.6408
   XY=             -4.9735   XZ=             -9.8846   YZ=             -1.5380

 Normal termination of Gaussian 16 at Thu May  6 12:36:54 2021.
