 Gaussian 16, Revision A.03,
 Gaussian 16:  EM64L-G16RevA.03 25-Dec-2016

 -------------
 #p 6-31g* mp2
 -------------

 ------------------------------------------------------
 Input file generated by CHIRIPA (05-May-2021 14:53:16)
 ------------------------------------------------------
 Symbolic Z-matrix:
 Charge =  0 Multiplicity = 1

                         Standard orientation:
 ---------------------------------------------------------------------
 Center     Atomic      Atomic             Coordinates (Angstroms)
 Number     Number       Type             X           Y           Z
 ---------------------------------------------------------------------
      1          6           0        5.098898   -0.438540    0.350002
      2          6           0        6.168279   -0.791232   -0.684414
      3          6           0        7.048667   -1.962890   -0.248606
      4          1           0        5.586489   -0.197472    1.304510
      5          1           0        4.471212   -1.321486    0.533879
      6          1           0        6.792900    0.092518   -0.867311
      7          1           0        5.678096   -1.031301   -1.636623
      8          1           0        6.442809   -2.859959   -0.084882
      9          1           0        7.563947   -1.729754    0.688802
     10          1           0        7.806185   -2.198094   -1.002732
     11          6           0        4.210802    0.730858   -0.071333
     12          6           0        3.141420    1.083551    0.963083
     13          6           0        2.261033    2.255209    0.527276
     14          1           0        4.838488    1.613805   -0.255210
     15          1           0        3.723210    0.489791   -1.025841
     16          1           0        3.631604    1.323620    1.915293
     17          1           0        2.516799    0.199801    1.145980
     18          1           0        1.745752    2.022073   -0.410133
     19          1           0        2.866891    3.152277    0.363551
     20          1           0        1.503515    2.490413    1.281401
     21          6           0       -1.532946    1.219377   -0.511550
     22          6           0       -2.781904    1.845920   -0.575342
     23          6           0       -3.954100    1.116886   -0.353954
     24          6           0       -3.839975   -0.243111   -0.069924
     25          6           0       -2.610271   -0.895913    0.000556
     26          6           0       -1.451259   -0.147129   -0.224311
     27          1           0       -0.627476    1.793379   -0.684880
     28          1           0       -2.848370    2.907029   -0.798216
     29          1           0       -4.933941    1.576731   -0.397233
     30          1           0       -2.575921   -1.955130    0.224825
     31          1           0       -0.482658   -0.636352   -0.174128
     32          7           0       -5.073948   -1.025360    0.166290
     33          8           0       -4.946465   -2.222295    0.414750
     34          8           0       -6.145254   -0.426740    0.098502
 ---------------------------------------------------------------------

 SCF Done:  E(RHF) =  -669.535474874     A.U. after   15 cycles
 E2 =    -0.2091066891D+01 EUMP2 =    -0.67162654176485D+03

 The electronic state is 1-A.
 Alpha  occ. eigenvalues --  -20.60721 -20.60716 -15.85775 -11.31126 -11.27703
 Alpha  occ. eigenvalues --  -11.27697 -11.27378 -11.26705 -11.26689 -11.22657
 Alpha  occ. eigenvalues --  -11.22372 -11.22250 -11.22175 -11.22062 -11.21536
 Alpha  occ. eigenvalues --   -1.59797  -1.39351  -1.19297  -1.09246  -1.08688
 Alpha  occ. eigenvalues --   -1.04703  -1.04367  -0.96832  -0.95525  -0.87853
 Alpha  occ. eigenvalues --   -0.86096  -0.82365  -0.80441  -0.79011  -0.77417
 Alpha  occ. eigenvalues --   -0.71992  -0.71121  -0.70415  -0.65887  -0.64947
 Alpha  occ. eigenvalues --   -0.64709  -0.62065  -0.61762  -0.60210  -0.58409
 Alpha  occ. eigenvalues --   -0.56237  -0.55127  -0.53506  -0.53237  -0.53023
 Alpha  occ. eigenvalues --   -0.52793  -0.50757  -0.48756  -0.48749  -0.48738
 Alpha  occ. eigenvalues --   -0.47467  -0.46561  -0.46464  -0.44760  -0.44599
 Alpha  occ. eigenvalues --   -0.37264  -0.36313
 Alpha virt. eigenvalues --    0.05118   0.11333   0.16597   0.19262   0.22519
 Alpha virt. eigenvalues --    0.23846   0.25496   0.25579   0.26825   0.27716
 Alpha virt. eigenvalues --    0.28907   0.29984   0.30789   0.31374   0.32000

 Mulliken charges:
               1
     1  C   -0.298696
     2  C   -0.300199
     3  C   -0.476140
     4  H    0.151743
     5  H    0.149095
     6  H    0.153017
     7  H    0.152048
     8  H    0.155741
     9  H    0.156222
    10  H    0.162018
    11  C   -0.299051
    12  C   -0.299717
    13  C   -0.482036
    14  H    0.152123
    15  H    0.147999
    16  H    0.157540
    17  H    0.148770
    18  H    0.146209
    19  H    0.161716
    20  H    0.163476
    21  C   -0.175296
    22  C   -0.220203
    23  C   -0.170710
    24  C    0.158158
    25  C   -0.170898
    26  C   -0.221761
    27  H    0.234712
    28  H    0.223722
    29  H    0.275314
    30  H    0.275272
    31  H    0.223062
    32  N    0.488057
    33  O   -0.460708
    34  O   -0.460599
 Sum of Mulliken charges =  -0.00000

 Dipole moment (field-independent basis, Debye):
    X=              4.6181    Y=              2.7946    Z=             -0.7747  Tot=              5.4531
 Quadrupole moment (field-independent basis, Debye-Ang):
   XX=           -126.2263   YY=            -93.0172   ZZ=            -95.1998
   XY=            -13.2358   XZ=              3.7140   YZ=             -0.1480

 Normal termination of Gaussian 16 at Wed May  5 23:36:32 2021.
