 Gaussian 16, Revision A.03,
 Gaussian 16:  EM64L-G16RevA.03 25-Dec-2016

 -------------
 #p 6-31g* mp2
 -------------

 ------------------------------------------------------
 Input file generated by CHIRIPA (05-May-2021 14:51:13)
 ------------------------------------------------------
 Symbolic Z-matrix:
 Charge =  0 Multiplicity = 1

                         Standard orientation:
 ---------------------------------------------------------------------
 Center     Atomic      Atomic             Coordinates (Angstroms)
 Number     Number       Type             X           Y           Z
 ---------------------------------------------------------------------
      1          6           0       -2.420848    1.124840   -0.337880
      2          6           0       -2.139038    2.275758    0.628533
      3          6           0       -0.977778    3.159688    0.172530
      4          1           0       -1.513806    0.514400   -0.445502
      5          1           0       -2.640649    1.536181   -1.332807
      6          1           0       -1.921192    1.862427    1.621668
      7          1           0       -3.046914    2.883418    0.734016
      8          1           0       -1.189993    3.599313   -0.807416
      9          1           0       -0.057874    2.572521    0.085279
     10          1           0       -0.793582    3.976020    0.877891
     11          6           0       -3.579075    0.232267    0.104335
     12          6           0       -3.860885   -0.918651   -0.862077
     13          6           0       -5.022145   -1.802581   -0.406075
     14          1           0       -3.359274   -0.179073    1.099263
     15          1           0       -4.486117    0.842707    0.211958
     16          1           0       -2.953009   -1.526311   -0.967560
     17          1           0       -4.078731   -0.505320   -1.855212
     18          1           0       -5.942049   -1.215414   -0.318823
     19          1           0       -4.809930   -2.242206    0.573872
     20          1           0       -5.206341   -2.618913   -1.111435
     21          6           0        3.444863   -0.073324   -0.021768
     22          6           0        4.890556   -0.446304   -0.351677
     23          6           0        5.768233    0.775174   -0.626395
     24          1           0        3.022252    0.503514   -0.855795
     25          1           0        3.435469    0.590483    0.853828
     26          1           0        4.897124   -1.110323   -1.225548
     27          1           0        5.309713   -1.022486    0.483152
     28          1           0        5.791460    1.436812    0.245555
     29          1           0        5.376527    1.348475   -1.472853
     30          1           0        6.797510    0.485586   -0.860041
     31          6           0        2.555061   -1.283783    0.255311
     32          6           0        1.109367   -0.910803    0.585221
     33          6           0        0.231690   -2.132281    0.859940
     34          1           0        2.564454   -1.947590   -0.620283
     35          1           0        2.977671   -1.860621    1.089340
     36          1           0        0.690210   -0.334621   -0.249607
     37          1           0        1.102799   -0.246784    1.459092
     38          1           0        0.623397   -2.705583    1.706397
     39          1           0        0.208463   -2.793919   -0.012011
     40          1           0       -0.797587   -1.842693    1.093585
 ---------------------------------------------------------------------

 SCF Done:  E(RHF) =  -470.733137496     A.U. after   11 cycles
 E2 =    -0.1583998541D+01 EUMP2 =    -0.47231713603711D+03

 The electronic state is 1-A.
 Alpha  occ. eigenvalues --  -11.21706 -11.21637 -11.21569 -11.21554 -11.21470
 Alpha  occ. eigenvalues --  -11.21407 -11.21366 -11.21282 -11.21189 -11.21091
 Alpha  occ. eigenvalues --  -11.21047 -11.21013  -1.08510  -1.08384  -1.03608
 Alpha  occ. eigenvalues --   -1.03487  -0.96056  -0.95934  -0.87067  -0.86955
 Alpha  occ. eigenvalues --   -0.79701  -0.79534  -0.78369  -0.78155  -0.65215
 Alpha  occ. eigenvalues --   -0.64986  -0.61011  -0.60883  -0.59416  -0.59304
 Alpha  occ. eigenvalues --   -0.57683  -0.57534  -0.55353  -0.55201  -0.52751
 Alpha  occ. eigenvalues --   -0.52629  -0.52471  -0.52364  -0.50021  -0.49859
 Alpha  occ. eigenvalues --   -0.48087  -0.47814  -0.46857  -0.46512  -0.46050
 Alpha  occ. eigenvalues --   -0.45796  -0.45718  -0.45302  -0.43850  -0.43743
 Alpha virt. eigenvalues --    0.19735   0.22747   0.23494   0.24672   0.25872
 Alpha virt. eigenvalues --    0.26436   0.26628   0.27329   0.28596   0.29655
 Alpha virt. eigenvalues --    0.30695   0.31170   0.31770   0.31846   0.32484

 Mulliken charges:
               1
     1  C   -0.307732
     2  C   -0.298627
     3  C   -0.478061
     4  H    0.159795
     5  H    0.148937
     6  H    0.151546
     7  H    0.151660
     8  H    0.154648
     9  H    0.157610
    10  H    0.159912
    11  C   -0.298270
    12  C   -0.301793
    13  C   -0.475530
    14  H    0.149106
    15  H    0.149733
    16  H    0.153867
    17  H    0.151774
    18  H    0.155088
    19  H    0.155097
    20  H    0.160195
    21  C   -0.298899
    22  C   -0.299674
    23  C   -0.475795
    24  H    0.149958
    25  H    0.149758
    26  H    0.152056
    27  H    0.152047
    28  H    0.155330
    29  H    0.155420
    30  H    0.160368
    31  C   -0.297603
    32  C   -0.305801
    33  C   -0.479620
    34  H    0.149831
    35  H    0.149944
    36  H    0.156276
    37  H    0.152659
    38  H    0.156087
    39  H    0.155702
    40  H    0.163002
 Sum of Mulliken charges =  -0.00000

 Dipole moment (field-independent basis, Debye):
    X=              0.0545    Y=             -0.0268    Z=             -0.0019  Tot=              0.0608
 Quadrupole moment (field-independent basis, Debye-Ang):
   XX=            -85.5920   YY=            -85.6226   ZZ=            -83.5997
   XY=             -1.5471   XZ=              0.9179   YZ=              0.0490

 Normal termination of Gaussian 16 at Thu May  6 03:58:05 2021.
