 Gaussian 16, Revision A.03,
 Gaussian 16:  EM64L-G16RevA.03 25-Dec-2016

 -------------
 #p 6-31g* mp2
 -------------

 ------------------------------------------------------
 Input file generated by CHIRIPA (05-May-2021 14:51:11)
 ------------------------------------------------------
 Symbolic Z-matrix:
 Charge =  0 Multiplicity = 1

                         Standard orientation:
 ---------------------------------------------------------------------
 Center     Atomic      Atomic             Coordinates (Angstroms)
 Number     Number       Type             X           Y           Z
 ---------------------------------------------------------------------
      1          6           0       -4.744662   -0.033127    0.278087
      2          6           0       -5.930731   -0.511561   -0.559962
      3          6           0       -7.241823    0.174163   -0.174456
      4          1           0       -4.957075   -0.215729    1.340387
      5          1           0       -4.638340    1.054464    0.163043
      6          1           0       -6.033932   -1.598127   -0.444462
      7          1           0       -5.715389   -0.327974   -1.620405
      8          1           0       -7.163139    1.258070   -0.306952
      9          1           0       -7.483492   -0.019299    0.875673
     10          1           0       -8.076443   -0.182671   -0.785961
     11          6           0       -3.426845   -0.709518   -0.095518
     12          6           0       -2.240775   -0.231085    0.742531
     13          6           0       -0.929683   -0.916809    0.357025
     14          1           0       -3.533166   -1.797110    0.019526
     15          1           0       -3.214431   -0.526917   -1.157818
     16          1           0       -2.456118   -0.414672    1.802974
     17          1           0       -2.137574    0.855481    0.627031
     18          1           0       -0.688015   -0.723346   -0.693104
     19          1           0       -1.008368   -2.000716    0.489521
     20          1           0       -0.095064   -0.559975    0.968530
     21          6           0        4.766071    0.167126    0.189613
     22          6           0        5.350707   -1.076250   -0.481357
     23          6           0        6.711924   -1.472261    0.091407
     24          1           0        5.470344    1.002630    0.076134
     25          1           0        4.671249   -0.017386    1.268668
     26          1           0        5.443108   -0.889946   -1.559026
     27          1           0        4.644875   -1.908841   -0.366434
     28          1           0        6.632133   -1.684898    1.162397
     29          1           0        7.434902   -0.660212   -0.036970
     30          1           0        7.111454   -2.363452   -0.402571
     31          6           0        3.405436    0.575521   -0.372183
     32          6           0        2.820799    1.818895    0.298788
     33          6           0        1.459583    2.214906   -0.273976
     34          1           0        3.500258    0.760031   -1.451237
     35          1           0        2.701162   -0.259984   -0.258703
     36          1           0        3.526632    2.651487    0.183865
     37          1           0        2.728399    1.632591    1.376456
     38          1           0        0.736604    1.402858   -0.145599
     39          1           0        1.539373    2.427544   -1.344967
     40          1           0        1.060054    3.106098    0.220002
 ---------------------------------------------------------------------

 SCF Done:  E(RHF) =  -470.732863360     A.U. after   11 cycles
 E2 =    -0.1582965547D+01 EUMP2 =    -0.47231582890712D+03

 The electronic state is 1-A.
 Alpha  occ. eigenvalues --  -11.21649 -11.21611 -11.21567 -11.21550 -11.21427
 Alpha  occ. eigenvalues --  -11.21366 -11.21358 -11.21296 -11.21149 -11.21077
 Alpha  occ. eigenvalues --  -11.21045 -11.20928  -1.08460  -1.08381  -1.03586
 Alpha  occ. eigenvalues --   -1.03464  -0.96056  -0.95898  -0.87075  -0.86915
 Alpha  occ. eigenvalues --   -0.79651  -0.79524  -0.78266  -0.78193  -0.65121
 Alpha  occ. eigenvalues --   -0.64997  -0.61119  -0.60798  -0.59419  -0.59260
 Alpha  occ. eigenvalues --   -0.57671  -0.57506  -0.55470  -0.55057  -0.52754
 Alpha  occ. eigenvalues --   -0.52616  -0.52455  -0.52307  -0.50062  -0.49747
 Alpha  occ. eigenvalues --   -0.47948  -0.47839  -0.46688  -0.46527  -0.45822
 Alpha  occ. eigenvalues --   -0.45736  -0.45713  -0.45644  -0.43803  -0.43726
 Alpha virt. eigenvalues --    0.21253   0.22948   0.23611   0.25043   0.26312
 Alpha virt. eigenvalues --    0.26536   0.27275   0.27409   0.27869   0.29226
 Alpha virt. eigenvalues --    0.30780   0.31271   0.31612   0.31804   0.32171

 Mulliken charges:
               1
     1  C   -0.298374
     2  C   -0.299697
     3  C   -0.475733
     4  H    0.149652
     5  H    0.149830
     6  H    0.151908
     7  H    0.152056
     8  H    0.155277
     9  H    0.155170
    10  H    0.160294
    11  C   -0.298454
    12  C   -0.301948
    13  C   -0.481098
    14  H    0.149590
    15  H    0.150120
    16  H    0.152264
    17  H    0.154275
    18  H    0.156864
    19  H    0.156845
    20  H    0.161533
    21  C   -0.298148
    22  C   -0.299669
    23  C   -0.475674
    24  H    0.149528
    25  H    0.149288
    26  H    0.151824
    27  H    0.152168
    28  H    0.155112
    29  H    0.155089
    30  H    0.160153
    31  C   -0.300462
    32  C   -0.298914
    33  C   -0.486050
    34  H    0.149277
    35  H    0.151956
    36  H    0.151710
    37  H    0.150933
    38  H    0.168280
    39  H    0.154109
    40  H    0.159116
 Sum of Mulliken charges =  -0.00000

 Dipole moment (field-independent basis, Debye):
    X=             -0.0535    Y=             -0.0317    Z=             -0.0031  Tot=              0.0622
 Quadrupole moment (field-independent basis, Debye-Ang):
   XX=            -86.6476   YY=            -84.3453   ZZ=            -83.9630
   XY=              1.1600   XZ=             -0.6003   YZ=             -0.8670

 Normal termination of Gaussian 16 at Wed May  5 15:14:55 2021.
