 Gaussian 16, Revision A.03,
 Gaussian 16:  EM64L-G16RevA.03 25-Dec-2016

 -------------
 #p 6-31g* mp2
 -------------

 ------------------------------------------------------
 Input file generated by CHIRIPA (05-May-2021 14:53:17)
 ------------------------------------------------------
 Symbolic Z-matrix:
 Charge =  0 Multiplicity = 1

                         Standard orientation:
 ---------------------------------------------------------------------
 Center     Atomic      Atomic             Coordinates (Angstroms)
 Number     Number       Type             X           Y           Z
 ---------------------------------------------------------------------
      1          6           0        3.799351    1.091339    0.048761
      2          6           0        2.511673    1.159219    0.870505
      3          6           0        1.784276    2.495673    0.720248
      4          1           0        4.465629    1.909497    0.354762
      5          1           0        3.559934    1.262551   -1.009899
      6          1           0        2.753263    0.986556    1.927121
      7          1           0        1.848463    0.340689    0.562646
      8          1           0        1.514801    2.672097   -0.326107
      9          1           0        2.424742    3.321633    1.046121
     10          1           0        0.866599    2.522494    1.316075
     11          6           0        4.537844   -0.238625    0.188589
     12          6           0        5.825522   -0.306505   -0.633155
     13          6           0        6.552920   -1.642959   -0.482898
     14          1           0        4.777262   -0.409837    1.247249
     15          1           0        3.871567   -1.056783   -0.117412
     16          1           0        6.488732    0.512025   -0.325296
     17          1           0        5.583932   -0.133842   -1.689772
     18          1           0        5.912453   -2.468919   -0.808771
     19          1           0        6.822394   -1.819383    0.563457
     20          1           0        7.470597   -1.669780   -1.078725
     21          6           0       -5.646897    0.456274   -0.265532
     22          6           0       -5.349779   -0.734635    0.405270
     23          6           0       -4.029043   -1.181643    0.507197
     24          6           0       -3.025643   -0.409404   -0.076008
     25          6           0       -3.289767    0.781438   -0.750858
     26          6           0       -4.617757    1.209182   -0.840442
     27          1           0       -6.675693    0.796039   -0.339918
     28          1           0       -6.146991   -1.321398    0.852715
     29          1           0       -3.770875   -2.099803    1.020762
     30          1           0       -2.473666    1.344817   -1.186750
     31          1           0       -4.845552    2.134458   -1.361998
     32          7           0       -1.623599   -0.872435    0.025364
     33          8           0       -0.757670   -0.173911   -0.497003
     34          8           0       -1.417155   -1.925113    0.625269
 ---------------------------------------------------------------------

 SCF Done:  E(RHF) =  -669.536441249     A.U. after   15 cycles
 E2 =    -0.2091158268D+01 EUMP2 =    -0.67162759951687D+03

 The electronic state is 1-A.
 Alpha  occ. eigenvalues --  -20.61023 -20.61002 -15.86033 -11.31325 -11.27883
 Alpha  occ. eigenvalues --  -11.27878 -11.27617 -11.26884 -11.26874 -11.20752
 Alpha  occ. eigenvalues --  -11.20331 -11.20314 -11.20209 -11.20042 -11.19922
 Alpha  occ. eigenvalues --   -1.60067  -1.39623  -1.19490  -1.08901  -1.07311
 Alpha  occ. eigenvalues --   -1.04881  -1.02433  -0.95748  -0.94939  -0.86282
 Alpha  occ. eigenvalues --   -0.85966  -0.82581  -0.78514  -0.77638  -0.77090
 Alpha  occ. eigenvalues --   -0.72258  -0.71376  -0.70598  -0.65147  -0.64884
 Alpha  occ. eigenvalues --   -0.63929  -0.62227  -0.59811  -0.58321  -0.56535
 Alpha  occ. eigenvalues --   -0.55387  -0.54233  -0.53214  -0.52972  -0.51667
 Alpha  occ. eigenvalues --   -0.51367  -0.49116  -0.49008  -0.48832  -0.46830
 Alpha  occ. eigenvalues --   -0.45520  -0.45055  -0.44657  -0.44430  -0.42703
 Alpha  occ. eigenvalues --   -0.37467  -0.36480
 Alpha virt. eigenvalues --    0.04874   0.11175   0.16367   0.21286   0.23953
 Alpha virt. eigenvalues --    0.25279   0.27217   0.27710   0.28199   0.28716
 Alpha virt. eigenvalues --    0.28998   0.30917   0.32216   0.32705   0.32889

 Mulliken charges:
               1
     1  C   -0.297147
     2  C   -0.310090
     3  C   -0.470570
     4  H    0.143399
     5  H    0.148457
     6  H    0.144959
     7  H    0.182460
     8  H    0.153481
     9  H    0.147140
    10  H    0.155591
    11  C   -0.298863
    12  C   -0.298807
    13  C   -0.475221
    14  H    0.147159
    15  H    0.155955
    16  H    0.149090
    17  H    0.150768
    18  H    0.156046
    19  H    0.153941
    20  H    0.157108
    21  C   -0.170484
    22  C   -0.218622
    23  C   -0.170608
    24  C    0.157757
    25  C   -0.170721
    26  C   -0.218581
    27  H    0.226130
    28  H    0.223914
    29  H    0.275903
    30  H    0.276230
    31  H    0.224056
    32  N    0.489371
    33  O   -0.460410
    34  O   -0.458791
 Sum of Mulliken charges =  -0.00000

 Dipole moment (field-independent basis, Debye):
    X=             -5.3024    Y=              1.4526    Z=             -0.4133  Tot=              5.5133
 Quadrupole moment (field-independent basis, Debye-Ang):
   XX=            -66.2912   YY=            -94.3936   ZZ=            -93.6100
   XY=             -1.2684   XZ=              0.8766   YZ=             -2.3639

 Normal termination of Gaussian 16 at Thu May  6 17:15:48 2021.
