 Gaussian 16, Revision A.03,
 Gaussian 16:  EM64L-G16RevA.03 25-Dec-2016

 -------------
 #p 6-31g* mp2
 -------------

 ------------------------------------------------------
 Input file generated by CHIRIPA (05-May-2021 14:57:21)
 ------------------------------------------------------
 Symbolic Z-matrix:
 Charge =  0 Multiplicity = 1

                         Standard orientation:
 ---------------------------------------------------------------------
 Center     Atomic      Atomic             Coordinates (Angstroms)
 Number     Number       Type             X           Y           Z
 ---------------------------------------------------------------------
      1          6           0       -2.272399    1.916334    0.147836
      2          6           0       -3.642132    2.189747    0.222644
      3          6           0       -4.578917    1.157027    0.120315
      4          6           0       -4.108784   -0.143264   -0.057185
      5          6           0       -2.750655   -0.447624   -0.135545
      6          6           0       -1.831808    0.600840   -0.030705
      7          1           0       -1.551649    2.724691    0.228304
      8          1           0       -3.987183    3.210418    0.361266
      9          1           0       -5.645117    1.340501    0.174852
     10          1           0       -2.437061   -1.475184   -0.274106
     11          1           0       -0.768663    0.385549   -0.089156
     12          7           0       -5.091021   -1.244893   -0.166845
     13          8           0       -4.651192   -2.381921   -0.322905
     14          8           0       -6.282128   -0.950461   -0.094661
     15          6           0        3.097512    2.335689   -0.053924
     16          6           0        2.298281    1.327265    0.494557
     17          6           0        2.758659    0.008408    0.551285
     18          6           0        4.029015   -0.267805    0.048106
     19          6           0        4.848937    0.714917   -0.504412
     20          6           0        4.368050    2.026840   -0.550782
     21          1           0        2.731914    3.357516   -0.093968
     22          1           0        1.311149    1.564207    0.881177
     23          1           0        2.160768   -0.791688    0.970561
     24          1           0        5.828585    0.448022   -0.881872
     25          1           0        4.990929    2.807960   -0.977299
     26          7           0        4.527253   -1.660351    0.102679
     27          8           0        5.650131   -1.877778   -0.347328
     28          8           0        3.785458   -2.508031    0.594426
 ---------------------------------------------------------------------

 SCF Done:  E(RHF) =  -868.336410121     A.U. after   16 cycles
 E2 =    -0.2600146891D+01 EUMP2 =    -0.87093655701194D+03

 The electronic state is 1-A.
 Alpha  occ. eigenvalues --  -20.61356 -20.61350 -20.61083 -20.61076 -15.86419
 Alpha  occ. eigenvalues --  -15.86141 -11.31969 -11.31663 -11.28646 -11.28539
 Alpha  occ. eigenvalues --  -11.28385 -11.28255 -11.28244 -11.28140 -11.27751
 Alpha  occ. eigenvalues --  -11.27566 -11.27381 -11.27316  -1.60428  -1.60155
 Alpha  occ. eigenvalues --   -1.39977  -1.39703  -1.20181  -1.19869  -1.09540
 Alpha  occ. eigenvalues --   -1.09259  -1.05630  -1.05292  -0.96338  -0.96059
 Alpha  occ. eigenvalues --   -0.87025  -0.86698  -0.83182  -0.82880  -0.78204
 Alpha  occ. eigenvalues --   -0.77872  -0.72632  -0.72358  -0.71755  -0.71480
 Alpha  occ. eigenvalues --   -0.71287  -0.71030  -0.65847  -0.65781  -0.65522
 Alpha  occ. eigenvalues --   -0.65238  -0.63026  -0.62559  -0.56119  -0.55870
 Alpha  occ. eigenvalues --   -0.53938  -0.53773  -0.53609  -0.53338  -0.49407
 Alpha  occ. eigenvalues --   -0.49376  -0.49131  -0.49100  -0.45341  -0.45073
 Alpha  occ. eigenvalues --   -0.38160  -0.37892  -0.37229  -0.36887
 Alpha virt. eigenvalues --    0.04343   0.04654   0.10386   0.10706   0.15619
 Alpha virt. eigenvalues --    0.16093   0.18232   0.22061   0.24969   0.25690
 Alpha virt. eigenvalues --    0.28073   0.28789   0.30180   0.30640   0.32256

 Mulliken charges:
               1
     1  C   -0.171808
     2  C   -0.217874
     3  C   -0.170088
     4  C    0.159344
     5  C   -0.170026
     6  C   -0.222463
     7  H    0.218284
     8  H    0.224315
     9  H    0.277499
    10  H    0.279534
    11  H    0.220448
    12  N    0.487860
    13  O   -0.457731
    14  O   -0.459250
    15  C   -0.170093
    16  C   -0.223258
    17  C   -0.172316
    18  C    0.159575
    19  C   -0.168919
    20  C   -0.218088
    21  H    0.225062
    22  H    0.217319
    23  H    0.275858
    24  H    0.278786
    25  H    0.226447
    26  N    0.488036
    27  O   -0.457674
    28  O   -0.458779
 Sum of Mulliken charges =  -0.00000

 Dipole moment (field-independent basis, Debye):
    X=              1.8063    Y=              8.6742    Z=              0.1260  Tot=              8.8612
 Quadrupole moment (field-independent basis, Debye-Ang):
   XX=           -139.1153   YY=           -106.7775   ZZ=           -105.5108
   XY=              2.6079   XZ=             -5.3796   YZ=             -0.4036

 Normal termination of Gaussian 16 at Thu May  6 19:25:38 2021.
