 Gaussian 16, Revision A.03,
 Gaussian 16:  EM64L-G16RevA.03 25-Dec-2016

 -------------
 #p 6-31g* mp2
 -------------

 ------------------------------------------------------
 Input file generated by CHIRIPA (05-May-2021 14:53:13)
 ------------------------------------------------------
 Symbolic Z-matrix:
 Charge =  0 Multiplicity = 1

                         Standard orientation:
 ---------------------------------------------------------------------
 Center     Atomic      Atomic             Coordinates (Angstroms)
 Number     Number       Type             X           Y           Z
 ---------------------------------------------------------------------
      1          6           0       -4.665503   -0.045114    0.019774
      2          6           0       -4.958823   -1.372106   -0.680968
      3          6           0       -6.223960   -2.051125   -0.155462
      4          1           0       -4.566944   -0.221914    1.099577
      5          1           0       -5.524599    0.627635   -0.109673
      6          1           0       -4.098861   -2.041655   -0.551414
      7          1           0       -5.056505   -1.192156   -1.759250
      8          1           0       -7.096018   -1.405018   -0.299199
      9          1           0       -6.132933   -2.259344    0.915500
     10          1           0       -6.414742   -2.997992   -0.670152
     11          6           0       -3.403831    0.645724   -0.494672
     12          6           0       -3.110510    1.972716    0.206071
     13          6           0       -1.845373    2.651735   -0.319435
     14          1           0       -2.544734   -0.027025   -0.365225
     15          1           0       -3.502389    0.822524   -1.574474
     16          1           0       -3.012828    1.792766    1.284353
     17          1           0       -3.970473    2.642265    0.076516
     18          1           0       -1.936400    2.859954   -1.390397
     19          1           0       -0.973315    2.005628   -0.175698
     20          1           0       -1.654591    3.598602    0.195254
     21          6           0        0.920590   -0.000089    1.339353
     22          6           0        1.499750   -1.264000    1.185652
     23          6           0        2.735791   -1.405826    0.547972
     24          6           0        3.367816   -0.257286    0.073957
     25          6           0        2.816470    1.015623    0.211833
     26          6           0        1.579638    1.133691    0.852811
     27          1           0       -0.039903    0.100857    1.836000
     28          1           0        0.990200   -2.146258    1.562514
     29          1           0        3.206819   -2.372265    0.415516
     30          1           0        3.348388    1.876656   -0.174308
     31          1           0        1.132231    2.116522    0.970765
     32          7           0        4.676776   -0.394855   -0.602872
     33          8           0        5.213350    0.632584   -1.011643
     34          8           0        5.141379   -1.527515   -0.711784
 ---------------------------------------------------------------------

 SCF Done:  E(RHF) =  -669.535069809     A.U. after   15 cycles
 E2 =    -0.2092185418D+01 EUMP2 =    -0.67162725522685D+03

 The electronic state is 1-A.
 Alpha  occ. eigenvalues --  -20.60786 -20.60781 -15.85839 -11.31229 -11.27795
 Alpha  occ. eigenvalues --  -11.27779 -11.27545 -11.26821 -11.26770 -11.22492
 Alpha  occ. eigenvalues --  -11.22185 -11.22155 -11.22043 -11.21971 -11.21570
 Alpha  occ. eigenvalues --   -1.59861  -1.39414  -1.19402  -1.09169  -1.08796
 Alpha  occ. eigenvalues --   -1.04807  -1.04261  -0.96715  -0.95625  -0.87741
 Alpha  occ. eigenvalues --   -0.86201  -0.82451  -0.80331  -0.78956  -0.77496
 Alpha  occ. eigenvalues --   -0.72058  -0.71183  -0.70515  -0.65836  -0.65054
 Alpha  occ. eigenvalues --   -0.64822  -0.62209  -0.61610  -0.60084  -0.58305
 Alpha  occ. eigenvalues --   -0.56021  -0.55305  -0.53427  -0.53267  -0.53026
 Alpha  occ. eigenvalues --   -0.52837  -0.50630  -0.48820  -0.48811  -0.48624
 Alpha  occ. eigenvalues --   -0.47363  -0.46496  -0.46426  -0.44814  -0.44513
 Alpha  occ. eigenvalues --   -0.37360  -0.36384
 Alpha virt. eigenvalues --    0.05012   0.11088   0.16438   0.19724   0.22628
 Alpha virt. eigenvalues --    0.23843   0.25605   0.26244   0.26823   0.28198
 Alpha virt. eigenvalues --    0.28986   0.30116   0.30993   0.31404   0.32039

 Mulliken charges:
               1
     1  C   -0.298501
     2  C   -0.299769
     3  C   -0.476016
     4  H    0.147269
     5  H    0.151840
     6  H    0.150492
     7  H    0.154185
     8  H    0.156537
     9  H    0.154575
    10  H    0.162054
    11  C   -0.299244
    12  C   -0.299733
    13  C   -0.485409
    14  H    0.146766
    15  H    0.153647
    16  H    0.146247
    17  H    0.156288
    18  H    0.161438
    19  H    0.155278
    20  H    0.158764
    21  C   -0.172406
    22  C   -0.218703
    23  C   -0.170797
    24  C    0.158617
    25  C   -0.172517
    26  C   -0.219203
    27  H    0.226957
    28  H    0.223504
    29  H    0.275807
    30  H    0.276170
    31  H    0.228182
    32  N    0.488076
    33  O   -0.460084
    34  O   -0.460309
 Sum of Mulliken charges =  -0.00000

 Dipole moment (field-independent basis, Debye):
    X=             -4.7025    Y=              0.4738    Z=              2.3006  Tot=              5.2565
 Quadrupole moment (field-independent basis, Debye-Ang):
   XX=           -126.3644   YY=            -90.1806   ZZ=            -94.6635
   XY=              2.2371   XZ=              8.6442   YZ=             -1.6861

 Normal termination of Gaussian 16 at Wed May  5 20:10:21 2021.
