 Gaussian 16, Revision A.03,
 Gaussian 16:  EM64L-G16RevA.03 25-Dec-2016

 -------------
 #p 6-31g* mp2
 -------------

 ------------------------------------------------------
 Input file generated by CHIRIPA (05-May-2021 14:53:18)
 ------------------------------------------------------
 Symbolic Z-matrix:
 Charge =  0 Multiplicity = 1

                         Standard orientation:
 ---------------------------------------------------------------------
 Center     Atomic      Atomic             Coordinates (Angstroms)
 Number     Number       Type             X           Y           Z
 ---------------------------------------------------------------------
      1          6           0        4.782157    0.348007   -0.050549
      2          6           0        5.255546   -1.030064   -0.514025
      3          6           0        6.733122   -1.280370   -0.210860
      4          1           0        5.393579    1.121057   -0.535832
      5          1           0        4.957056    0.443800    1.030020
      6          1           0        5.078533   -1.123750   -1.593148
      7          1           0        4.642800   -1.799917   -0.027730
      8          1           0        6.922177   -1.213963    0.865452
      9          1           0        7.360385   -0.533953   -0.708860
     10          1           0        7.050394   -2.271236   -0.550543
     11          6           0        3.307097    0.613066   -0.346641
     12          6           0        2.833708    1.991136    0.116836
     13          6           0        1.356132    2.241443   -0.186329
     14          1           0        3.132198    0.517272   -1.427209
     15          1           0        2.695675   -0.159985    0.138642
     16          1           0        3.446454    2.760990   -0.369460
     17          1           0        3.010721    2.084822    1.195958
     18          1           0        0.728869    1.495026    0.311671
     19          1           0        1.167078    2.175035   -1.262642
     20          1           0        1.038860    3.232308    0.153353
     21          6           0       -5.275734    0.544980   -0.865577
     22          6           0       -4.849994   -0.748717   -1.184344
     23          6           0       -3.679220   -1.268987   -0.624737
     24          6           0       -2.955310   -0.464400    0.253832
     25          6           0       -3.353456    0.828279    0.591105
     26          6           0       -4.527425    1.327969    0.019569
     27          1           0       -6.186460    0.941145   -1.304926
     28          1           0       -5.429138   -1.359061   -1.871452
     29          1           0       -3.326658   -2.267228   -0.854152
     30          1           0       -2.755039    1.412846    1.279287
     31          1           0       -4.855653    2.333018    0.268947
     32          7           0       -1.714173   -1.004293    0.852577
     33          8           0       -1.094221   -0.275312    1.623863
     34          8           0       -1.384825   -2.146217    0.539249
 ---------------------------------------------------------------------

 SCF Done:  E(RHF) =  -669.536580164     A.U. after   15 cycles
 E2 =    -0.2090951881D+01 EUMP2 =    -0.67162753204459D+03

 The electronic state is 1-A.
 Alpha  occ. eigenvalues --  -20.60991 -20.60982 -15.86001 -11.31274 -11.27838
 Alpha  occ. eigenvalues --  -11.27829 -11.27572 -11.26838 -11.26826 -11.20899
 Alpha  occ. eigenvalues --  -11.20776 -11.20633 -11.20489 -11.20459 -11.20160
 Alpha  occ. eigenvalues --   -1.60038  -1.39596  -1.19442  -1.08857  -1.07630
 Alpha  occ. eigenvalues --   -1.04833  -1.02762  -0.95707  -0.95216  -0.86241
 Alpha  occ. eigenvalues --   -0.86235  -0.82542  -0.78838  -0.77601  -0.77432
 Alpha  occ. eigenvalues --   -0.72230  -0.71341  -0.70554  -0.65101  -0.64838
 Alpha  occ. eigenvalues --   -0.64250  -0.62181  -0.60147  -0.58600  -0.56833
 Alpha  occ. eigenvalues --   -0.55344  -0.54487  -0.53165  -0.52926  -0.51945
 Alpha  occ. eigenvalues --   -0.51649  -0.49174  -0.48990  -0.48964  -0.47169
 Alpha  occ. eigenvalues --   -0.45899  -0.45098  -0.44956  -0.44712  -0.43021
 Alpha  occ. eigenvalues --   -0.37419  -0.36430
 Alpha virt. eigenvalues --    0.04889   0.11218   0.16354   0.21322   0.23684
 Alpha virt. eigenvalues --    0.25062   0.27178   0.27461   0.27961   0.28401
 Alpha virt. eigenvalues --    0.28887   0.30801   0.31937   0.32394   0.32613

 Mulliken charges:
               1
     1  C   -0.297865
     2  C   -0.299842
     3  C   -0.475340
     4  H    0.146289
     5  H    0.149732
     6  H    0.150087
     7  H    0.155883
     8  H    0.154974
     9  H    0.153146
    10  H    0.158817
    11  C   -0.301304
    12  C   -0.296892
    13  C   -0.487326
    14  H    0.145721
    15  H    0.162045
    16  H    0.146874
    17  H    0.152907
    18  H    0.175232
    19  H    0.148616
    20  H    0.152681
    21  C   -0.170459
    22  C   -0.218644
    23  C   -0.170746
    24  C    0.158498
    25  C   -0.170201
    26  C   -0.218588
    27  H    0.225954
    28  H    0.223726
    29  H    0.275698
    30  H    0.276415
    31  H    0.223933
    32  N    0.488311
    33  O   -0.460005
    34  O   -0.458328
 Sum of Mulliken charges =  -0.00000

 Dipole moment (field-independent basis, Debye):
    X=             -4.6148    Y=              1.7388    Z=             -2.0111  Tot=              5.3258
 Quadrupole moment (field-independent basis, Debye-Ang):
   XX=            -71.1183   YY=            -93.4466   ZZ=            -94.5108
   XY=             -2.9353   XZ=              5.6202   YZ=              3.7723

 Normal termination of Gaussian 16 at Thu May  6 02:52:04 2021.
