 Gaussian 16, Revision A.03,
 Gaussian 16:  EM64L-G16RevA.03 25-Dec-2016

 -------------
 #p 6-31g* mp2
 -------------

 ------------------------------------------------------
 Input file generated by CHIRIPA (05-May-2021 14:57:23)
 ------------------------------------------------------
 Symbolic Z-matrix:
 Charge =  0 Multiplicity = 1

                         Standard orientation:
 ---------------------------------------------------------------------
 Center     Atomic      Atomic             Coordinates (Angstroms)
 Number     Number       Type             X           Y           Z
 ---------------------------------------------------------------------
      1          6           0        3.109579   -2.320794    0.715321
      2          6           0        2.712333   -1.498196    1.774590
      3          6           0        2.480775   -0.135195    1.566847
      4          6           0        2.656811    0.374172    0.281217
      5          6           0        3.051785   -0.419628   -0.794500
      6          6           0        3.277741   -1.779838   -0.563588
      7          1           0        3.287283   -3.378522    0.885700
      8          1           0        2.580951   -1.915572    2.768864
      9          1           0        2.172525    0.524375    2.368949
     10          1           0        3.174477    0.025280   -1.774511
     11          1           0        3.586172   -2.416295   -1.388112
     12          7           0        2.414636    1.815643    0.049025
     13          8           0        2.576711    2.240041   -1.093015
     14          8           0        2.067330    2.493775    1.013469
     15          6           0       -0.721733   -0.517063   -1.842831
     16          6           0       -1.488099   -1.602561   -1.405910
     17          6           0       -2.584576   -1.403554   -0.561706
     18          6           0       -2.887658   -0.099818   -0.172213
     19          6           0       -2.143394    1.002156   -0.590558
     20          6           0       -1.051246    0.779545   -1.434480
     21          1           0        0.128355   -0.680823   -2.498519
     22          1           0       -1.234528   -2.610623   -1.721435
     23          1           0       -3.194888   -2.225851   -0.208483
     24          1           0       -2.420744    1.995452   -0.259111
     25          1           0       -0.457860    1.624450   -1.772228
     26          7           0       -4.046159    0.123355    0.721359
     27          8           0       -4.292425    1.281733    1.050221
     28          8           0       -4.685989   -0.864325    1.075959
 ---------------------------------------------------------------------

 SCF Done:  E(RHF) =  -868.338879738     A.U. after   16 cycles
 E2 =    -0.2601179747D+01 EUMP2 =    -0.87094005948491D+03

 The electronic state is 1-A.
 Alpha  occ. eigenvalues --  -20.61679 -20.61619 -20.60599 -20.60580 -15.86675
 Alpha  occ. eigenvalues --  -15.85643 -11.31924 -11.30974 -11.28547 -11.28414
 Alpha  occ. eigenvalues --  -11.28184 -11.27598 -11.27524 -11.27462 -11.27407
 Alpha  occ. eigenvalues --  -11.27305 -11.26628 -11.26390  -1.60718  -1.59670
 Alpha  occ. eigenvalues --   -1.40275  -1.39223  -1.20084  -1.19147  -1.09498
 Alpha  occ. eigenvalues --   -1.08555  -1.05478  -1.04529  -0.96355  -0.95394
 Alpha  occ. eigenvalues --   -0.86879  -0.85932  -0.83193  -0.82213  -0.78262
 Alpha  occ. eigenvalues --   -0.77259  -0.72895  -0.72047  -0.71856  -0.71197
 Alpha  occ. eigenvalues --   -0.70995  -0.70272  -0.65743  -0.65476  -0.64793
 Alpha  occ. eigenvalues --   -0.64500  -0.62829  -0.61852  -0.55969  -0.55094
 Alpha  occ. eigenvalues --   -0.53833  -0.53563  -0.52827  -0.52595  -0.49673
 Alpha  occ. eigenvalues --   -0.49641  -0.48622  -0.48613  -0.45698  -0.44635
 Alpha  occ. eigenvalues --   -0.38114  -0.37298  -0.36847  -0.36125
 Alpha virt. eigenvalues --    0.04206   0.05256   0.10523   0.11504   0.15746
 Alpha virt. eigenvalues --    0.16751   0.20431   0.21799   0.26226   0.27226
 Alpha virt. eigenvalues --    0.27849   0.28836   0.30469   0.31049   0.32211

 Mulliken charges:
               1
     1  C   -0.170225
     2  C   -0.217373
     3  C   -0.168450
     4  C    0.162289
     5  C   -0.176912
     6  C   -0.220484
     7  H    0.227649
     8  H    0.227409
     9  H    0.279042
    10  H    0.271785
    11  H    0.222869
    12  N    0.487404
    13  O   -0.467234
    14  O   -0.454363
    15  C   -0.168906
    16  C   -0.218628
    17  C   -0.172485
    18  C    0.157649
    19  C   -0.169768
    20  C   -0.230778
    21  H    0.220846
    22  H    0.218682
    23  H    0.273358
    24  H    0.279868
    25  H    0.240315
    26  N    0.487882
    27  O   -0.458550
    28  O   -0.462890
 Sum of Mulliken charges =  -0.00000

 Dipole moment (field-independent basis, Debye):
    X=              5.0576    Y=             -5.7436    Z=             -2.0956  Tot=              7.9347
 Quadrupole moment (field-independent basis, Debye-Ang):
   XX=           -125.1636   YY=           -104.0155   ZZ=            -99.2781
   XY=            -11.0696   XZ=             10.0684   YZ=             -0.2786

 Normal termination of Gaussian 16 at Wed May  5 17:51:28 2021.
