 Gaussian 16, Revision A.03,
 Gaussian 16:  EM64L-G16RevA.03 25-Dec-2016

 -------------
 #p 6-31g* mp2
 -------------

 ------------------------------------------------------
 Input file generated by CHIRIPA (05-May-2021 14:55:24)
 ------------------------------------------------------
 Symbolic Z-matrix:
 Charge =  0 Multiplicity = 1

                         Standard orientation:
 ---------------------------------------------------------------------
 Center     Atomic      Atomic             Coordinates (Angstroms)
 Number     Number       Type             X           Y           Z
 ---------------------------------------------------------------------
      1          6           0        2.894600    2.316294   -0.201487
      2          6           0        2.167749    1.183745   -0.582985
      3          6           0        2.737055   -0.089768   -0.490238
      4          6           0        4.041349   -0.194560   -0.009482
      5          6           0        4.791125    0.914786    0.378429
      6          6           0        4.201664    2.178443    0.277158
      7          1           0        2.444521    3.301762   -0.276846
      8          1           0        1.152478    1.287792   -0.955066
      9          1           0        2.196936   -0.983349   -0.778685
     10          1           0        5.801216    0.779344    0.745566
     11          1           0        4.768514    3.056235    0.574158
     12          7           0        4.654716   -1.537555    0.093217
     13          8           0        5.805473   -1.603093    0.519948
     14          8           0        3.973102   -2.499225   -0.254963
     15          6           0       -4.402597    0.272803    0.313687
     16          6           0       -3.162012   -0.047796   -0.520670
     17          6           0       -1.887708    0.573505    0.051979
     18          1           0       -4.521526    1.363046    0.378274
     19          1           0       -4.248033   -0.086142    1.340656
     20          1           0       -3.319425    0.310413   -1.546109
     21          1           0       -3.046132   -1.137405   -0.583439
     22          1           0       -1.703248    0.207515    1.067177
     23          1           0       -1.978094    1.663559    0.099036
     24          1           0       -1.013116    0.331704   -0.559969
     25          6           0       -5.684465   -0.341363   -0.246083
     26          6           0       -6.925049   -0.020764    0.588274
     27          6           0       -8.199353   -0.642065    0.015625
     28          1           0       -5.839028    0.017583   -1.273052
     29          1           0       -5.565536   -1.431606   -0.310670
     30          1           0       -7.040930    1.068845    0.651042
     31          1           0       -6.767637   -0.378973    1.613713
     32          1           0       -8.108967   -1.732119   -0.031433
     33          1           0       -8.383814   -0.276075   -0.999572
     34          1           0       -9.073946   -0.400264    0.627574
 ---------------------------------------------------------------------

 SCF Done:  E(RHF) =  -669.535440845     A.U. after   15 cycles
 E2 =    -0.2090744078D+01 EUMP2 =    -0.67162618492356D+03

 The electronic state is 1-A.
 Alpha  occ. eigenvalues --  -20.60722 -20.60717 -15.85774 -11.31130 -11.27698
 Alpha  occ. eigenvalues --  -11.27687 -11.27430 -11.26715 -11.26666 -11.22234
 Alpha  occ. eigenvalues --  -11.21999 -11.21901 -11.21871 -11.21735 -11.21308
 Alpha  occ. eigenvalues --   -1.59797  -1.39351  -1.19298  -1.08890  -1.08695
 Alpha  occ. eigenvalues --   -1.04701  -1.04031  -0.96503  -0.95533  -0.87530
 Alpha  occ. eigenvalues --   -0.86096  -0.82368  -0.80098  -0.78670  -0.77416
 Alpha  occ. eigenvalues --   -0.71993  -0.71120  -0.70409  -0.65513  -0.64951
 Alpha  occ. eigenvalues --   -0.64727  -0.62095  -0.61417  -0.59882  -0.58095
 Alpha  occ. eigenvalues --   -0.55775  -0.55205  -0.53371  -0.53018  -0.52941
 Alpha  occ. eigenvalues --   -0.52622  -0.50425  -0.48751  -0.48749  -0.48411
 Alpha  occ. eigenvalues --   -0.47107  -0.46222  -0.46123  -0.44759  -0.44280
 Alpha  occ. eigenvalues --   -0.37278  -0.36296
 Alpha virt. eigenvalues --    0.05114   0.11341   0.16583   0.20298   0.22554
 Alpha virt. eigenvalues --    0.23803   0.25858   0.26232   0.27063   0.28237
 Alpha virt. eigenvalues --    0.28483   0.30298   0.30924   0.31539   0.32418

 Mulliken charges:
               1
     1  C   -0.171781
     2  C   -0.221439
     3  C   -0.172375
     4  C    0.158465
     5  C   -0.171231
     6  C   -0.218485
     7  H    0.225708
     8  H    0.229853
     9  H    0.274885
    10  H    0.275363
    11  H    0.223106
    12  N    0.488122
    13  O   -0.460675
    14  O   -0.460584
    15  C   -0.299229
    16  C   -0.299499
    17  C   -0.478696
    18  H    0.149367
    19  H    0.151325
    20  H    0.152260
    21  H    0.155521
    22  H    0.161501
    23  H    0.153928
    24  H    0.151167
    25  C   -0.298795
    26  C   -0.300001
    27  C   -0.475990
    28  H    0.149779
    29  H    0.151276
    30  H    0.151787
    31  H    0.152779
    32  H    0.156111
    33  H    0.155346
    34  H    0.161133
 Sum of Mulliken charges =  -0.00000

 Dipole moment (field-independent basis, Debye):
    X=             -2.3555    Y=              4.7173    Z=             -0.3161  Tot=              5.2822
 Quadrupole moment (field-independent basis, Debye-Ang):
   XX=           -109.2868   YY=            -95.7271   ZZ=            -94.6937
   XY=             21.3190   XZ=              0.0326   YZ=              0.2946

 Normal termination of Gaussian 16 at Thu May  6 20:53:39 2021.
