 Gaussian 16, Revision A.03,
 Gaussian 16:  EM64L-G16RevA.03 25-Dec-2016

 -------------
 #p 6-31g* mp2
 -------------

 ------------------------------------------------------
 Input file generated by CHIRIPA (05-May-2021 14:53:16)
 ------------------------------------------------------
 Symbolic Z-matrix:
 Charge =  0 Multiplicity = 1

                         Standard orientation:
 ---------------------------------------------------------------------
 Center     Atomic      Atomic             Coordinates (Angstroms)
 Number     Number       Type             X           Y           Z
 ---------------------------------------------------------------------
      1          6           0       -3.619678    0.847752   -0.196771
      2          6           0       -2.804926    1.656253    0.813422
      3          6           0       -2.288030    2.974421    0.236322
      4          1           0       -2.998974    0.644559   -1.080165
      5          1           0       -4.467453    1.454830   -0.543367
      6          1           0       -1.959725    1.047323    1.159048
      7          1           0       -3.427580    1.857380    1.694595
      8          1           0       -3.121198    3.604374   -0.091690
      9          1           0       -1.645003    2.789715   -0.630281
     10          1           0       -1.708329    3.536304    0.975304
     11          6           0       -4.143285   -0.472688    0.365369
     12          6           0       -4.958037   -1.281189   -0.644824
     13          6           0       -5.474932   -2.599357   -0.067724
     14          1           0       -3.295509   -1.079766    0.711965
     15          1           0       -4.763989   -0.269495    1.248763
     16          1           0       -4.335383   -1.482316   -1.525997
     17          1           0       -5.803238   -0.672259   -0.990450
     18          1           0       -6.117959   -2.414651    0.798879
     19          1           0       -4.641765   -3.229310    0.260288
     20          1           0       -6.054633   -3.161240   -0.806706
     21          6           0        2.117430    2.183648   -0.380676
     22          6           0        3.494029    1.986576   -0.230144
     23          6           0        4.012130    0.699923   -0.055083
     24          6           0        3.120864   -0.371781   -0.035423
     25          6           0        1.744382   -0.207791   -0.182712
     26          6           0        1.248532    1.087768   -0.356521
     27          1           0        1.723600    3.186610   -0.516180
     28          1           0        4.171191    2.835787   -0.248495
     29          1           0        5.073485    0.518805    0.063825
     30          1           0        1.094263   -1.073963   -0.160126
     31          1           0        0.178990    1.237823   -0.473177
     32          7           0        3.657576   -1.738616    0.149243
     33          8           0        2.851338   -2.666209    0.162939
     34          8           0        4.874325   -1.856466    0.276793
 ---------------------------------------------------------------------

 SCF Done:  E(RHF) =  -669.535386647     A.U. after   15 cycles
 E2 =    -0.2091601005D+01 EUMP2 =    -0.67162698765203D+03

 The electronic state is 1-A.
 Alpha  occ. eigenvalues --  -20.60747 -20.60742 -15.85799 -11.31156 -11.27727
 Alpha  occ. eigenvalues --  -11.27722 -11.27451 -11.26737 -11.26687 -11.22580
 Alpha  occ. eigenvalues --  -11.22274 -11.22195 -11.22031 -11.21943 -11.21350
 Alpha  occ. eigenvalues --   -1.59822  -1.39376  -1.19326  -1.09159  -1.08719
 Alpha  occ. eigenvalues --   -1.04733  -1.04252  -0.96711  -0.95557  -0.87726
 Alpha  occ. eigenvalues --   -0.86126  -0.82392  -0.80327  -0.78906  -0.77448
 Alpha  occ. eigenvalues --   -0.72019  -0.71145  -0.70431  -0.65902  -0.64977
 Alpha  occ. eigenvalues --   -0.64718  -0.62238  -0.61472  -0.60100  -0.58284
 Alpha  occ. eigenvalues --   -0.56029  -0.55209  -0.53401  -0.53135  -0.53054
 Alpha  occ. eigenvalues --   -0.52770  -0.50664  -0.48783  -0.48774  -0.48609
 Alpha  occ. eigenvalues --   -0.47384  -0.46451  -0.46358  -0.44784  -0.44487
 Alpha  occ. eigenvalues --   -0.37302  -0.36331
 Alpha virt. eigenvalues --    0.05088   0.11285   0.16549   0.18826   0.22782
 Alpha virt. eigenvalues --    0.23841   0.25600   0.26040   0.26972   0.28554
 Alpha virt. eigenvalues --    0.29147   0.29971   0.30954   0.31291   0.32140

 Mulliken charges:
               1
     1  C   -0.299270
     2  C   -0.304389
     3  C   -0.479787
     4  H    0.145661
     5  H    0.152882
     6  H    0.149921
     7  H    0.158674
     8  H    0.162466
     9  H    0.144958
    10  H    0.162472
    11  C   -0.298745
    12  C   -0.300230
    13  C   -0.476405
    14  H    0.149849
    15  H    0.152007
    16  H    0.152319
    17  H    0.152600
    18  H    0.155851
    19  H    0.157393
    20  H    0.162058
    21  C   -0.173263
    22  C   -0.218488
    23  C   -0.171238
    24  C    0.158997
    25  C   -0.173009
    26  C   -0.225712
    27  H    0.226324
    28  H    0.223306
    29  H    0.275484
    30  H    0.275121
    31  H    0.235364
    32  N    0.488022
    33  O   -0.460686
    34  O   -0.460508
 Sum of Mulliken charges =  -0.00000

 Dipole moment (field-independent basis, Debye):
    X=             -2.1191    Y=              4.8193    Z=             -0.5926  Tot=              5.2978
 Quadrupole moment (field-independent basis, Debye-Ang):
   XX=           -100.7992   YY=            -98.7054   ZZ=            -95.5650
   XY=             17.0184   XZ=             -2.0197   YZ=              0.6993

 Normal termination of Gaussian 16 at Thu May  6 20:27:06 2021.
