 Gaussian 16, Revision A.03,
 Gaussian 16:  EM64L-G16RevA.03 25-Dec-2016

 -------------
 #p 6-31g* mp2
 -------------

 ------------------------------------------------------
 Input file generated by CHIRIPA (05-May-2021 14:55:21)
 ------------------------------------------------------
 Symbolic Z-matrix:
 Charge =  0 Multiplicity = 1

                         Standard orientation:
 ---------------------------------------------------------------------
 Center     Atomic      Atomic             Coordinates (Angstroms)
 Number     Number       Type             X           Y           Z
 ---------------------------------------------------------------------
      1          6           0        3.015932    1.538428   -1.568339
      2          6           0        3.570719    0.258050   -1.665106
      3          6           0        3.213678   -0.741113   -0.754753
      4          6           0        2.294795   -0.423795    0.244374
      5          6           0        1.724623    0.842367    0.366952
      6          6           0        2.096275    1.825993   -0.554406
      7          1           0        3.298965    2.308567   -2.279798
      8          1           0        4.285178    0.031874   -2.451515
      9          1           0        3.627802   -1.740729   -0.806577
     10          1           0        1.014955    1.037806    1.161681
     11          1           0        1.663808    2.819472   -0.476836
     12          7           0        1.909077   -1.473340    1.213950
     13          8           0        1.097397   -1.168434    2.085066
     14          8           0        2.425736   -2.581007    1.084428
     15          6           0       -2.482223    0.864383   -0.088209
     16          6           0       -2.804829    1.999474    0.884148
     17          6           0       -1.722185    3.078753    0.913030
     18          1           0       -1.520160    0.413312    0.190919
     19          1           0       -2.351335    1.280827   -1.096593
     20          1           0       -2.936433    1.580837    1.890149
     21          1           0       -3.766329    2.447770    0.602788
     22          1           0       -1.595127    3.523606   -0.079222
     23          1           0       -0.760516    2.651747    1.215455
     24          1           0       -1.973095    3.880414    1.614631
     25          6           0       -3.555194   -0.222290   -0.128306
     26          6           0       -3.232590   -1.357381   -1.100663
     27          6           0       -4.315233   -2.436660   -1.129545
     28          1           0       -3.686082   -0.638733    0.880078
     29          1           0       -4.517258    0.228781   -0.407435
     30          1           0       -2.271089   -1.805677   -0.819304
     31          1           0       -3.100985   -0.938744   -2.106665
     32          1           0       -5.276901   -2.009654   -1.431970
     33          1           0       -4.442291   -2.881513   -0.137294
     34          1           0       -4.064323   -3.238321   -1.831147
 ---------------------------------------------------------------------

 SCF Done:  E(RHF) =  -669.535498730     A.U. after   15 cycles
 E2 =    -0.2092486038D+01 EUMP2 =    -0.67162798476805D+03

 The electronic state is 1-A.
 Alpha  occ. eigenvalues --  -20.60831 -20.60824 -15.85873 -11.31195 -11.27756
 Alpha  occ. eigenvalues --  -11.27739 -11.27486 -11.26770 -11.26735 -11.21823
 Alpha  occ. eigenvalues --  -11.21712 -11.21430 -11.21403 -11.21242 -11.20836
 Alpha  occ. eigenvalues --   -1.59899  -1.39455  -1.19362  -1.08764  -1.08443
 Alpha  occ. eigenvalues --   -1.04760  -1.03604  -0.96081  -0.95609  -0.87106
 Alpha  occ. eigenvalues --   -0.86160  -0.82442  -0.79684  -0.78234  -0.77483
 Alpha  occ. eigenvalues --   -0.72093  -0.71219  -0.70488  -0.65110  -0.65012
 Alpha  occ. eigenvalues --   -0.64726  -0.62171  -0.60957  -0.59455  -0.57671
 Alpha  occ. eigenvalues --   -0.55412  -0.55237  -0.53091  -0.52862  -0.52772
 Alpha  occ. eigenvalues --   -0.52519  -0.50037  -0.48848  -0.48847  -0.47991
 Alpha  occ. eigenvalues --   -0.46679  -0.45781  -0.45655  -0.44848  -0.43823
 Alpha  occ. eigenvalues --   -0.37338  -0.36333
 Alpha virt. eigenvalues --    0.05007   0.11212   0.16520   0.19934   0.23004
 Alpha virt. eigenvalues --    0.23981   0.25819   0.26373   0.27545   0.28068
 Alpha virt. eigenvalues --    0.29481   0.30423   0.31388   0.31598   0.32329

 Mulliken charges:
               1
     1  C   -0.170896
     2  C   -0.218417
     3  C   -0.170793
     4  C    0.159851
     5  C   -0.176393
     6  C   -0.220177
     7  H    0.225671
     8  H    0.223475
     9  H    0.275464
    10  H    0.280630
    11  H    0.226010
    12  N    0.488370
    13  O   -0.461876
    14  O   -0.459805
    15  C   -0.302142
    16  C   -0.299959
    17  C   -0.478430
    18  H    0.153988
    19  H    0.146300
    20  H    0.158251
    21  H    0.153187
    22  H    0.152611
    23  H    0.145553
    24  H    0.164266
    25  C   -0.298497
    26  C   -0.300398
    27  C   -0.475945
    28  H    0.154729
    29  H    0.148090
    30  H    0.156483
    31  H    0.148965
    32  H    0.153446
    33  H    0.158097
    34  H    0.160293
 Sum of Mulliken charges =  -0.00000

 Dipole moment (field-independent basis, Debye):
    X=              1.2926    Y=              3.6250    Z=             -3.3789  Tot=              5.1214
 Quadrupole moment (field-independent basis, Debye-Ang):
   XX=            -87.0970   YY=            -96.7087   ZZ=            -95.4538
   XY=              4.9469   XZ=             -9.3735   YZ=              3.5034

 Normal termination of Gaussian 16 at Thu May  6 07:45:48 2021.
