 Gaussian 16, Revision A.03,
 Gaussian 16:  EM64L-G16RevA.03 25-Dec-2016

 -------------
 #p 6-31g* mp2
 -------------

 ------------------------------------------------------
 Input file generated by CHIRIPA (05-May-2021 14:55:24)
 ------------------------------------------------------
 Symbolic Z-matrix:
 Charge =  0 Multiplicity = 1

                         Standard orientation:
 ---------------------------------------------------------------------
 Center     Atomic      Atomic             Coordinates (Angstroms)
 Number     Number       Type             X           Y           Z
 ---------------------------------------------------------------------
      1          6           0        0.065610   -2.488340    0.454247
      2          6           0       -0.361532   -2.235826   -0.853540
      3          6           0       -1.383594   -1.314644   -1.101252
      4          6           0       -1.958980   -0.660971   -0.012706
      5          6           0       -1.555362   -0.890934    1.301638
      6          6           0       -0.531615   -1.816273    1.525773
      7          1           0        0.860227   -3.205551    0.637518
      8          1           0        0.100464   -2.756290   -1.687640
      9          1           0       -1.733646   -1.100076   -2.103670
     10          1           0       -2.035048   -0.356591    2.112685
     11          1           0       -0.201921   -2.010379    2.542468
     12          7           0       -3.041883    0.316444   -0.262467
     13          8           0       -3.532635    0.879228    0.713788
     14          8           0       -3.379406    0.501249   -1.429755
     15          6           0        2.200513    1.807133   -0.122434
     16          6           0        0.829766    2.327505    0.311446
     17          6           0        0.687959    3.839451    0.133386
     18          1           0        2.980548    2.320672    0.456158
     19          1           0        2.368310    2.070535   -1.175933
     20          1           0        0.664022    2.061993    1.363420
     21          1           0        0.052894    1.812531   -0.268111
     22          1           0        0.827095    4.118483   -0.916082
     23          1           0        1.441696    4.369363    0.724718
     24          1           0       -0.299421    4.190076    0.449622
     25          6           0        2.357579    0.297342    0.049582
     26          6           0        3.728325   -0.223030   -0.384299
     27          6           0        3.870132   -1.734974   -0.206238
     28          1           0        2.189781    0.033941    1.103080
     29          1           0        1.577543   -0.216195   -0.529010
     30          1           0        4.505197    0.291945    0.195258
     31          1           0        3.894069    0.042483   -1.436272
     32          1           0        3.116395   -2.264887   -0.797570
     33          1           0        3.730996   -2.014007    0.843229
     34          1           0        4.857512   -2.085600   -0.522474
 ---------------------------------------------------------------------

 SCF Done:  E(RHF) =  -669.533407669     A.U. after   15 cycles
 E2 =    -0.2096623692D+01 EUMP2 =    -0.67163003136062D+03

 The electronic state is 1-A.
 Alpha  occ. eigenvalues --  -20.60822 -20.60816 -15.85878 -11.31252 -11.27843
 Alpha  occ. eigenvalues --  -11.27832 -11.27505 -11.26800 -11.26788 -11.22026
 Alpha  occ. eigenvalues --  -11.21879 -11.21533 -11.21448 -11.21388 -11.20837
 Alpha  occ. eigenvalues --   -1.59899  -1.39451  -1.19439  -1.08846  -1.08568
 Alpha  occ. eigenvalues --   -1.04841  -1.03742  -0.96192  -0.95649  -0.87223
 Alpha  occ. eigenvalues --   -0.86233  -0.82483  -0.79826  -0.78393  -0.77533
 Alpha  occ. eigenvalues --   -0.72093  -0.71226  -0.70520  -0.65266  -0.65067
 Alpha  occ. eigenvalues --   -0.64836  -0.62184  -0.61156  -0.59597  -0.57807
 Alpha  occ. eigenvalues --   -0.55525  -0.55305  -0.53429  -0.52923  -0.52803
 Alpha  occ. eigenvalues --   -0.52580  -0.50175  -0.48855  -0.48848  -0.48164
 Alpha  occ. eigenvalues --   -0.46877  -0.45890  -0.45692  -0.44851  -0.43933
 Alpha  occ. eigenvalues --   -0.37245  -0.36389
 Alpha virt. eigenvalues --    0.04968   0.11054   0.16404   0.20341   0.22974
 Alpha virt. eigenvalues --    0.24069   0.25678   0.26572   0.27272   0.27660
 Alpha virt. eigenvalues --    0.29209   0.30168   0.31113   0.31496   0.32346

 Mulliken charges:
               1
     1  C   -0.163987
     2  C   -0.224248
     3  C   -0.171998
     4  C    0.160359
     5  C   -0.169061
     6  C   -0.217003
     7  H    0.228601
     8  H    0.223654
     9  H    0.275922
    10  H    0.275859
    11  H    0.223318
    12  N    0.488542
    13  O   -0.460184
    14  O   -0.460768
    15  C   -0.298033
    16  C   -0.299332
    17  C   -0.476556
    18  H    0.148437
    19  H    0.149172
    20  H    0.148834
    21  H    0.151970
    22  H    0.155716
    23  H    0.153108
    24  H    0.166649
    25  C   -0.303968
    26  C   -0.298751
    27  C   -0.475542
    28  H    0.144199
    29  H    0.159710
    30  H    0.153180
    31  H    0.152654
    32  H    0.145875
    33  H    0.150548
    34  H    0.163125
 Sum of Mulliken charges =  -0.00000

 Dipole moment (field-independent basis, Debye):
    X=              3.6975    Y=             -3.4234    Z=              0.8973  Tot=              5.1183
 Quadrupole moment (field-independent basis, Debye-Ang):
   XX=           -110.7628   YY=            -91.8195   ZZ=            -89.0986
   XY=              4.4917   XZ=             -1.9468   YZ=              0.5617

 Normal termination of Gaussian 16 at Thu May  6 12:41:55 2021.
