 Gaussian 16, Revision A.03,
 Gaussian 16:  EM64L-G16RevA.03 25-Dec-2016

 -------------
 #p 6-31g* mp2
 -------------

 ------------------------------------------------------
 Input file generated by CHIRIPA (05-May-2021 14:55:24)
 ------------------------------------------------------
 Symbolic Z-matrix:
 Charge =  0 Multiplicity = 1

                         Standard orientation:
 ---------------------------------------------------------------------
 Center     Atomic      Atomic             Coordinates (Angstroms)
 Number     Number       Type             X           Y           Z
 ---------------------------------------------------------------------
      1          6           0       -1.281519   -0.970440    1.818311
      2          6           0       -0.938030   -0.001296    0.869999
      3          6           0       -1.860847    0.401449   -0.099926
      4          6           0       -3.123887   -0.188433   -0.092299
      5          6           0       -3.496039   -1.156459    0.839215
      6          6           0       -2.557178   -1.543917    1.799925
      7          1           0       -0.558421   -1.277364    2.568193
      8          1           0        0.051930    0.445786    0.881878
      9          1           0       -1.621334    1.149571   -0.845825
     10          1           0       -4.490610   -1.584091    0.802087
     11          1           0       -2.826704   -2.296793    2.535166
     12          7           0       -4.109325    0.229843   -1.114238
     13          8           0       -5.215540   -0.305074   -1.086171
     14          8           0       -3.756836    1.084686   -1.923950
     15          6           0        3.126852    0.620899    0.142974
     16          6           0        3.198564    2.116098    0.454780
     17          6           0        1.862773    2.684641    0.934587
     18          1           0        2.357480    0.448871   -0.622152
     19          1           0        2.799434    0.081180    1.042361
     20          1           0        3.527082    2.652688   -0.444532
     21          1           0        3.967988    2.284609    1.219114
     22          1           0        1.532399    2.175492    1.845751
     23          1           0        1.088987    2.545664    0.172653
     24          1           0        1.936732    3.754794    1.151755
     25          6           0        4.454525    0.037968   -0.337863
     26          6           0        4.382813   -1.457232   -0.649669
     27          6           0        5.718604   -2.025775   -1.129475
     28          1           0        4.781942    0.577686   -1.237249
     29          1           0        5.223897    0.209996    0.427263
     30          1           0        3.613389   -1.625742   -1.414003
     31          1           0        4.054295   -1.993822    0.249644
     32          1           0        6.492389   -1.886797   -0.367541
     33          1           0        6.048978   -1.516626   -2.040640
     34          1           0        5.644645   -3.095927   -1.346644
 ---------------------------------------------------------------------

 SCF Done:  E(RHF) =  -669.534828951     A.U. after   15 cycles
 E2 =    -0.2092460733D+01 EUMP2 =    -0.67162728968444D+03

 The electronic state is 1-A.
 Alpha  occ. eigenvalues --  -20.60680 -20.60675 -15.85730 -11.31069 -11.27627
 Alpha  occ. eigenvalues --  -11.27604 -11.27342 -11.26650 -11.26490 -11.22563
 Alpha  occ. eigenvalues --  -11.22439 -11.22243 -11.22241 -11.22133 -11.21572
 Alpha  occ. eigenvalues --   -1.59756  -1.39310  -1.19223  -1.09317  -1.08624
 Alpha  occ. eigenvalues --   -1.04632  -1.04361  -0.96845  -0.95470  -0.87862
 Alpha  occ. eigenvalues --   -0.86024  -0.82314  -0.80455  -0.79139  -0.77338
 Alpha  occ. eigenvalues --   -0.71950  -0.71078  -0.70346  -0.65934  -0.64872
 Alpha  occ. eigenvalues --   -0.64650  -0.62042  -0.61748  -0.60174  -0.58446
 Alpha  occ. eigenvalues --   -0.56142  -0.55130  -0.53493  -0.53363  -0.52934
 Alpha  occ. eigenvalues --   -0.52667  -0.50786  -0.48807  -0.48708  -0.48594
 Alpha  occ. eigenvalues --   -0.47479  -0.46605  -0.46557  -0.44722  -0.44620
 Alpha  occ. eigenvalues --   -0.37206  -0.36211
 Alpha virt. eigenvalues --    0.05165   0.11394   0.16641   0.19851   0.22469
 Alpha virt. eigenvalues --    0.23828   0.24586   0.26031   0.26883   0.27867
 Alpha virt. eigenvalues --    0.29399   0.30170   0.30554   0.31418   0.31918

 Mulliken charges:
               1
     1  C   -0.174743
     2  C   -0.226769
     3  C   -0.176665
     4  C    0.159196
     5  C   -0.171842
     6  C   -0.218164
     7  H    0.224611
     8  H    0.243454
     9  H    0.274356
    10  H    0.275005
    11  H    0.222662
    12  N    0.488142
    13  O   -0.460868
    14  O   -0.460898
    15  C   -0.303570
    16  C   -0.298762
    17  C   -0.483664
    18  H    0.149645
    19  H    0.143041
    20  H    0.157346
    21  H    0.155614
    22  H    0.151785
    23  H    0.152022
    24  H    0.170090
    25  C   -0.298244
    26  C   -0.300372
    27  C   -0.476307
    28  H    0.153174
    29  H    0.151605
    30  H    0.154022
    31  H    0.150101
    32  H    0.155768
    33  H    0.157064
    34  H    0.162164
 Sum of Mulliken charges =  -0.00000

 Dipole moment (field-independent basis, Debye):
    X=              3.7831    Y=             -1.3855    Z=              3.5549  Tot=              5.3730
 Quadrupole moment (field-independent basis, Debye-Ang):
   XX=           -114.5124   YY=            -92.4586   ZZ=            -94.5263
   XY=              7.1156   XZ=            -12.7310   YZ=             -2.2981

 Normal termination of Gaussian 16 at Thu May  6 04:44:47 2021.
