 Gaussian 16, Revision A.03,
 Gaussian 16:  EM64L-G16RevA.03 25-Dec-2016

 -------------
 #p 6-31g* mp2
 -------------

 ------------------------------------------------------
 Input file generated by CHIRIPA (05-May-2021 14:55:25)
 ------------------------------------------------------
 Symbolic Z-matrix:
 Charge =  0 Multiplicity = 1

                         Standard orientation:
 ---------------------------------------------------------------------
 Center     Atomic      Atomic             Coordinates (Angstroms)
 Number     Number       Type             X           Y           Z
 ---------------------------------------------------------------------
      1          6           0       -1.325661    2.605008    0.041278
      2          6           0       -2.665759    2.602267    0.442093
      3          6           0       -3.425997    1.431201    0.370060
      4          6           0       -2.811457    0.275664   -0.109905
      5          6           0       -1.478452    0.246497   -0.516764
      6          6           0       -0.737322    1.429187   -0.436030
      7          1           0       -0.742512    3.519236    0.100615
      8          1           0       -3.125294    3.513949    0.813185
      9          1           0       -4.465367    1.400932    0.673724
     10          1           0       -1.048006   -0.677870   -0.882387
     11          1           0        0.303215    1.428366   -0.748003
     12          7           0       -3.606173   -0.970244   -0.190768
     13          8           0       -3.041426   -1.975139   -0.617248
     14          8           0       -4.778771   -0.918301    0.173861
     15          6           0        3.705999    0.085818    0.248945
     16          6           0        5.081856    0.318422   -0.376271
     17          6           0        5.618662    1.726383   -0.116892
     18          1           0        2.999765    0.827913   -0.147881
     19          1           0        3.768562    0.261665    1.331793
     20          1           0        5.017033    0.140841   -1.457418
     21          1           0        5.784852   -0.424435    0.021946
     22          1           0        5.711926    1.911122    0.958177
     23          1           0        4.939744    2.479610   -0.529592
     24          1           0        6.603174    1.870956   -0.572630
     25          6           0        3.156027   -1.317190   -0.001708
     26          6           0        1.780170   -1.549795    0.623509
     27          6           0        1.243363   -2.957757    0.364129
     28          1           0        3.093463   -1.493038   -1.084555
     29          1           0        3.862261   -2.059286    0.395119
     30          1           0        1.077173   -0.806939    0.225292
     31          1           0        1.844992   -1.372214    1.704656
     32          1           0        1.922281   -3.710983    0.776829
     33          1           0        1.150101   -3.142496   -0.710940
     34          1           0        0.258852   -3.102328    0.819868
 ---------------------------------------------------------------------

 SCF Done:  E(RHF) =  -669.534501926     A.U. after   15 cycles
 E2 =    -0.2093246776D+01 EUMP2 =    -0.67162774870220D+03

 The electronic state is 1-A.
 Alpha  occ. eigenvalues --  -20.60777 -20.60772 -15.85828 -11.31186 -11.27765
 Alpha  occ. eigenvalues --  -11.27738 -11.27503 -11.26777 -11.26760 -11.22158
 Alpha  occ. eigenvalues --  -11.22067 -11.22030 -11.21871 -11.21618 -11.21175
 Alpha  occ. eigenvalues --   -1.59851  -1.39404  -1.19369  -1.08981  -1.08760
 Alpha  occ. eigenvalues --   -1.04789  -1.03985  -0.96420  -0.95596  -0.87422
 Alpha  occ. eigenvalues --   -0.86168  -0.82450  -0.80062  -0.78825  -0.77468
 Alpha  occ. eigenvalues --   -0.72047  -0.71173  -0.70487  -0.65674  -0.65016
 Alpha  occ. eigenvalues --   -0.64782  -0.62256  -0.61276  -0.59767  -0.58025
 Alpha  occ. eigenvalues --   -0.55730  -0.55264  -0.53136  -0.53030  -0.52859
 Alpha  occ. eigenvalues --   -0.52823  -0.50368  -0.48807  -0.48806  -0.48352
 Alpha  occ. eigenvalues --   -0.47119  -0.46341  -0.46254  -0.44810  -0.44242
 Alpha  occ. eigenvalues --   -0.37347  -0.36320
 Alpha virt. eigenvalues --    0.05016   0.11245   0.16395   0.19292   0.22884
 Alpha virt. eigenvalues --    0.23338   0.24673   0.26411   0.26980   0.28469
 Alpha virt. eigenvalues --    0.29814   0.31115   0.31389   0.31675   0.32113

 Mulliken charges:
               1
     1  C   -0.172026
     2  C   -0.218650
     3  C   -0.171050
     4  C    0.156347
     5  C   -0.171728
     6  C   -0.220387
     7  H    0.225945
     8  H    0.223507
     9  H    0.275598
    10  H    0.279661
    11  H    0.227591
    12  N    0.488182
    13  O   -0.460672
    14  O   -0.460287
    15  C   -0.298491
    16  C   -0.299980
    17  C   -0.475557
    18  H    0.139590
    19  H    0.152197
    20  H    0.152603
    21  H    0.155065
    22  H    0.156175
    23  H    0.151816
    24  H    0.162600
    25  C   -0.298492
    26  C   -0.305991
    27  C   -0.479480
    28  H    0.148933
    29  H    0.153472
    30  H    0.144314
    31  H    0.155014
    32  H    0.157094
    33  H    0.155665
    34  H    0.171424
 Sum of Mulliken charges =  -0.00000

 Dipole moment (field-independent basis, Debye):
    X=              2.8501    Y=              4.2711    Z=              0.3574  Tot=              5.1471
 Quadrupole moment (field-independent basis, Debye-Ang):
   XX=           -107.1642   YY=            -92.0559   ZZ=            -94.1664
   XY=            -14.7413   XZ=             -2.3389   YZ=              0.1512

 Normal termination of Gaussian 16 at Thu May  6 17:44:13 2021.
