 Gaussian 16, Revision A.03,
 Gaussian 16:  EM64L-G16RevA.03 25-Dec-2016

 -------------
 #p 6-31g* mp2
 -------------

 ------------------------------------------------------
 Input file generated by CHIRIPA (05-May-2021 14:51:12)
 ------------------------------------------------------
 Symbolic Z-matrix:
 Charge =  0 Multiplicity = 1

                         Standard orientation:
 ---------------------------------------------------------------------
 Center     Atomic      Atomic             Coordinates (Angstroms)
 Number     Number       Type             X           Y           Z
 ---------------------------------------------------------------------
      1          6           0        3.337736   -0.423628   -0.188799
      2          6           0        2.400348   -1.416439   -0.876996
      3          6           0        2.942401   -2.846075   -0.866324
      4          1           0        4.317430   -0.449547   -0.685259
      5          1           0        3.504310   -0.745863    0.848414
      6          1           0        2.234490   -1.091670   -1.912193
      7          1           0        1.422713   -1.388015   -0.378962
      8          1           0        3.091043   -3.194055    0.161010
      9          1           0        3.907432   -2.896027   -1.380932
     10          1           0        2.256569   -3.539186   -1.363407
     11          6           0        2.809600    1.009827   -0.191364
     12          6           0        3.746988    2.002638    0.496832
     13          6           0        3.204934    3.432274    0.486160
     14          1           0        2.643026    1.332062   -1.228578
     15          1           0        1.829905    1.035746    0.305095
     16          1           0        4.724623    1.974214   -0.001202
     17          1           0        3.912846    1.677869    1.532029
     18          1           0        2.239904    3.482226    1.000768
     19          1           0        3.056293    3.780254   -0.541174
     20          1           0        3.890767    4.125385    0.983243
     21          6           0       -2.723599   -0.961662    0.072152
     22          6           0       -1.833428   -1.393935    1.237792
     23          6           0       -1.139922   -2.733305    0.986930
     24          1           0       -3.478532   -1.738265   -0.111991
     25          1           0       -2.114663   -0.895135   -0.840080
     26          1           0       -2.443584   -1.458287    2.147837
     27          1           0       -1.080645   -0.616125    1.419305
     28          1           0       -0.507766   -2.678654    0.094745
     29          1           0       -1.878449   -3.525601    0.827417
     30          1           0       -0.508697   -3.023185    1.832735
     31          6           0       -3.423736    0.375463    0.308013
     32          6           0       -4.313909    0.807736   -0.857628
     33          6           0       -5.007414    2.147106   -0.606767
     34          1           0       -4.032673    0.308936    1.220244
     35          1           0       -2.668803    1.152067    0.492155
     36          1           0       -5.066691    0.029926   -1.039141
     37          1           0       -3.703752    0.872088   -1.767674
     38          1           0       -4.268886    2.939403   -0.447254
     39          1           0       -5.639569    2.092455    0.285418
     40          1           0       -5.638639    2.436986   -1.452572
 ---------------------------------------------------------------------

 SCF Done:  E(RHF) =  -470.733253452     A.U. after   11 cycles
 E2 =    -0.1582981277D+01 EUMP2 =    -0.47231623472975D+03

 The electronic state is 1-A.
 Alpha  occ. eigenvalues --  -11.21646 -11.21627 -11.21604 -11.21593 -11.21433
 Alpha  occ. eigenvalues --  -11.21419 -11.21370 -11.21359 -11.21097 -11.21074
 Alpha  occ. eigenvalues --  -11.21071 -11.21070  -1.08465  -1.08435  -1.03581
 Alpha  occ. eigenvalues --   -1.03515  -0.96023  -0.95968  -0.87015  -0.87006
 Alpha  occ. eigenvalues --   -0.79653  -0.79572  -0.78280  -0.78249  -0.65201
 Alpha  occ. eigenvalues --   -0.64978  -0.61160  -0.60758  -0.59375  -0.59351
 Alpha  occ. eigenvalues --   -0.57666  -0.57554  -0.55397  -0.55163  -0.52697
 Alpha  occ. eigenvalues --   -0.52678  -0.52434  -0.52401  -0.50021  -0.49867
 Alpha  occ. eigenvalues --   -0.47997  -0.47870  -0.46772  -0.46495  -0.45895
 Alpha  occ. eigenvalues --   -0.45773  -0.45725  -0.45613  -0.43805  -0.43797
 Alpha virt. eigenvalues --    0.20312   0.23325   0.23417   0.24610   0.25994
 Alpha virt. eigenvalues --    0.26620   0.26930   0.27663   0.28539   0.28825
 Alpha virt. eigenvalues --    0.30620   0.31429   0.31709   0.31739   0.32146

 Mulliken charges:
               1
     1  C   -0.297632
     2  C   -0.307011
     3  C   -0.475559
     4  H    0.149733
     5  H    0.149682
     6  H    0.151393
     7  H    0.158791
     8  H    0.155711
     9  H    0.155200
    10  H    0.160413
    11  C   -0.298653
    12  C   -0.299666
    13  C   -0.475724
    14  H    0.149485
    15  H    0.149069
    16  H    0.152139
    17  H    0.152094
    18  H    0.155009
    19  H    0.155156
    20  H    0.160435
    21  C   -0.298528
    22  C   -0.300935
    23  C   -0.480420
    24  H    0.149811
    25  H    0.150080
    26  H    0.152342
    27  H    0.151438
    28  H    0.160494
    29  H    0.155591
    30  H    0.159906
    31  C   -0.298282
    32  C   -0.299701
    33  C   -0.475745
    34  H    0.149482
    35  H    0.149602
    36  H    0.151923
    37  H    0.152157
    38  H    0.155294
    39  H    0.155134
    40  H    0.160291
 Sum of Mulliken charges =  -0.00000

 Dipole moment (field-independent basis, Debye):
    X=             -0.0004    Y=             -0.0123    Z=             -0.0041  Tot=              0.0130
 Quadrupole moment (field-independent basis, Debye-Ang):
   XX=            -84.2780   YY=            -86.5725   ZZ=            -83.8360
   XY=              1.2986   XZ=             -0.6979   YZ=             -0.4741

 Normal termination of Gaussian 16 at Thu May  6 05:30:47 2021.
