 Gaussian 16, Revision A.03,
 Gaussian 16:  EM64L-G16RevA.03 25-Dec-2016

 -------------
 #p 6-31g* mp2
 -------------

 ------------------------------------------------------
 Input file generated by CHIRIPA (05-May-2021 14:51:11)
 ------------------------------------------------------
 Symbolic Z-matrix:
 Charge =  0 Multiplicity = 1

                         Standard orientation:
 ---------------------------------------------------------------------
 Center     Atomic      Atomic             Coordinates (Angstroms)
 Number     Number       Type             X           Y           Z
 ---------------------------------------------------------------------
      1          6           0        4.307371    0.528254    0.408319
      2          6           0        3.066992    0.922226   -0.394321
      3          6           0        2.171762    1.913644    0.349619
      4          1           0        3.993074    0.092917    1.366778
      5          1           0        4.882139    1.433159    0.649535
      6          1           0        2.495458    0.016702   -0.635138
      7          1           0        3.384276    1.356500   -1.351062
      8          1           0        2.720798    2.833243    0.576554
      9          1           0        1.826930    1.485832    1.296545
     10          1           0        1.291023    2.181645   -0.242272
     11          6           0        5.212229   -0.462368   -0.322180
     12          6           0        6.452608   -0.856340    0.480460
     13          6           0        7.347838   -1.847758   -0.263480
     14          1           0        4.637461   -1.367273   -0.563396
     15          1           0        5.526526   -0.027031   -1.280639
     16          1           0        6.135324   -1.290614    1.437201
     17          1           0        7.024142    0.049183    0.721278
     18          1           0        7.692670   -1.419947   -1.210406
     19          1           0        6.798802   -2.767357   -0.490415
     20          1           0        8.228577   -2.115759    0.328411
     21          6           0       -5.165580   -0.678854   -0.003395
     22          6           0       -6.673065   -0.442804    0.095371
     23          6           0       -7.471344   -1.744481    0.173993
     24          1           0       -4.954449   -1.294174   -0.888692
     25          1           0       -4.834763   -1.260888    0.867920
     26          1           0       -7.000707    0.139797   -0.775170
     27          1           0       -6.880613    0.172185    0.980429
     28          1           0       -7.172821   -2.327061    1.051538
     29          1           0       -7.293598   -2.359633   -0.714037
     30          1           0       -8.546553   -1.552431    0.244002
     31          6           0       -4.354020    0.612968   -0.082743
     32          6           0       -2.846536    0.376918   -0.181511
     33          6           0       -2.048256    1.678595   -0.260132
     34          1           0       -4.684837    1.195002   -0.954060
     35          1           0       -4.565151    1.228288    0.802553
     36          1           0       -2.638988   -0.238071   -1.066569
     37          1           0       -2.518893   -0.205683    0.689030
     38          1           0       -2.226002    2.293746    0.627897
     39          1           0       -2.346779    2.261175   -1.137677
     40          1           0       -0.973046    1.486544   -0.330140
 ---------------------------------------------------------------------

 SCF Done:  E(RHF) =  -470.733229307     A.U. after   11 cycles
 E2 =    -0.1582114935D+01 EUMP2 =    -0.47231534424215D+03

 The electronic state is 1-A.
 Alpha  occ. eigenvalues --  -11.21605 -11.21601 -11.21594 -11.21583 -11.21405
 Alpha  occ. eigenvalues --  -11.21392 -11.21345 -11.21333 -11.21071 -11.21066
 Alpha  occ. eigenvalues --  -11.21051 -11.21013  -1.08431  -1.08415  -1.03541
 Alpha  occ. eigenvalues --   -1.03503  -0.96014  -0.95931  -0.87054  -0.86925
 Alpha  occ. eigenvalues --   -0.79623  -0.79546  -0.78243  -0.78229  -0.65061
 Alpha  occ. eigenvalues --   -0.65046  -0.60933  -0.60905  -0.59619  -0.59135
 Alpha  occ. eigenvalues --   -0.57708  -0.57448  -0.55274  -0.55237  -0.52998
 Alpha  occ. eigenvalues --   -0.52487  -0.52426  -0.52192  -0.49926  -0.49891
 Alpha  occ. eigenvalues --   -0.47958  -0.47839  -0.46628  -0.46607  -0.45785
 Alpha  occ. eigenvalues --   -0.45771  -0.45709  -0.45697  -0.43960  -0.43564
 Alpha virt. eigenvalues --    0.22118   0.22999   0.23495   0.24934   0.26629
 Alpha virt. eigenvalues --    0.26671   0.26974   0.27508   0.27542   0.28764
 Alpha virt. eigenvalues --    0.30314   0.31398   0.31448   0.31868   0.31981

 Mulliken charges:
               1
     1  C   -0.298336
     2  C   -0.299979
     3  C   -0.481056
     4  H    0.149650
     5  H    0.149638
     6  H    0.151898
     7  H    0.152005
     8  H    0.155471
     9  H    0.155224
    10  H    0.165718
    11  C   -0.298286
    12  C   -0.299657
    13  C   -0.475707
    14  H    0.149532
    15  H    0.149658
    16  H    0.151935
    17  H    0.151941
    18  H    0.155182
    19  H    0.155182
    20  H    0.160252
    21  C   -0.298200
    22  C   -0.299617
    23  C   -0.475690
    24  H    0.149574
    25  H    0.149433
    26  H    0.151925
    27  H    0.151947
    28  H    0.155144
    29  H    0.155150
    30  H    0.160235
    31  C   -0.298535
    32  C   -0.299030
    33  C   -0.482471
    34  H    0.149486
    35  H    0.149668
    36  H    0.151646
    37  H    0.151736
    38  H    0.155409
    39  H    0.154650
    40  H    0.167276
 Sum of Mulliken charges =  -0.00000

 Dipole moment (field-independent basis, Debye):
    X=              0.0148    Y=              0.0093    Z=              0.0023  Tot=              0.0176
 Quadrupole moment (field-independent basis, Debye-Ang):
   XX=            -85.6763   YY=            -85.4093   ZZ=            -83.7269
   XY=              0.3622   XZ=              0.1894   YZ=             -0.5495

 Normal termination of Gaussian 16 at Wed May  5 15:12:53 2021.
