 Gaussian 16, Revision A.03,
 Gaussian 16:  EM64L-G16RevA.03 25-Dec-2016

 -------------
 #p 6-31g* mp2
 -------------

 ------------------------------------------------------
 Input file generated by CHIRIPA (05-May-2021 14:53:14)
 ------------------------------------------------------
 Symbolic Z-matrix:
 Charge =  0 Multiplicity = 1

                         Standard orientation:
 ---------------------------------------------------------------------
 Center     Atomic      Atomic             Coordinates (Angstroms)
 Number     Number       Type             X           Y           Z
 ---------------------------------------------------------------------
      1          6           0       -4.051335   -0.196031    0.600084
      2          6           0       -2.847012   -1.114318    0.389512
      3          6           0       -1.758496   -0.912923    1.444200
      4          1           0       -3.714109    0.849447    0.586025
      5          1           0       -4.470382   -0.375875    1.599810
      6          1           0       -2.431204   -0.933776   -0.610050
      7          1           0       -3.187173   -2.157726    0.403882
      8          1           0       -2.151436   -1.112630    2.446356
      9          1           0       -1.391172    0.118274    1.426663
     10          1           0       -0.907001   -1.579306    1.274647
     11          6           0       -5.148004   -0.385590   -0.446393
     12          6           0       -6.352327    0.532697   -0.235821
     13          6           0       -7.440843    0.331302   -1.290509
     14          1           0       -4.728957   -0.205746   -1.446119
     15          1           0       -5.485229   -1.431068   -0.432335
     16          1           0       -6.012166    1.576105   -0.250192
     17          1           0       -6.768135    0.352155    0.763741
     18          1           0       -7.808167   -0.699895   -1.272972
     19          1           0       -7.047903    0.531009   -2.292665
     20          1           0       -8.292338    0.997685   -1.120956
     21          6           0        5.414320   -1.377128   -0.750434
     22          6           0        5.596191    0.000177   -0.913143
     23          6           0        4.594105    0.898346   -0.534114
     24          6           0        3.417461    0.382296    0.006710
     25          6           0        3.206410   -0.984535    0.181412
     26          6           0        4.222113   -1.864230   -0.204637
     27          1           0        6.198054   -2.067672   -1.047599
     28          1           0        6.521041    0.381309   -1.336741
     29          1           0        4.708565    1.969386   -0.648969
     30          1           0        2.273576   -1.334509    0.606566
     31          1           0        4.078109   -2.933363   -0.077111
     32          7           0        2.349390    1.323368    0.411686
     33          8           0        1.321965    0.843435    0.885713
     34          8           0        2.559884    2.523095    0.247414
 ---------------------------------------------------------------------

 SCF Done:  E(RHF) =  -669.535784484     A.U. after   15 cycles
 E2 =    -0.2090908618D+01 EUMP2 =    -0.67162669310173D+03

 The electronic state is 1-A.
 Alpha  occ. eigenvalues --  -20.60859 -20.60853 -15.85900 -11.31244 -11.27812
 Alpha  occ. eigenvalues --  -11.27807 -11.27554 -11.26824 -11.26814 -11.21116
 Alpha  occ. eigenvalues --  -11.20829 -11.20805 -11.20677 -11.20655 -11.19928
 Alpha  occ. eigenvalues --   -1.59929  -1.39483  -1.19416  -1.08817  -1.07784
 Alpha  occ. eigenvalues --   -1.04815  -1.02843  -0.95661  -0.95268  -0.86288
 Alpha  occ. eigenvalues --   -0.86214  -0.82488  -0.78924  -0.77608  -0.77513
 Alpha  occ. eigenvalues --   -0.72131  -0.71247  -0.70525  -0.65073  -0.64819
 Alpha  occ. eigenvalues --   -0.64410  -0.62163  -0.60223  -0.58686  -0.56902
 Alpha  occ. eigenvalues --   -0.55320  -0.54530  -0.53146  -0.52910  -0.51980
 Alpha  occ. eigenvalues --   -0.51697  -0.49230  -0.48878  -0.48830  -0.47227
 Alpha  occ. eigenvalues --   -0.45946  -0.45126  -0.45048  -0.44878  -0.43115
 Alpha  occ. eigenvalues --   -0.37397  -0.36418
 Alpha virt. eigenvalues --    0.04993   0.11236   0.16485   0.21034   0.23460
 Alpha virt. eigenvalues --    0.24447   0.26556   0.27292   0.27663   0.28150
 Alpha virt. eigenvalues --    0.29223   0.30386   0.31565   0.32151   0.32423

 Mulliken charges:
               1
     1  C   -0.298652
     2  C   -0.299558
     3  C   -0.476870
     4  H    0.153909
     5  H    0.147808
     6  H    0.150815
     7  H    0.145628
     8  H    0.148521
     9  H    0.181053
    10  H    0.149795
    11  C   -0.297711
    12  C   -0.299412
    13  C   -0.475355
    14  H    0.148870
    15  H    0.147286
    16  H    0.153032
    17  H    0.151154
    18  H    0.153878
    19  H    0.154663
    20  H    0.159193
    21  C   -0.170559
    22  C   -0.218695
    23  C   -0.170524
    24  C    0.157427
    25  C   -0.171730
    26  C   -0.218959
    27  H    0.225807
    28  H    0.223608
    29  H    0.275690
    30  H    0.277562
    31  H    0.223806
    32  N    0.493023
    33  O   -0.464409
    34  O   -0.460094
 Sum of Mulliken charges =  -0.00000

 Dipole moment (field-independent basis, Debye):
    X=              3.9657    Y=             -3.1678    Z=             -1.4063  Tot=              5.2669
 Quadrupole moment (field-independent basis, Debye-Ang):
   XX=            -69.2046   YY=            -94.3152   ZZ=            -95.4009
   XY=             -7.6811   XZ=             -6.9086   YZ=             -2.1406

 Normal termination of Gaussian 16 at Wed May  5 17:04:36 2021.
