 Gaussian 16, Revision A.03,
 Gaussian 16:  EM64L-G16RevA.03 25-Dec-2016

 -------------
 #p 6-31g* mp2
 -------------

 ------------------------------------------------------
 Input file generated by CHIRIPA (05-May-2021 14:57:26)
 ------------------------------------------------------
 Symbolic Z-matrix:
 Charge =  0 Multiplicity = 1

                         Standard orientation:
 ---------------------------------------------------------------------
 Center     Atomic      Atomic             Coordinates (Angstroms)
 Number     Number       Type             X           Y           Z
 ---------------------------------------------------------------------
      1          6           0        1.523954    0.481395    0.777611
      2          6           0        2.617686    0.883978    1.551043
      3          6           0        3.921173    0.568974    1.155769
      4          6           0        4.095195   -0.153124   -0.023884
      5          6           0        3.025877   -0.568396   -0.815969
      6          6           0        1.731175   -0.242232   -0.401348
      7          1           0        0.514785    0.730433    1.092184
      8          1           0        2.459755    1.446061    2.467103
      9          1           0        4.785899    0.868139    1.735568
     10          1           0        3.214923   -1.127606   -1.724244
     11          1           0        0.883654   -0.556194   -1.003994
     12          7           0        5.470488   -0.492513   -0.452584
     13          8           0        5.597112   -1.129612   -1.495995
     14          8           0        6.395777   -0.115000    0.262931
     15          6           0       -5.007158   -2.092987    0.475321
     16          6           0       -4.095384   -1.544209    1.383084
     17          6           0       -3.458583   -0.331249    1.104231
     18          6           0       -3.758452    0.308927   -0.097245
     19          6           0       -4.662138   -0.212358   -1.021853
     20          6           0       -5.287131   -1.426485   -0.722140
     21          1           0       -5.497254   -3.035697    0.700042
     22          1           0       -3.876019   -2.059615    2.313826
     23          1           0       -2.748542    0.116077    1.789183
     24          1           0       -4.860423    0.324693   -1.941460
     25          1           0       -5.994788   -1.850317   -1.428987
     26          7           0       -3.090550    1.593652   -0.403496
     27          8           0       -3.371949    2.138001   -1.468923
     28          8           0       -2.298295    2.031943    0.427690
 ---------------------------------------------------------------------

 SCF Done:  E(RHF) =  -868.339179675     A.U. after   16 cycles
 E2 =    -0.2598782282D+01 EUMP2 =    -0.87093796195663D+03

 The electronic state is 1-A.
 Alpha  occ. eigenvalues --  -20.61894 -20.61826 -20.60404 -20.60398 -15.86889
 Alpha  occ. eigenvalues --  -15.85456 -11.32102 -11.30716 -11.28687 -11.28601
 Alpha  occ. eigenvalues --  -11.28306 -11.27615 -11.27572 -11.27299 -11.27291
 Alpha  occ. eigenvalues --  -11.26892 -11.26251 -11.26232  -1.60920  -1.59482
 Alpha  occ. eigenvalues --   -1.40482  -1.39039  -1.20248  -1.18877  -1.09661
 Alpha  occ. eigenvalues --   -1.08267  -1.05622  -1.04277  -0.96525  -0.95121
 Alpha  occ. eigenvalues --   -0.87025  -0.85667  -0.83361  -0.81968  -0.78442
 Alpha  occ. eigenvalues --   -0.77052  -0.73107  -0.72242  -0.71675  -0.71337
 Alpha  occ. eigenvalues --   -0.70805  -0.69911  -0.65894  -0.65607  -0.64522
 Alpha  occ. eigenvalues --   -0.64277  -0.62975  -0.61638  -0.56099  -0.54684
 Alpha  occ. eigenvalues --   -0.53962  -0.53701  -0.52599  -0.52365  -0.49876
 Alpha  occ. eigenvalues --   -0.49836  -0.48436  -0.48424  -0.45907  -0.44468
 Alpha  occ. eigenvalues --   -0.38204  -0.37221  -0.36811  -0.35894
 Alpha virt. eigenvalues --    0.04039   0.05499   0.10416   0.11772   0.15563
 Alpha virt. eigenvalues --    0.17026   0.20265   0.21920   0.25855   0.27015
 Alpha virt. eigenvalues --    0.27755   0.28786   0.30387   0.30989   0.32939

 Mulliken charges:
               1
     1  C   -0.173868
     2  C   -0.219778
     3  C   -0.171183
     4  C    0.157556
     5  C   -0.171346
     6  C   -0.219095
     7  H    0.237490
     8  H    0.223269
     9  H    0.274056
    10  H    0.273697
    11  H    0.221463
    12  N    0.488242
    13  O   -0.461954
    14  O   -0.461669
    15  C   -0.170112
    16  C   -0.217835
    17  C   -0.173935
    18  C    0.157228
    19  C   -0.170869
    20  C   -0.218153
    21  H    0.228984
    22  H    0.225843
    23  H    0.271102
    24  H    0.277645
    25  H    0.226748
    26  N    0.488612
    27  O   -0.453723
    28  O   -0.468414
 Sum of Mulliken charges =  -0.00000

 Dipole moment (field-independent basis, Debye):
    X=             -7.6342    Y=             -3.3544    Z=              2.5369  Tot=              8.7160
 Quadrupole moment (field-independent basis, Debye-Ang):
   XX=           -125.5295   YY=           -107.9814   ZZ=            -98.4351
   XY=             23.5689   XZ=              6.9739   YZ=              2.2784

 Normal termination of Gaussian 16 at Thu May  6 18:08:18 2021.
