 Gaussian 16, Revision A.03,
 Gaussian 16:  EM64L-G16RevA.03 25-Dec-2016

 -------------
 #p 6-31g* mp2
 -------------

 ------------------------------------------------------
 Input file generated by CHIRIPA (05-May-2021 14:57:23)
 ------------------------------------------------------
 Symbolic Z-matrix:
 Charge =  0 Multiplicity = 1

                         Standard orientation:
 ---------------------------------------------------------------------
 Center     Atomic      Atomic             Coordinates (Angstroms)
 Number     Number       Type             X           Y           Z
 ---------------------------------------------------------------------
      1          6           0        3.167374    1.867989    1.382165
      2          6           0        2.416232    0.816995    1.918559
      3          6           0        2.118795   -0.309639    1.146047
      4          6           0        2.590540   -0.352312   -0.165031
      5          6           0        3.341217    0.678656   -0.727953
      6          6           0        3.626659    1.795593    0.062947
      7          1           0        3.393771    2.739419    1.989413
      8          1           0        2.058236    0.870495    2.942777
      9          1           0        1.539311   -1.137546    1.536158
     10          1           0        3.684297    0.596616   -1.752152
     11          1           0        4.210218    2.610314   -0.356259
     12          7           0        2.282006   -1.539896   -0.992588
     13          8           0        2.709255   -1.553253   -2.144941
     14          8           0        1.618771   -2.434880   -0.473204
     15          6           0       -2.679067    2.494169   -0.920148
     16          6           0       -1.479173    1.947386   -0.453454
     17          6           0       -1.446511    0.653172    0.074271
     18          6           0       -2.637748   -0.069405    0.120365
     19          6           0       -3.848965    0.447649   -0.336687
     20          6           0       -3.858055    1.743878   -0.860380
     21          1           0       -2.695284    3.500328   -1.328531
     22          1           0       -0.562021    2.527762   -0.498626
     23          1           0       -0.531475    0.205412    0.442563
     24          1           0       -4.747067   -0.155221   -0.278546
     25          1           0       -4.791363    2.165954   -1.222088
     26          7           0       -2.615648   -1.440599    0.676909
     27          8           0       -3.678773   -2.056657    0.706448
     28          8           0       -1.535619   -1.873317    1.073051
 ---------------------------------------------------------------------

 SCF Done:  E(RHF) =  -868.336731637     A.U. after   16 cycles
 E2 =    -0.2603052637D+01 EUMP2 =    -0.87093978427351D+03

 The electronic state is 1-A.
 Alpha  occ. eigenvalues --  -20.60737 -20.60639 -20.60551 -20.60511 -15.85744
 Alpha  occ. eigenvalues --  -15.85578 -11.31484 -11.31022 -11.28094 -11.27924
 Alpha  occ. eigenvalues --  -11.27874 -11.27608 -11.27560 -11.27395 -11.27183
 Alpha  occ. eigenvalues --  -11.27125 -11.26662 -11.26652  -1.59772  -1.59593
 Alpha  occ. eigenvalues --   -1.39303  -1.39146  -1.19703  -1.19212  -1.09015
 Alpha  occ. eigenvalues --   -1.08598  -1.05128  -1.04628  -0.95782  -0.95414
 Alpha  occ. eigenvalues --   -0.86490  -0.86028  -0.82578  -0.82248  -0.77601
 Alpha  occ. eigenvalues --   -0.77250  -0.71972  -0.71777  -0.71139  -0.70900
 Alpha  occ. eigenvalues --   -0.70736  -0.70328  -0.65299  -0.65082  -0.64864
 Alpha  occ. eigenvalues --   -0.64648  -0.62424  -0.61979  -0.55579  -0.55179
 Alpha  occ. eigenvalues --   -0.53511  -0.53155  -0.52957  -0.52656  -0.48762
 Alpha  occ. eigenvalues --   -0.48710  -0.48559  -0.48513  -0.44704  -0.44427
 Alpha  occ. eigenvalues --   -0.37722  -0.37207  -0.36760  -0.36226
 Alpha virt. eigenvalues --    0.04893   0.05260   0.10764   0.11409   0.16352
 Alpha virt. eigenvalues --    0.16732   0.21098   0.21657   0.26900   0.27418
 Alpha virt. eigenvalues --    0.27915   0.28714   0.30606   0.31139   0.32027

 Mulliken charges:
               1
     1  C   -0.174302
     2  C   -0.219953
     3  C   -0.196496
     4  C    0.159352
     5  C   -0.172967
     6  C   -0.220434
     7  H    0.226194
     8  H    0.228104
     9  H    0.297151
    10  H    0.276802
    11  H    0.223795
    12  N    0.486230
    13  O   -0.463256
    14  O   -0.445853
    15  C   -0.170661
    16  C   -0.224230
    17  C   -0.175799
    18  C    0.158562
    19  C   -0.169531
    20  C   -0.218985
    21  H    0.223964
    22  H    0.222047
    23  H    0.282864
    24  H    0.275901
    25  H    0.222946
    26  N    0.488698
    27  O   -0.460289
    28  O   -0.459855
 Sum of Mulliken charges =  -0.00000

 Dipole moment (field-independent basis, Debye):
    X=              1.0586    Y=              8.7130    Z=              1.0169  Tot=              8.8357
 Quadrupole moment (field-independent basis, Debye-Ang):
   XX=            -93.2894   YY=           -108.5601   ZZ=           -104.2260
   XY=             -0.7439   XZ=             11.6865   YZ=             -2.8307

 Normal termination of Gaussian 16 at Fri May  7 03:22:56 2021.
