 Gaussian 16, Revision A.03,
 Gaussian 16:  EM64L-G16RevA.03 25-Dec-2016

 -------------
 #p 6-31g* mp2
 -------------

 ------------------------------------------------------
 Input file generated by CHIRIPA (05-May-2021 14:55:25)
 ------------------------------------------------------
 Symbolic Z-matrix:
 Charge =  0 Multiplicity = 1

                         Standard orientation:
 ---------------------------------------------------------------------
 Center     Atomic      Atomic             Coordinates (Angstroms)
 Number     Number       Type             X           Y           Z
 ---------------------------------------------------------------------
      1          6           0        4.293788    2.333018    0.266753
      2          6           0        5.092409    1.199523    0.450914
      3          6           0        4.584623   -0.076737    0.190413
      4          6           0        3.267997   -0.183282   -0.255047
      5          6           0        2.447399    0.926945   -0.448187
      6          6           0        2.976155    2.193357   -0.181420
      7          1           0        4.696393    3.320623    0.471550
      8          1           0        6.116055    1.304970    0.798872
      9          1           0        5.180907   -0.971105    0.324464
     10          1           0        1.430716    0.790057   -0.796088
     11          1           0        2.353631    3.071878   -0.325335
     12          7           0        2.719327   -1.529189   -0.534145
     13          8           0        1.556223   -1.596231   -0.925718
     14          8           0        3.462774   -2.491585   -0.356043
     15          6           0       -3.540038   -0.080549    0.185355
     16          6           0       -2.836664   -0.820203    1.323847
     17          6           0       -1.319127   -0.874285    1.145103
     18          1           0       -3.298870   -0.572242   -0.767022
     19          1           0       -3.141022    0.941137    0.119481
     20          1           0       -3.237871   -1.839750    1.388444
     21          1           0       -3.079688   -0.326806    2.273644
     22          1           0       -0.899967    0.136213    1.102704
     23          1           0       -1.059048   -1.385326    0.212474
     24          1           0       -0.836461   -1.407446    1.970108
     25          6           0       -5.057531   -0.018112    0.349809
     26          6           0       -5.760903    0.721542   -0.788683
     27          6           0       -7.278440    0.775625   -0.609939
     28          1           0       -5.456546   -1.039797    0.415682
     29          1           0       -5.298697    0.473582    1.302186
     30          1           0       -5.517879    0.228146   -1.738480
     31          1           0       -5.359698    1.741090   -0.853280
     32          1           0       -7.538520    1.286666    0.322690
     33          1           0       -7.697601   -0.234875   -0.567540
     34          1           0       -7.761107    1.308786   -1.434944
 ---------------------------------------------------------------------

 SCF Done:  E(RHF) =  -669.535950899     A.U. after   15 cycles
 E2 =    -0.2091178653D+01 EUMP2 =    -0.67162712955218D+03

 The electronic state is 1-A.
 Alpha  occ. eigenvalues --  -20.60826 -20.60815 -15.85859 -11.31197 -11.27769
 Alpha  occ. eigenvalues --  -11.27753 -11.27513 -11.26783 -11.26772 -11.21402
 Alpha  occ. eigenvalues --  -11.21117 -11.21090 -11.21008 -11.20907 -11.20290
 Alpha  occ. eigenvalues --   -1.59884  -1.39440  -1.19370  -1.08772  -1.08092
 Alpha  occ. eigenvalues --   -1.04771  -1.03142  -0.95639  -0.95551  -0.86591
 Alpha  occ. eigenvalues --   -0.86169  -0.82448  -0.79217  -0.77914  -0.77482
 Alpha  occ. eigenvalues --   -0.72091  -0.71195  -0.70481  -0.65029  -0.64779
 Alpha  occ. eigenvalues --   -0.64722  -0.62119  -0.60535  -0.58972  -0.57192
 Alpha  occ. eigenvalues --   -0.55279  -0.54856  -0.53099  -0.52868  -0.52262
 Alpha  occ. eigenvalues --   -0.51997  -0.49521  -0.48848  -0.48830  -0.47521
 Alpha  occ. eigenvalues --   -0.46259  -0.45467  -0.45380  -0.44761  -0.43404
 Alpha  occ. eigenvalues --   -0.37351  -0.36371
 Alpha virt. eigenvalues --    0.05012   0.11255   0.16493   0.21203   0.23179
 Alpha virt. eigenvalues --    0.24495   0.26492   0.27106   0.27677   0.27930
 Alpha virt. eigenvalues --    0.29184   0.30947   0.31558   0.32016   0.32459

 Mulliken charges:
               1
     1  C   -0.170639
     2  C   -0.218614
     3  C   -0.170910
     4  C    0.158136
     5  C   -0.171124
     6  C   -0.218949
     7  H    0.225595
     8  H    0.223439
     9  H    0.275548
    10  H    0.277928
    11  H    0.223455
    12  N    0.490291
    13  O   -0.461392
    14  O   -0.460019
    15  C   -0.297805
    16  C   -0.300242
    17  C   -0.480013
    18  H    0.152644
    19  H    0.144005
    20  H    0.153080
    21  H    0.147746
    22  H    0.141260
    23  H    0.179420
    24  H    0.159325
    25  C   -0.297866
    26  C   -0.299319
    27  C   -0.475499
    28  H    0.150423
    29  H    0.148254
    30  H    0.152678
    31  H    0.149726
    32  H    0.154396
    33  H    0.155697
    34  H    0.159346
 Sum of Mulliken charges =  -0.00000

 Dipole moment (field-independent basis, Debye):
    X=              2.0634    Y=              4.6100    Z=              0.9058  Tot=              5.1313
 Quadrupole moment (field-independent basis, Debye-Ang):
   XX=            -80.0886   YY=            -95.2808   ZZ=            -95.6938
   XY=             13.7919   XZ=              4.3269   YZ=             -1.5264

 Normal termination of Gaussian 16 at Wed May  5 19:11:11 2021.
