 Gaussian 16, Revision A.03,
 Gaussian 16:  EM64L-G16RevA.03 25-Dec-2016

 -------------
 #p 6-31g* mp2
 -------------

 ------------------------------------------------------
 Input file generated by CHIRIPA (05-May-2021 14:51:11)
 ------------------------------------------------------
 Symbolic Z-matrix:
 Charge =  0 Multiplicity = 1

                         Standard orientation:
 ---------------------------------------------------------------------
 Center     Atomic      Atomic             Coordinates (Angstroms)
 Number     Number       Type             X           Y           Z
 ---------------------------------------------------------------------
      1          6           0        3.851020    0.847692   -0.305797
      2          6           0        2.427427    0.746682    0.242990
      3          6           0        1.566712    1.957173   -0.119879
      4          1           0        4.321584    1.762673    0.079332
      5          1           0        3.808557    0.954213   -1.398612
      6          1           0        2.472610    0.638993    1.334309
      7          1           0        1.960264   -0.168263   -0.143337
      8          1           0        1.491902    2.064745   -1.206817
      9          1           0        2.007159    2.876588    0.279225
     10          1           0        0.553113    1.864141    0.282392
     11          6           0        4.723694   -0.355020    0.048677
     12          6           0        6.147286   -0.254010   -0.500110
     13          6           0        7.008002   -1.464501   -0.137241
     14          1           0        4.766156   -0.461541    1.141492
     15          1           0        4.253130   -1.270001   -0.336452
     16          1           0        6.614450    0.660936   -0.113783
     17          1           0        6.102104   -0.146321   -1.591429
     18          1           0        6.567554   -2.383915   -0.536346
     19          1           0        7.082811   -1.572072    0.949696
     20          1           0        8.021601   -1.371469   -0.539512
     21          6           0       -3.748238   -0.141238    0.659350
     22          6           0       -2.332391   -0.406100    0.146313
     23          6           0       -1.264894   -0.191637    1.219742
     24          1           0       -3.807821    0.888650    1.037143
     25          1           0       -3.949900   -0.800267    1.515158
     26          1           0       -2.133957    0.252258   -0.709144
     27          1           0       -2.276224   -1.435415   -0.230480
     28          1           0       -1.435019   -0.858802    2.070947
     29          1           0       -1.291943    0.838461    1.589564
     30          1           0       -0.260320   -0.386440    0.831486
     31          6           0       -4.826475   -0.351435   -0.402229
     32          6           0       -6.242323   -0.086572    0.110808
     33          6           0       -7.309819   -0.301035   -0.962622
     34          1           0       -4.624812    0.307595   -1.258038
     35          1           0       -4.766892   -1.381321   -0.780023
     36          1           0       -6.298489    0.942744    0.487599
     37          1           0       -6.440756   -0.744930    0.966263
     38          1           0       -7.282770   -1.331133   -1.332444
     39          1           0       -7.139694    0.366130   -1.813827
     40          1           0       -8.314392   -0.106233   -0.574365
 ---------------------------------------------------------------------

 SCF Done:  E(RHF) =  -470.732065413     A.U. after   11 cycles
 E2 =    -0.1583478726D+01 EUMP2 =    -0.47231554413902D+03

 The electronic state is 1-A.
 Alpha  occ. eigenvalues --  -11.21596 -11.21595 -11.21594 -11.21592 -11.21397
 Alpha  occ. eigenvalues --  -11.21394 -11.21338 -11.21334 -11.21067 -11.21065
 Alpha  occ. eigenvalues --  -11.20998 -11.20941  -1.08441  -1.08402  -1.03589
 Alpha  occ. eigenvalues --   -1.03452  -0.96080  -0.95855  -0.87064  -0.86902
 Alpha  occ. eigenvalues --   -0.79621  -0.79557  -0.78251  -0.78223  -0.65066
 Alpha  occ. eigenvalues --   -0.65049  -0.61004  -0.60919  -0.59744  -0.59035
 Alpha  occ. eigenvalues --   -0.57798  -0.57309  -0.55269  -0.55229  -0.52842
 Alpha  occ. eigenvalues --   -0.52538  -0.52402  -0.52205  -0.49894  -0.49883
 Alpha  occ. eigenvalues --   -0.47991  -0.47809  -0.46618  -0.46603  -0.45798
 Alpha  occ. eigenvalues --   -0.45757  -0.45704  -0.45694  -0.43760  -0.43726
 Alpha virt. eigenvalues --    0.21745   0.23062   0.23490   0.25311   0.26387
 Alpha virt. eigenvalues --    0.26583   0.26971   0.27438   0.27648   0.28958
 Alpha virt. eigenvalues --    0.29804   0.31145   0.31505   0.31829   0.32578

 Mulliken charges:
               1
     1  C   -0.297685
     2  C   -0.301751
     3  C   -0.482755
     4  H    0.149781
     5  H    0.149511
     6  H    0.152910
     7  H    0.151212
     8  H    0.154110
     9  H    0.154647
    10  H    0.169643
    11  C   -0.298364
    12  C   -0.299644
    13  C   -0.475692
    14  H    0.149593
    15  H    0.149493
    16  H    0.151962
    17  H    0.151905
    18  H    0.155143
    19  H    0.155198
    20  H    0.160230
    21  C   -0.298441
    22  C   -0.300569
    23  C   -0.485489
    24  H    0.149702
    25  H    0.149598
    26  H    0.152616
    27  H    0.151843
    28  H    0.155533
    29  H    0.154416
    30  H    0.171370
    31  C   -0.298244
    32  C   -0.299641
    33  C   -0.475700
    34  H    0.149550
    35  H    0.149572
    36  H    0.151958
    37  H    0.151908
    38  H    0.155142
    39  H    0.155192
    40  H    0.160238
 Sum of Mulliken charges =  -0.00000

 Dipole moment (field-independent basis, Debye):
    X=             -0.0001    Y=             -0.0067    Z=              0.0123  Tot=              0.0140
 Quadrupole moment (field-independent basis, Debye-Ang):
   XX=            -86.1766   YY=            -84.2941   ZZ=            -84.4690
   XY=              0.6861   XZ=             -0.4276   YZ=              0.2376

 Normal termination of Gaussian 16 at Wed May  5 23:05:23 2021.
