 Gaussian 16, Revision A.03,
 Gaussian 16:  EM64L-G16RevA.03 25-Dec-2016

 -------------
 #p 6-31g* mp2
 -------------

 ------------------------------------------------------
 Input file generated by CHIRIPA (05-May-2021 14:53:14)
 ------------------------------------------------------
 Symbolic Z-matrix:
 Charge =  0 Multiplicity = 1

                         Standard orientation:
 ---------------------------------------------------------------------
 Center     Atomic      Atomic             Coordinates (Angstroms)
 Number     Number       Type             X           Y           Z
 ---------------------------------------------------------------------
      1          6           0       -5.279050    0.108970    0.252512
      2          6           0       -6.130410   -0.716614   -0.712672
      3          6           0       -7.606903   -0.320332   -0.685772
      4          1           0       -5.673141   -0.008307    1.271278
      5          1           0       -5.378572    1.173620   -0.000492
      6          1           0       -6.028222   -1.779496   -0.458791
      7          1           0       -5.734129   -0.597510   -1.729231
      8          1           0       -7.728261    0.732509   -0.960359
      9          1           0       -8.024024   -0.456193    0.317300
     10          1           0       -8.197103   -0.923017   -1.383120
     11          6           0       -3.800647   -0.275497    0.237047
     12          6           0       -2.949287    0.550088    1.202231
     13          6           0       -1.472794    0.153806    1.175331
     14          1           0       -3.701125   -1.340146    0.490051
     15          1           0       -3.406556   -0.158219   -0.781719
     16          1           0       -3.345568    0.430983    2.218790
     17          1           0       -3.051476    1.612970    0.948350
     18          1           0       -1.055673    0.289667    0.172259
     19          1           0       -1.351437   -0.899036    1.449918
     20          1           0       -0.882594    0.756491    1.872679
     21          6           0        4.866369   -2.067329    0.087170
     22          6           0        3.498386   -2.123039   -0.199254
     23          6           0        2.757281   -0.947935   -0.355586
     24          6           0        3.419182    0.271199   -0.218149
     25          6           0        4.780879    0.359524    0.066927
     26          6           0        5.502130   -0.828409    0.219113
     27          1           0        5.434366   -2.985161    0.207001
     28          1           0        3.002013   -3.083792   -0.302275
     29          1           0        1.697123   -0.962105   -0.577586
     30          1           0        5.247935    1.332095    0.163797
     31          1           0        6.564407   -0.782108    0.441525
     32          7           0        2.645116    1.522021   -0.381456
     33          8           0        3.251683    2.583547   -0.255456
     34          8           0        1.446494    1.417204   -0.632366
 ---------------------------------------------------------------------

 SCF Done:  E(RHF) =  -669.535906631     A.U. after   15 cycles
 E2 =    -0.2090971399D+01 EUMP2 =    -0.67162687802959D+03

 The electronic state is 1-A.
 Alpha  occ. eigenvalues --  -20.60831 -20.60822 -15.85870 -11.31202 -11.27775
 Alpha  occ. eigenvalues --  -11.27760 -11.27517 -11.26786 -11.26774 -11.21307
 Alpha  occ. eigenvalues --  -11.21006 -11.20973 -11.20898 -11.20816 -11.20243
 Alpha  occ. eigenvalues --   -1.59896  -1.39451  -1.19376  -1.08779  -1.07985
 Alpha  occ. eigenvalues --   -1.04775  -1.03044  -0.95631  -0.95477  -0.86509
 Alpha  occ. eigenvalues --   -0.86175  -0.82455  -0.79127  -0.77809  -0.77492
 Alpha  occ. eigenvalues --   -0.72102  -0.71212  -0.70487  -0.65035  -0.64780
 Alpha  occ. eigenvalues --   -0.64611  -0.62123  -0.60428  -0.58873  -0.57103
 Alpha  occ. eigenvalues --   -0.55283  -0.54763  -0.53106  -0.52871  -0.52167
 Alpha  occ. eigenvalues --   -0.51925  -0.49457  -0.48851  -0.48820  -0.47432
 Alpha  occ. eigenvalues --   -0.46156  -0.45346  -0.45268  -0.44817  -0.43298
 Alpha  occ. eigenvalues --   -0.37359  -0.36376
 Alpha virt. eigenvalues --    0.05019   0.11272   0.16509   0.21198   0.23306
 Alpha virt. eigenvalues --    0.24661   0.26382   0.27126   0.27665   0.28007
 Alpha virt. eigenvalues --    0.29128   0.30618   0.31687   0.32022   0.32492

 Mulliken charges:
               1
     1  C   -0.298010
     2  C   -0.299307
     3  C   -0.475489
     4  H    0.148526
     5  H    0.150818
     6  H    0.150118
     7  H    0.151978
     8  H    0.155687
     9  H    0.154558
    10  H    0.159039
    11  C   -0.298321
    12  C   -0.299566
    13  C   -0.480898
    14  H    0.145438
    15  H    0.150765
    16  H    0.148257
    17  H    0.155933
    18  H    0.173191
    19  H    0.142664
    20  H    0.162666
    21  C   -0.170596
    22  C   -0.219112
    23  C   -0.170699
    24  C    0.157733
    25  C   -0.170921
    26  C   -0.218695
    27  H    0.225635
    28  H    0.223739
    29  H    0.277988
    30  H    0.275533
    31  H    0.223447
    32  N    0.491371
    33  O   -0.460105
    34  O   -0.463363
 Sum of Mulliken charges =  -0.00000

 Dipole moment (field-independent basis, Debye):
    X=              2.8747    Y=             -4.2996    Z=              0.5135  Tot=              5.1975
 Quadrupole moment (field-independent basis, Debye-Ang):
   XX=            -74.5912   YY=            -95.7347   ZZ=            -95.3907
   XY=            -12.0216   XZ=              2.1776   YZ=              1.2353

 Normal termination of Gaussian 16 at Thu May  6 04:14:01 2021.
