 Gaussian 16, Revision A.03,
 Gaussian 16:  EM64L-G16RevA.03 25-Dec-2016

 -------------
 #p 6-31g* mp2
 -------------

 ------------------------------------------------------
 Input file generated by CHIRIPA (05-May-2021 14:53:13)
 ------------------------------------------------------
 Symbolic Z-matrix:
 Charge =  0 Multiplicity = 1

                         Standard orientation:
 ---------------------------------------------------------------------
 Center     Atomic      Atomic             Coordinates (Angstroms)
 Number     Number       Type             X           Y           Z
 ---------------------------------------------------------------------
      1          6           0       -2.715705    0.938861   -0.427197
      2          6           0       -1.618797    1.376925    0.543823
      3          6           0       -0.423029    2.014919   -0.163919
      4          1           0       -2.293710    0.227719   -1.150482
      5          1           0       -3.052920    1.810050   -1.005739
      6          1           0       -1.284720    0.505438    1.121332
      7          1           0       -2.043499    2.086961    1.264998
      8          1           0       -0.735807    2.900794   -0.726055
      9          1           0        0.027283    1.310285   -0.870537
     10          1           0        0.349127    2.320625    0.548948
     11          6           0       -3.917784    0.299222    0.265331
     12          6           0       -5.014692   -0.138842   -0.705688
     13          6           0       -6.210460   -0.776836    0.002053
     14          1           0       -3.580569   -0.571967    0.843873
     15          1           0       -4.339780    1.010364    0.988616
     16          1           0       -4.589991   -0.848878   -1.426864
     17          1           0       -5.348770    0.732645   -1.283198
     18          1           0       -6.660772   -0.072202    0.708671
     19          1           0       -5.897682   -1.662711    0.564189
     20          1           0       -6.982616   -1.082543   -0.710813
     21          6           0        0.412552   -1.643450    0.586866
     22          6           0        0.935905   -1.689037   -0.709492
     23          6           0        2.142262   -1.050036   -1.011038
     24          6           0        2.801831   -0.371499    0.012605
     25          6           0        2.306049   -0.308021    1.313936
     26          6           0        1.098085   -0.954302    1.592670
     27          1           0       -0.525200   -2.142668    0.812254
     28          1           0        0.405679   -2.223490   -1.492604
     29          1           0        2.570056   -1.069394   -2.006043
     30          1           0        2.857454    0.232621    2.073593
     31          1           0        0.694015   -0.917228    2.600339
     32          7           0        4.079797    0.308837   -0.294552
     33          8           0        4.641589    0.899983    0.624999
     34          8           0        4.495478    0.238054   -1.449038
 ---------------------------------------------------------------------

 SCF Done:  E(RHF) =  -669.533457197     A.U. after   15 cycles
 E2 =    -0.2095839359D+01 EUMP2 =    -0.67162929655571D+03

 The electronic state is 1-A.
 Alpha  occ. eigenvalues --  -20.60820 -20.60814 -15.85877 -11.31277 -11.27876
 Alpha  occ. eigenvalues --  -11.27858 -11.27617 -11.26902 -11.26867 -11.22162
 Alpha  occ. eigenvalues --  -11.22000 -11.21881 -11.21822 -11.21592 -11.21110
 Alpha  occ. eigenvalues --   -1.59895  -1.39447  -1.19485  -1.08982  -1.08814
 Alpha  occ. eigenvalues --   -1.04897  -1.03924  -0.96372  -0.95696  -0.87385
 Alpha  occ. eigenvalues --   -0.86293  -0.82522  -0.80014  -0.78752  -0.77554
 Alpha  occ. eigenvalues --   -0.72097  -0.71218  -0.70603  -0.65614  -0.65134
 Alpha  occ. eigenvalues --   -0.64884  -0.62237  -0.61425  -0.59763  -0.58003
 Alpha  occ. eigenvalues --   -0.55847  -0.55392  -0.53209  -0.52980  -0.52854
 Alpha  occ. eigenvalues --   -0.52706  -0.50287  -0.48858  -0.48847  -0.48307
 Alpha  occ. eigenvalues --   -0.47109  -0.46281  -0.46249  -0.44845  -0.44214
 Alpha  occ. eigenvalues --   -0.37334  -0.36428
 Alpha virt. eigenvalues --    0.04950   0.11024   0.16364   0.20110   0.22831
 Alpha virt. eigenvalues --    0.24113   0.25618   0.26171   0.27032   0.27853
 Alpha virt. eigenvalues --    0.29472   0.30738   0.31127   0.31517   0.31698

 Mulliken charges:
               1
     1  C   -0.298603
     2  C   -0.299862
     3  C   -0.477739
     4  H    0.144667
     5  H    0.152675
     6  H    0.147001
     7  H    0.150975
     8  H    0.155243
     9  H    0.158872
    10  H    0.159980
    11  C   -0.296932
    12  C   -0.299423
    13  C   -0.475633
    14  H    0.140555
    15  H    0.152174
    16  H    0.149453
    17  H    0.154694
    18  H    0.156723
    19  H    0.153011
    20  H    0.161879
    21  C   -0.169330
    22  C   -0.219416
    23  C   -0.172512
    24  C    0.162002
    25  C   -0.170786
    26  C   -0.215649
    27  H    0.227156
    28  H    0.224120
    29  H    0.276336
    30  H    0.276087
    31  H    0.224702
    32  N    0.488019
    33  O   -0.460264
    34  O   -0.460173
 Sum of Mulliken charges =  -0.00000

 Dipole moment (field-independent basis, Debye):
    X=             -4.4128    Y=             -2.4013    Z=              1.0696  Tot=              5.1365
 Quadrupole moment (field-independent basis, Debye-Ang):
   XX=           -121.2428   YY=            -92.6219   ZZ=            -90.4089
   XY=             -5.9528   XZ=              3.7856   YZ=              1.4497

 Normal termination of Gaussian 16 at Thu May  6 02:37:06 2021.
