 Gaussian 16, Revision A.03,
 Gaussian 16:  EM64L-G16RevA.03 25-Dec-2016

 -------------
 #p 6-31g* mp2
 -------------

 ------------------------------------------------------
 Input file generated by CHIRIPA (05-May-2021 14:51:10)
 ------------------------------------------------------
 Symbolic Z-matrix:
 Charge =  0 Multiplicity = 1

                         Standard orientation:
 ---------------------------------------------------------------------
 Center     Atomic      Atomic             Coordinates (Angstroms)
 Number     Number       Type             X           Y           Z
 ---------------------------------------------------------------------
      1          6           0       -4.351520    0.402317   -0.040993
      2          6           0       -4.116974    1.882520    0.262277
      3          6           0       -5.396847    2.612172    0.671337
      4          1           0       -5.098371    0.312487   -0.841674
      5          1           0       -4.783699   -0.082400    0.845385
      6          1           0       -3.684082    2.364002   -0.623948
      7          1           0       -3.370454    1.968841    1.062197
      8          1           0       -5.828874    2.158317    1.569095
      9          1           0       -6.144284    2.555723   -0.126631
     10          1           0       -5.206244    3.668822    0.883518
     11          6           0       -3.081367   -0.340669   -0.451370
     12          6           0       -3.315913   -1.820872   -0.754641
     13          6           0       -2.036041   -2.550523   -1.163700
     14          1           0       -2.649188    0.144048   -1.337748
     15          1           0       -2.334516   -0.250839    0.349311
     16          1           0       -4.062434   -1.907193   -1.554561
     17          1           0       -3.748806   -2.302354    0.131585
     18          1           0       -1.288604   -2.494075   -0.365733
     19          1           0       -1.604014   -2.096669   -2.061458
     20          1           0       -2.226644   -3.607174   -1.375882
     21          6           0        4.401281    0.156240   -0.035664
     22          6           0        4.547428    1.648935   -0.333135
     23          6           0        5.922890    2.007560   -0.896418
     24          1           0        5.181107   -0.147367    0.676122
     25          1           0        4.580816   -0.413602   -0.957859
     26          1           0        4.366309    2.215862    0.589038
     27          1           0        3.767045    1.949064   -1.044149
     28          1           0        6.109424    1.467628   -1.830378
     29          1           0        6.712093    1.735942   -0.187911
     30          1           0        6.005576    3.079390   -1.101852
     31          6           0        3.031607   -0.217889    0.528027
     32          6           0        2.885459   -1.710582    0.825500
     33          6           0        1.509998   -2.069208    1.388781
     34          1           0        2.852071    0.351953    1.450222
     35          1           0        2.251781    0.085720   -0.183758
     36          1           0        3.665842   -2.010712    1.536512
     37          1           0        3.066578   -2.277511   -0.096675
     38          1           0        0.720794   -1.797590    0.680274
     39          1           0        1.323463   -1.529277    2.322741
     40          1           0        1.427312   -3.141039    1.594215
 ---------------------------------------------------------------------

 SCF Done:  E(RHF) =  -470.733322728     A.U. after   11 cycles
 E2 =    -0.1582371570D+01 EUMP2 =    -0.47231569429801D+03

 The electronic state is 1-A.
 Alpha  occ. eigenvalues --  -11.21599 -11.21595 -11.21591 -11.21586 -11.21397
 Alpha  occ. eigenvalues --  -11.21396 -11.21338 -11.21336 -11.21074 -11.21066
 Alpha  occ. eigenvalues --  -11.21062 -11.21037  -1.08427  -1.08416  -1.03540
 Alpha  occ. eigenvalues --   -1.03507  -0.96005  -0.95945  -0.87038  -0.86949
 Alpha  occ. eigenvalues --   -0.79638  -0.79538  -0.78252  -0.78216  -0.65084
 Alpha  occ. eigenvalues --   -0.65023  -0.61027  -0.60831  -0.59352  -0.59330
 Alpha  occ. eigenvalues --   -0.57647  -0.57534  -0.55435  -0.55112  -0.52687
 Alpha  occ. eigenvalues --   -0.52656  -0.52502  -0.52302  -0.50105  -0.49736
 Alpha  occ. eigenvalues --   -0.48015  -0.47797  -0.46737  -0.46478  -0.45842
 Alpha  occ. eigenvalues --   -0.45739  -0.45712  -0.45602  -0.43782  -0.43772
 Alpha virt. eigenvalues --    0.21841   0.23040   0.23538   0.24775   0.25915
 Alpha virt. eigenvalues --    0.26787   0.27120   0.27628   0.27814   0.28909
 Alpha virt. eigenvalues --    0.30522   0.31696   0.31784   0.31856   0.32059

 Mulliken charges:
               1
     1  C   -0.298272
     2  C   -0.299683
     3  C   -0.475710
     4  H    0.149644
     5  H    0.149647
     6  H    0.151814
     7  H    0.152143
     8  H    0.155204
     9  H    0.155130
    10  H    0.160226
    11  C   -0.299022
    12  C   -0.299104
    13  C   -0.483281
    14  H    0.149091
    15  H    0.150283
    16  H    0.151805
    17  H    0.152099
    18  H    0.163123
    19  H    0.154282
    20  H    0.160426
    21  C   -0.298335
    22  C   -0.299660
    23  C   -0.475708
    24  H    0.149599
    25  H    0.149614
    26  H    0.151889
    27  H    0.152017
    28  H    0.155192
    29  H    0.155156
    30  H    0.160230
    31  C   -0.298675
    32  C   -0.299125
    33  C   -0.482773
    34  H    0.149336
    35  H    0.150282
    36  H    0.151905
    37  H    0.152398
    38  H    0.161472
    39  H    0.154898
    40  H    0.160446
 Sum of Mulliken charges =  -0.00000

 Dipole moment (field-independent basis, Debye):
    X=              0.0071    Y=             -0.0044    Z=              0.0061  Tot=              0.0103
 Quadrupole moment (field-independent basis, Debye-Ang):
   XX=            -86.2673   YY=            -85.3393   ZZ=            -83.2004
   XY=              0.1686   XZ=              1.1262   YZ=             -0.1266

 Normal termination of Gaussian 16 at Wed May  5 23:03:26 2021.
