 Gaussian 16, Revision A.03,
 Gaussian 16:  EM64L-G16RevA.03 25-Dec-2016

 -------------
 #p 6-31g* mp2
 -------------

 ------------------------------------------------------
 Input file generated by CHIRIPA (05-May-2021 14:55:20)
 ------------------------------------------------------
 Symbolic Z-matrix:
 Charge =  0 Multiplicity = 1

                         Standard orientation:
 ---------------------------------------------------------------------
 Center     Atomic      Atomic             Coordinates (Angstroms)
 Number     Number       Type             X           Y           Z
 ---------------------------------------------------------------------
      1          6           0       -0.499367   -1.036334    0.392713
      2          6           0       -0.997032    0.106855    1.026722
      3          6           0       -2.334831    0.480849    0.868695
      4          6           0       -3.150606   -0.314947    0.065882
      5          6           0       -2.684358   -1.459574   -0.578890
      6          6           0       -1.343130   -1.814529   -0.406660
      7          1           0        0.541199   -1.319466    0.520988
      8          1           0       -0.344056    0.713104    1.648115
      9          1           0       -2.746215    1.360892    1.347970
     10          1           0       -3.359531   -2.043971   -1.192111
     11          1           0       -0.959373   -2.702866   -0.900251
     12          7           0       -4.568689    0.070905   -0.108932
     13          8           0       -5.266911   -0.647028   -0.821459
     14          8           0       -4.955108    1.083963    0.469887
     15          6           0        4.303053    0.037484   -0.364774
     16          6           0        4.538367   -1.183576    0.524958
     17          6           0        5.680710   -2.068211    0.024692
     18          1           0        4.087258   -0.298617   -1.388207
     19          1           0        5.228540    0.627418   -0.418126
     20          1           0        3.612303   -1.770294    0.577732
     21          1           0        4.753437   -0.844535    1.546433
     22          1           0        6.617954   -1.503508   -0.011131
     23          1           0        5.470337   -2.434527   -0.985336
     24          1           0        5.831648   -2.935177    0.675420
     25          6           0        3.164183    0.931578    0.122359
     26          6           0        2.928869    2.152640   -0.767373
     27          6           0        1.786526    3.037274   -0.267107
     28          1           0        2.238695    0.341645    0.175710
     29          1           0        3.379978    1.267680    1.145791
     30          1           0        2.713798    1.813597   -1.788848
     31          1           0        3.854932    2.739357   -0.820147
     32          1           0        1.996899    3.403590    0.742921
     33          1           0        0.849281    2.472570   -0.231284
     34          1           0        1.635587    3.904240   -0.917836
 ---------------------------------------------------------------------

 SCF Done:  E(RHF) =  -669.535389765     A.U. after   15 cycles
 E2 =    -0.2092632486D+01 EUMP2 =    -0.67162802225098D+03

 The electronic state is 1-A.
 Alpha  occ. eigenvalues --  -20.60777 -20.60771 -15.85831 -11.31214 -11.27788
 Alpha  occ. eigenvalues --  -11.27781 -11.27510 -11.26798 -11.26779 -11.22583
 Alpha  occ. eigenvalues --  -11.22429 -11.22350 -11.22271 -11.21849 -11.21757
 Alpha  occ. eigenvalues --   -1.59852  -1.39405  -1.19391  -1.09351  -1.08779
 Alpha  occ. eigenvalues --   -1.04794  -1.04361  -0.96807  -0.95614  -0.87821
 Alpha  occ. eigenvalues --   -0.86188  -0.82444  -0.80436  -0.79203  -0.77482
 Alpha  occ. eigenvalues --   -0.72048  -0.71175  -0.70522  -0.65994  -0.65037
 Alpha  occ. eigenvalues --   -0.64775  -0.62151  -0.61738  -0.60169  -0.58433
 Alpha  occ. eigenvalues --   -0.56145  -0.55269  -0.53463  -0.53248  -0.53116
 Alpha  occ. eigenvalues --   -0.52864  -0.50744  -0.48820  -0.48802  -0.48731
 Alpha  occ. eigenvalues --   -0.47473  -0.46704  -0.46635  -0.44806  -0.44638
 Alpha  occ. eigenvalues --   -0.37346  -0.36382
 Alpha virt. eigenvalues --    0.05018   0.11128   0.16405   0.19216   0.22523
 Alpha virt. eigenvalues --    0.23019   0.24853   0.26188   0.26383   0.28077
 Alpha virt. eigenvalues --    0.29897   0.30270   0.30984   0.31399   0.31897

 Mulliken charges:
               1
     1  C   -0.174862
     2  C   -0.219644
     3  C   -0.171905
     4  C    0.158492
     5  C   -0.170461
     6  C   -0.219573
     7  H    0.230236
     8  H    0.227130
     9  H    0.276214
    10  H    0.275749
    11  H    0.223633
    12  N    0.488086
    13  O   -0.460376
    14  O   -0.460153
    15  C   -0.298831
    16  C   -0.300086
    17  C   -0.476133
    18  H    0.151113
    19  H    0.153905
    20  H    0.143245
    21  H    0.154198
    22  H    0.158355
    23  H    0.156086
    24  H    0.162053
    25  C   -0.303979
    26  C   -0.298814
    27  C   -0.481712
    28  H    0.142468
    29  H    0.150328
    30  H    0.154688
    31  H    0.155081
    32  H    0.153596
    33  H    0.156569
    34  H    0.165303
 Sum of Mulliken charges =  -0.00000

 Dipole moment (field-independent basis, Debye):
    X=              5.1404    Y=             -1.3066    Z=              0.5588  Tot=              5.3332
 Quadrupole moment (field-independent basis, Debye-Ang):
   XX=           -126.0515   YY=            -91.0674   ZZ=            -93.1581
   XY=              4.4022   XZ=             -0.7578   YZ=              2.5044

 Normal termination of Gaussian 16 at Thu May  6 02:58:09 2021.
