 Gaussian 16, Revision A.03,
 Gaussian 16:  EM64L-G16RevA.03 25-Dec-2016

 -------------
 #p 6-31g* mp2
 -------------

 ------------------------------------------------------
 Input file generated by CHIRIPA (05-May-2021 14:57:27)
 ------------------------------------------------------
 Symbolic Z-matrix:
 Charge =  0 Multiplicity = 1

                         Standard orientation:
 ---------------------------------------------------------------------
 Center     Atomic      Atomic             Coordinates (Angstroms)
 Number     Number       Type             X           Y           Z
 ---------------------------------------------------------------------
      1          6           0        4.655098    2.133227    0.441935
      2          6           0        3.626034    2.222585   -0.501232
      3          6           0        2.888556    1.089379   -0.856928
      4          6           0        3.208445   -0.122622   -0.246999
      5          6           0        4.227872   -0.243794    0.696068
      6          6           0        4.952209    0.902492    1.036527
      7          1           0        5.222884    3.018609    0.712330
      8          1           0        3.393086    3.177075   -0.964620
      9          1           0        2.086723    1.130196   -1.584126
     10          1           0        4.436823   -1.209125    1.140920
     11          1           0        5.750852    0.830123    1.769314
     12          7           0        2.434666   -1.329220   -0.615493
     13          8           0        2.736129   -2.385303   -0.063727
     14          8           0        1.541367   -1.196021   -1.449107
     15          6           0       -5.196521    1.527873   -0.389153
     16          6           0       -4.823566    1.338214    0.945558
     17          6           0       -3.794083    0.451930    1.276034
     18          6           0       -3.156102   -0.231319    0.241896
     19          6           0       -3.504778   -0.063900   -1.097389
     20          6           0       -4.537100    0.827446   -1.404576
     21          1           0       -5.997350    2.218325   -0.636828
     22          1           0       -5.333922    1.880824    1.736226
     23          1           0       -3.485139    0.286093    2.300959
     24          1           0       -2.977497   -0.619034   -1.863691
     25          1           0       -4.824623    0.972744   -2.442008
     26          7           0       -2.064732   -1.172268    0.579429
     27          8           0       -1.518317   -1.762194   -0.350115
     28          8           0       -1.776398   -1.302039    1.767141
 ---------------------------------------------------------------------

 SCF Done:  E(RHF) =  -868.335265076     A.U. after   16 cycles
 E2 =    -0.2600578813D+01 EUMP2 =    -0.87093584388829D+03

 The electronic state is 1-A.
 Alpha  occ. eigenvalues --  -20.59976 -20.59831 -20.59691 -20.59644 -15.84951
 Alpha  occ. eigenvalues --  -15.84736 -11.30658 -11.30482 -11.27291 -11.27233
 Alpha  occ. eigenvalues --  -11.27121 -11.27088 -11.27076 -11.26921 -11.26376
 Alpha  occ. eigenvalues --  -11.26347 -11.26225 -11.26187  -1.58984  -1.58718
 Alpha  occ. eigenvalues --   -1.38523  -1.38272  -1.18869  -1.18690  -1.08205
 Alpha  occ. eigenvalues --   -1.08014  -1.04318  -1.04156  -0.94980  -0.94783
 Alpha  occ. eigenvalues --   -0.85699  -0.85537  -0.81807  -0.81619  -0.76795
 Alpha  occ. eigenvalues --   -0.76605  -0.71214  -0.70909  -0.70361  -0.70004
 Alpha  occ. eigenvalues --   -0.69965  -0.69807  -0.64508  -0.64340  -0.64323
 Alpha  occ. eigenvalues --   -0.64170  -0.61654  -0.61505  -0.54816  -0.54653
 Alpha  occ. eigenvalues --   -0.52640  -0.52457  -0.52411  -0.52261  -0.48005
 Alpha  occ. eigenvalues --   -0.47917  -0.47697  -0.47645  -0.44013  -0.43398
 Alpha  occ. eigenvalues --   -0.36879  -0.36688  -0.35941  -0.35776
 Alpha virt. eigenvalues --    0.05677   0.06019   0.11708   0.11873   0.17114
 Alpha virt. eigenvalues --    0.17429   0.21813   0.21934   0.27705   0.27808
 Alpha virt. eigenvalues --    0.28742   0.28868   0.31333   0.31454   0.33020

 Mulliken charges:
               1
     1  C   -0.172144
     2  C   -0.218509
     3  C   -0.171740
     4  C    0.161181
     5  C   -0.170364
     6  C   -0.218404
     7  H    0.222607
     8  H    0.219734
     9  H    0.272863
    10  H    0.276277
    11  H    0.221541
    12  N    0.489413
    13  O   -0.458399
    14  O   -0.453924
    15  C   -0.172168
    16  C   -0.218887
    17  C   -0.172222
    18  C    0.158265
    19  C   -0.171956
    20  C   -0.219208
    21  H    0.223193
    22  H    0.221064
    23  H    0.274322
    24  H    0.279898
    25  H    0.221956
    26  N    0.485186
    27  O   -0.442979
    28  O   -0.466597
 Sum of Mulliken charges =  -0.00000

 Dipole moment (field-independent basis, Debye):
    X=             -1.0937    Y=              7.2494    Z=             -0.0185  Tot=              7.3314
 Quadrupole moment (field-independent basis, Debye-Ang):
   XX=            -64.3867   YY=           -106.9769   ZZ=           -100.0233
   XY=              1.7022   XZ=              8.1163   YZ=             -0.7524

 Normal termination of Gaussian 16 at Wed May  5 19:38:20 2021.
