 Gaussian 16, Revision A.03,
 Gaussian 16:  EM64L-G16RevA.03 25-Dec-2016

 -------------
 #p 6-31g* mp2
 -------------

 ------------------------------------------------------
 Input file generated by CHIRIPA (05-May-2021 14:55:25)
 ------------------------------------------------------
 Symbolic Z-matrix:
 Charge =  0 Multiplicity = 1

                         Standard orientation:
 ---------------------------------------------------------------------
 Center     Atomic      Atomic             Coordinates (Angstroms)
 Number     Number       Type             X           Y           Z
 ---------------------------------------------------------------------
      1          6           0        5.270152   -0.186080   -0.501206
      2          6           0        4.382070   -1.093764   -1.087671
      3          6           0        3.023363   -1.070811   -0.759134
      4          6           0        2.585018   -0.122532    0.163857
      5          6           0        3.445086    0.795017    0.765252
      6          6           0        4.799654    0.753757    0.421757
      7          1           0        6.324020   -0.211021   -0.762232
      8          1           0        4.744650   -1.824754   -1.804773
      9          1           0        2.314002   -1.761861   -1.198080
     10          1           0        3.053999    1.512111    1.476761
     11          1           0        5.487061    1.459897    0.878794
     12          7           0        1.148806   -0.088542    0.519582
     13          8           0        0.787655    0.756680    1.335552
     14          8           0        0.411450   -0.907767   -0.024305
     15          6           0       -3.430652   -0.517909    0.157879
     16          6           0       -4.445802   -1.610898   -0.178024
     17          6           0       -4.069573   -2.969362    0.414278
     18          1           0       -2.441023   -0.819340   -0.211874
     19          1           0       -3.343311   -0.431367    1.249794
     20          1           0       -4.532226   -1.694402   -1.268975
     21          1           0       -5.433167   -1.306744    0.192403
     22          1           0       -4.002546   -2.908676    1.505345
     23          1           0       -3.096487   -3.298536    0.035662
     24          1           0       -4.808798   -3.735987    0.161906
     25          6           0       -3.792959    0.845933   -0.427266
     26          6           0       -2.777810    1.938922   -0.091362
     27          6           0       -3.154038    3.297385   -0.683664
     28          1           0       -3.880300    0.759391   -1.519180
     29          1           0       -4.782589    1.147364   -0.057512
     30          1           0       -1.790444    1.634768   -0.461789
     31          1           0       -2.691384    2.022425    0.999590
     32          1           0       -4.127123    3.626560   -0.305048
     33          1           0       -3.221064    3.236700   -1.774730
     34          1           0       -2.414812    4.064011   -0.431293
 ---------------------------------------------------------------------

 SCF Done:  E(RHF) =  -669.536409006     A.U. after   15 cycles
 E2 =    -0.2091889564D+01 EUMP2 =    -0.67162829857019D+03

 The electronic state is 1-A.
 Alpha  occ. eigenvalues --  -20.61070 -20.61065 -15.86086 -11.31373 -11.27930
 Alpha  occ. eigenvalues --  -11.27925 -11.27659 -11.26926 -11.26916 -11.20281
 Alpha  occ. eigenvalues --  -11.20015 -11.19925 -11.19904 -11.19898 -11.19522
 Alpha  occ. eigenvalues --   -1.60114  -1.39672  -1.19535  -1.08945  -1.06909
 Alpha  occ. eigenvalues --   -1.04925  -1.02169  -0.95792  -0.94637  -0.86327
 Alpha  occ. eigenvalues --   -0.85662  -0.82628  -0.78197  -0.77685  -0.76654
 Alpha  occ. eigenvalues --   -0.72297  -0.71425  -0.70642  -0.65191  -0.64927
 Alpha  occ. eigenvalues --   -0.63551  -0.62272  -0.59585  -0.58004  -0.56233
 Alpha  occ. eigenvalues --   -0.55430  -0.53943  -0.53259  -0.53015  -0.51398
 Alpha  occ. eigenvalues --   -0.51061  -0.49123  -0.49055  -0.48574  -0.46519
 Alpha  occ. eigenvalues --   -0.45231  -0.45078  -0.44219  -0.44004  -0.42368
 Alpha  occ. eigenvalues --   -0.37511  -0.36523
 Alpha virt. eigenvalues --    0.04822   0.11133   0.16329   0.21266   0.24317
 Alpha virt. eigenvalues --    0.25533   0.27193   0.27989   0.28270   0.29005
 Alpha virt. eigenvalues --    0.29422   0.30892   0.32367   0.32623   0.33012

 Mulliken charges:
               1
     1  C   -0.170407
     2  C   -0.218550
     3  C   -0.170731
     4  C    0.157993
     5  C   -0.170423
     6  C   -0.218605
     7  H    0.226303
     8  H    0.224086
     9  H    0.275676
    10  H    0.276104
    11  H    0.224127
    12  N    0.489682
    13  O   -0.457380
    14  O   -0.461152
    15  C   -0.307701
    16  C   -0.298358
    17  C   -0.474403
    18  H    0.177537
    19  H    0.148720
    20  H    0.146866
    21  H    0.146215
    22  H    0.154021
    23  H    0.157883
    24  H    0.153615
    25  C   -0.297918
    26  C   -0.297251
    27  C   -0.475522
    28  H    0.143204
    29  H    0.142730
    30  H    0.160182
    31  H    0.155714
    32  H    0.151002
    33  H    0.150197
    34  H    0.156545
 Sum of Mulliken charges =  -0.00000

 Dipole moment (field-independent basis, Debye):
    X=              5.5626    Y=             -0.1767    Z=             -1.1527  Tot=              5.6835
 Quadrupole moment (field-independent basis, Debye-Ang):
   XX=            -70.6049   YY=            -94.1040   ZZ=            -93.2692
   XY=             -0.0813   XZ=             -2.6988   YZ=              3.7915

 Normal termination of Gaussian 16 at Thu May  6 12:44:53 2021.
