 Gaussian 16, Revision A.03,
 Gaussian 16:  EM64L-G16RevA.03 25-Dec-2016

 -------------
 #p 6-31g* mp2
 -------------

 ------------------------------------------------------
 Input file generated by CHIRIPA (05-May-2021 14:57:27)
 ------------------------------------------------------
 Symbolic Z-matrix:
 Charge =  0 Multiplicity = 1

                         Standard orientation:
 ---------------------------------------------------------------------
 Center     Atomic      Atomic             Coordinates (Angstroms)
 Number     Number       Type             X           Y           Z
 ---------------------------------------------------------------------
      1          6           0       -1.422060   -1.094321    0.269647
      2          6           0       -2.093778   -0.533364    1.360813
      3          6           0       -3.405623   -0.069520    1.224945
      4          6           0       -4.018244   -0.182733   -0.022118
      5          6           0       -3.375464   -0.736750   -1.128097
      6          6           0       -2.063915   -1.194047   -0.969142
      7          1           0       -0.403102   -1.452103    0.384160
      8          1           0       -1.597790   -0.454634    2.324059
      9          1           0       -3.949000    0.369058    2.053081
     10          1           0       -3.896081   -0.801732   -2.075807
     11          1           0       -1.544698   -1.629242   -1.818297
     12          7           0       -5.406878    0.304853   -0.178176
     13          8           0       -5.924485    0.193714   -1.287396
     14          8           0       -5.951389    0.788929    0.811680
     15          6           0        2.515987    2.441219   -0.016321
     16          6           0        3.863916    2.416219   -0.389127
     17          6           0        4.579340    1.215092   -0.385809
     18          6           0        3.912487    0.052520   -0.002372
     19          6           0        2.570348    0.045018    0.374320
     20          6           0        1.874636    1.257626    0.363543
     21          1           0        1.967885    3.378742   -0.021796
     22          1           0        4.364575    3.333871   -0.684594
     23          1           0        5.623599    1.167140   -0.669785
     24          1           0        2.098417   -0.885990    0.664013
     25          1           0        0.827894    1.274044    0.653555
     26          7           0        4.659439   -1.225136    0.005089
     27          8           0        4.049020   -2.235647    0.346985
     28          8           0        5.841178   -1.191860   -0.331102
 ---------------------------------------------------------------------

 SCF Done:  E(RHF) =  -868.337384132     A.U. after   16 cycles
 E2 =    -0.2600383087D+01 EUMP2 =    -0.87093776721830D+03

 The electronic state is 1-A.
 Alpha  occ. eigenvalues --  -20.61467 -20.61445 -20.61259 -20.61251 -15.86512
 Alpha  occ. eigenvalues --  -15.86314 -11.31925 -11.31810 -11.28587 -11.28415
 Alpha  occ. eigenvalues --  -11.28395 -11.28345 -11.28215 -11.28144 -11.27492
 Alpha  occ. eigenvalues --  -11.27486 -11.27425 -11.27389  -1.60531  -1.60330
 Alpha  occ. eigenvalues --   -1.40086  -1.39879  -1.20075  -1.19998  -1.09443
 Alpha  occ. eigenvalues --   -1.09385  -1.05496  -1.05403  -0.96290  -0.96190
 Alpha  occ. eigenvalues --   -0.86878  -0.86797  -0.83149  -0.82988  -0.78193
 Alpha  occ. eigenvalues --   -0.78018  -0.72729  -0.72528  -0.71855  -0.71655
 Alpha  occ. eigenvalues --   -0.71324  -0.70994  -0.65725  -0.65654  -0.65480
 Alpha  occ. eigenvalues --   -0.65391  -0.62865  -0.62724  -0.56065  -0.55819
 Alpha  occ. eigenvalues --   -0.53844  -0.53775  -0.53495  -0.53480  -0.49495
 Alpha  occ. eigenvalues --   -0.49476  -0.49298  -0.49276  -0.45483  -0.45255
 Alpha  occ. eigenvalues --   -0.38050  -0.37993  -0.37089  -0.36997
 Alpha virt. eigenvalues --    0.04313   0.04513   0.10520   0.10579   0.15698
 Alpha virt. eigenvalues --    0.16029   0.18548   0.21887   0.24719   0.26366
 Alpha virt. eigenvalues --    0.27439   0.29444   0.29742   0.30939   0.32218

 Mulliken charges:
               1
     1  C   -0.177979
     2  C   -0.224998
     3  C   -0.170563
     4  C    0.159110
     5  C   -0.170542
     6  C   -0.219203
     7  H    0.228420
     8  H    0.224276
     9  H    0.277371
    10  H    0.278141
    11  H    0.228821
    12  N    0.487836
    13  O   -0.458341
    14  O   -0.459200
    15  C   -0.170939
    16  C   -0.217699
    17  C   -0.170389
    18  C    0.161293
    19  C   -0.179516
    20  C   -0.220726
    21  H    0.229219
    22  H    0.226448
    23  H    0.277716
    24  H    0.268255
    25  H    0.225102
    26  N    0.488132
    27  O   -0.462997
    28  O   -0.457049
 Sum of Mulliken charges =  -0.00000

 Dipole moment (field-independent basis, Debye):
    X=              2.2098    Y=              2.8962    Z=              0.3911  Tot=              3.6639
 Quadrupole moment (field-independent basis, Debye-Ang):
   XX=           -160.7797   YY=           -103.0440   ZZ=           -100.4500
   XY=             26.3813   XZ=             -4.0110   YZ=              0.6499

 Normal termination of Gaussian 16 at Fri May  7 05:07:41 2021.
