 Gaussian 16, Revision A.03,
 Gaussian 16:  EM64L-G16RevA.03 25-Dec-2016

 -------------
 #p 6-31g* mp2
 -------------

 ------------------------------------------------------
 Input file generated by CHIRIPA (05-May-2021 14:57:27)
 ------------------------------------------------------
 Symbolic Z-matrix:
 Charge =  0 Multiplicity = 1

                         Standard orientation:
 ---------------------------------------------------------------------
 Center     Atomic      Atomic             Coordinates (Angstroms)
 Number     Number       Type             X           Y           Z
 ---------------------------------------------------------------------
      1          6           0        3.686139    1.918357    0.621541
      2          6           0        3.604249    1.511110   -0.714110
      3          6           0        2.934382    0.332979   -1.057379
      4          6           0        2.355303   -0.417067   -0.034936
      5          6           0        2.419758   -0.037804    1.304950
      6          6           0        3.094675    1.143965    1.625040
      7          1           0        4.208469    2.834970    0.879197
      8          1           0        4.062644    2.110524   -1.495534
      9          1           0        2.855868   -0.005669   -2.083327
     10          1           0        1.952856   -0.656283    2.061855
     11          1           0        3.156687    1.457789    2.663170
     12          7           0        1.643472   -1.666227   -0.386069
     13          8           0        1.141705   -2.309328    0.533326
     14          8           0        1.600785   -1.978565   -1.574034
     15          6           0       -2.679952    2.669220   -0.553051
     16          6           0       -2.270946    1.771360   -1.544556
     17          6           0       -2.152585    0.407263   -1.262109
     18          6           0       -2.452577   -0.026443    0.028314
     19          6           0       -2.862518    0.843356    1.037615
     20          6           0       -2.973914    2.203175    0.732604
     21          1           0       -2.769191    3.727223   -0.781227
     22          1           0       -2.041993    2.130465   -2.543890
     23          1           0       -1.838098   -0.309679   -2.010782
     24          1           0       -3.083820    0.455534    2.024549
     25          1           0       -3.291779    2.898175    1.504603
     26          7           0       -2.330961   -1.468287    0.339272
     27          8           0       -2.601106   -1.825183    1.483949
     28          8           0       -1.967797   -2.214208   -0.567563
 ---------------------------------------------------------------------

 SCF Done:  E(RHF) =  -868.335389157     A.U. after   16 cycles
 E2 =    -0.2602090026D+01 EUMP2 =    -0.87093747918386D+03

 The electronic state is 1-A.
 Alpha  occ. eigenvalues --  -20.60290 -20.60237 -20.59885 -20.59771 -15.85325
 Alpha  occ. eigenvalues --  -15.84892 -11.31016 -11.30719 -11.27643 -11.27590
 Alpha  occ. eigenvalues --  -11.27423 -11.27359 -11.27289 -11.27179 -11.26720
 Alpha  occ. eigenvalues --  -11.26686 -11.26474 -11.26442  -1.59329  -1.58883
 Alpha  occ. eigenvalues --   -1.38881  -1.38432  -1.19217  -1.18936  -1.08553
 Alpha  occ. eigenvalues --   -1.08249  -1.04665  -1.04399  -0.95330  -0.95000
 Alpha  occ. eigenvalues --   -0.86050  -0.85777  -0.82159  -0.81831  -0.77156
 Alpha  occ. eigenvalues --   -0.76794  -0.71541  -0.71132  -0.70849  -0.70320
 Alpha  occ. eigenvalues --   -0.70033  -0.70019  -0.64860  -0.64669  -0.64570
 Alpha  occ. eigenvalues --   -0.64405  -0.62006  -0.61730  -0.55155  -0.54894
 Alpha  occ. eigenvalues --   -0.52997  -0.52760  -0.52702  -0.52492  -0.48311
 Alpha  occ. eigenvalues --   -0.48273  -0.47881  -0.47829  -0.44272  -0.43637
 Alpha  occ. eigenvalues --   -0.37243  -0.36933  -0.36287  -0.36026
 Alpha virt. eigenvalues --    0.05355   0.05756   0.11352   0.11615   0.16804
 Alpha virt. eigenvalues --    0.17155   0.21470   0.21725   0.27363   0.27604
 Alpha virt. eigenvalues --    0.28382   0.28687   0.30956   0.31277   0.32624

 Mulliken charges:
               1
     1  C   -0.172042
     2  C   -0.218810
     3  C   -0.172716
     4  C    0.158385
     5  C   -0.172249
     6  C   -0.218555
     7  H    0.223790
     8  H    0.221295
     9  H    0.273887
    10  H    0.278718
    11  H    0.222610
    12  N    0.486236
    13  O   -0.449480
    14  O   -0.460711
    15  C   -0.172452
    16  C   -0.218708
    17  C   -0.175104
    18  C    0.157580
    19  C   -0.172674
    20  C   -0.218925
    21  H    0.222339
    22  H    0.221267
    23  H    0.282189
    24  H    0.274389
    25  H    0.220455
    26  N    0.489052
    27  O   -0.463962
    28  O   -0.445804
 Sum of Mulliken charges =  -0.00000

 Dipole moment (field-independent basis, Debye):
    X=              2.0800    Y=              9.0713    Z=              0.1258  Tot=              9.3076
 Quadrupole moment (field-independent basis, Debye-Ang):
   XX=            -92.5648   YY=           -109.6658   ZZ=            -96.0742
   XY=             -2.9457   XZ=              3.0839   YZ=             -0.2943

 Normal termination of Gaussian 16 at Thu May  6 14:50:06 2021.
