 Gaussian 16, Revision A.03,
 Gaussian 16:  EM64L-G16RevA.03 25-Dec-2016

 -------------
 #p 6-31g* mp2
 -------------

 ------------------------------------------------------
 Input file generated by CHIRIPA (05-May-2021 14:55:25)
 ------------------------------------------------------
 Symbolic Z-matrix:
 Charge =  0 Multiplicity = 1

                         Standard orientation:
 ---------------------------------------------------------------------
 Center     Atomic      Atomic             Coordinates (Angstroms)
 Number     Number       Type             X           Y           Z
 ---------------------------------------------------------------------
      1          6           0        5.159817    0.468324    0.544300
      2          6           0        4.797585   -0.874677    0.691464
      3          6           0        3.519781   -1.309441    0.327120
      4          6           0        2.625246   -0.370005   -0.183327
      5          6           0        2.956318    0.974811   -0.341925
      6          6           0        4.239650    1.387161    0.028983
      7          1           0        6.154593    0.797354    0.829881
      8          1           0        5.510141   -1.590475    1.091390
      9          1           0        3.213033   -2.343191    0.430483
     10          1           0        2.224323    1.664988   -0.743492
     11          1           0        4.518206    2.430778   -0.086414
     12          7           0        1.269566   -0.818406   -0.572517
     13          8           0        0.499786    0.028965   -1.019772
     14          8           0        1.002434   -2.008744   -0.422938
     15          6           0       -4.036391   -0.180655    0.496127
     16          6           0       -4.049408   -1.486947   -0.298489
     17          6           0       -4.833695   -2.597052    0.401765
     18          1           0       -3.603997   -0.366988    1.488730
     19          1           0       -5.071150    0.149290    0.662873
     20          1           0       -3.014891   -1.813603   -0.464880
     21          1           0       -4.481645   -1.297441   -1.289385
     22          1           0       -5.875187   -2.295832    0.553964
     23          1           0       -4.400099   -2.814927    1.383154
     24          1           0       -4.830072   -3.521815   -0.183606
     25          6           0       -3.256226    0.938677   -0.191017
     26          6           0       -3.243208    2.244971    0.603600
     27          6           0       -2.458921    3.355075   -0.096654
     28          1           0       -2.221466    0.608733   -0.357762
     29          1           0       -3.688619    1.125011   -1.183619
     30          1           0       -2.810971    2.055465    1.594495
     31          1           0       -4.277725    2.571626    0.769990
     32          1           0       -2.892519    3.572950   -1.078043
     33          1           0       -1.417430    3.053854   -0.248853
     34          1           0       -2.462544    4.279838    0.488718
 ---------------------------------------------------------------------

 SCF Done:  E(RHF) =  -669.536624947     A.U. after   15 cycles
 E2 =    -0.2091309690D+01 EUMP2 =    -0.67162793463698D+03

 The electronic state is 1-A.
 Alpha  occ. eigenvalues --  -20.61092 -20.61083 -15.86105 -11.31374 -11.27929
 Alpha  occ. eigenvalues --  -11.27926 -11.27657 -11.26924 -11.26914 -11.20603
 Alpha  occ. eigenvalues --  -11.20280 -11.20248 -11.20161 -11.20024 -11.19878
 Alpha  occ. eigenvalues --   -1.60140  -1.39698  -1.19536  -1.08951  -1.07198
 Alpha  occ. eigenvalues --   -1.04924  -1.02431  -0.95801  -0.94891  -0.86327
 Alpha  occ. eigenvalues --   -0.85920  -0.82636  -0.78483  -0.77697  -0.76970
 Alpha  occ. eigenvalues --   -0.72325  -0.71447  -0.70644  -0.65193  -0.64926
 Alpha  occ. eigenvalues --   -0.63820  -0.62271  -0.59833  -0.58266  -0.56496
 Alpha  occ. eigenvalues --   -0.55431  -0.54182  -0.53258  -0.53014  -0.51646
 Alpha  occ. eigenvalues --   -0.51327  -0.49141  -0.49085  -0.48803  -0.46811
 Alpha  occ. eigenvalues --   -0.45525  -0.45145  -0.44566  -0.44251  -0.42640
 Alpha  occ. eigenvalues --   -0.37511  -0.36522
 Alpha virt. eigenvalues --    0.04803   0.11133   0.16293   0.21181   0.24047
 Alpha virt. eigenvalues --    0.25194   0.26997   0.27556   0.28105   0.28970
 Alpha virt. eigenvalues --    0.29197   0.30771   0.31755   0.32583   0.32903

 Mulliken charges:
               1
     1  C   -0.170391
     2  C   -0.218605
     3  C   -0.170483
     4  C    0.157697
     5  C   -0.170821
     6  C   -0.218549
     7  H    0.226342
     8  H    0.224100
     9  H    0.275978
    10  H    0.275979
    11  H    0.224307
    12  N    0.490200
    13  O   -0.461557
    14  O   -0.458749
    15  C   -0.296457
    16  C   -0.302897
    17  C   -0.474757
    18  H    0.146358
    19  H    0.143250
    20  H    0.167723
    21  H    0.148701
    22  H    0.150678
    23  H    0.153319
    24  H    0.158371
    25  C   -0.312159
    26  C   -0.297466
    27  C   -0.475437
    28  H    0.180005
    29  H    0.145177
    30  H    0.147958
    31  H    0.147283
    32  H    0.153894
    33  H    0.157335
    34  H    0.153673
 Sum of Mulliken charges =  -0.00000

 Dipole moment (field-independent basis, Debye):
    X=              5.1928    Y=              1.4366    Z=              1.2680  Tot=              5.5351
 Quadrupole moment (field-independent basis, Debye-Ang):
   XX=            -70.9021   YY=            -93.0385   ZZ=            -95.7792
   XY=              0.7553   XZ=              4.2233   YZ=             -2.1575

 Normal termination of Gaussian 16 at Thu May  6 12:44:19 2021.
