 Gaussian 16, Revision A.03,
 Gaussian 16:  EM64L-G16RevA.03 25-Dec-2016

 -------------
 #p 6-31g* mp2
 -------------

 ------------------------------------------------------
 Input file generated by CHIRIPA (05-May-2021 14:57:25)
 ------------------------------------------------------
 Symbolic Z-matrix:
 Charge =  0 Multiplicity = 1

                         Standard orientation:
 ---------------------------------------------------------------------
 Center     Atomic      Atomic             Coordinates (Angstroms)
 Number     Number       Type             X           Y           Z
 ---------------------------------------------------------------------
      1          6           0       -4.407761   -1.997261   -1.048439
      2          6           0       -5.289021   -0.955228   -0.741732
      3          6           0       -4.810071    0.247625   -0.214192
      4          6           0       -3.437698    0.374826   -0.005141
      5          6           0       -2.534405   -0.645010   -0.300583
      6          6           0       -3.035684   -1.839105   -0.827275
      7          1           0       -4.788494   -2.928264   -1.457915
      8          1           0       -6.355088   -1.075245   -0.912446
      9          1           0       -5.470014    1.070538    0.032195
     10          1           0       -1.476900   -0.495770   -0.119395
     11          1           0       -2.348948   -2.646662   -1.064530
     12          7           0       -2.918835    1.643597    0.552893
     13          8           0       -1.705380    1.730670    0.727770
     14          8           0       -3.735430    2.526962    0.804836
     15          6           0        5.088290    1.251266   -1.284414
     16          6           0        5.490097   -0.016558   -0.851176
     17          6           0        4.631195   -0.810355   -0.085198
     18          6           0        3.371907   -0.302706    0.230673
     19          6           0        2.942585    0.956375   -0.186086
     20          6           0        3.818056    1.732837   -0.951075
     21          1           0        5.761941    1.861173   -1.879060
     22          1           0        6.475998   -0.393127   -1.108550
     23          1           0        4.916681   -1.795463    0.263337
     24          1           0        1.953674    1.304619    0.086308
     25          1           0        3.503326    2.717068   -1.286155
     26          7           0        2.453855   -1.133888    1.041056
     27          8           0        1.349585   -0.663736    1.305973
     28          8           0        2.855941   -2.239780    1.395971
 ---------------------------------------------------------------------

 SCF Done:  E(RHF) =  -868.339611859     A.U. after   16 cycles
 E2 =    -0.2598802065D+01 EUMP2 =    -0.87093841392464D+03

 The electronic state is 1-A.
 Alpha  occ. eigenvalues --  -20.60804 -20.60792 -20.60286 -20.60269 -15.85828
 Alpha  occ. eigenvalues --  -15.85329 -11.31031 -11.30568 -11.27636 -11.27494
 Alpha  occ. eigenvalues --  -11.27340 -11.27204 -11.27016 -11.26927 -11.26618
 Alpha  occ. eigenvalues --  -11.26530 -11.26204 -11.26094  -1.59873  -1.59356
 Alpha  occ. eigenvalues --   -1.39424  -1.38908  -1.19204  -1.18753  -1.08638
 Alpha  occ. eigenvalues --   -1.08186  -1.04572  -1.04130  -0.95489  -0.95028
 Alpha  occ. eigenvalues --   -0.85981  -0.85540  -0.82313  -0.81858  -0.77376
 Alpha  occ. eigenvalues --   -0.76895  -0.72048  -0.71551  -0.71191  -0.70673
 Alpha  occ. eigenvalues --   -0.70304  -0.69863  -0.64855  -0.64571  -0.64409
 Alpha  occ. eigenvalues --   -0.64137  -0.61898  -0.61453  -0.55099  -0.54674
 Alpha  occ. eigenvalues --   -0.52932  -0.52651  -0.52487  -0.52215  -0.48815
 Alpha  occ. eigenvalues --   -0.48794  -0.48312  -0.48290  -0.44860  -0.44341
 Alpha  occ. eigenvalues --   -0.37202  -0.36764  -0.36174  -0.35732
 Alpha virt. eigenvalues --    0.05089   0.05609   0.11475   0.11917   0.16575
 Alpha virt. eigenvalues --    0.17103   0.21502   0.22128   0.27347   0.27822
 Alpha virt. eigenvalues --    0.28239   0.29236   0.30918   0.31629   0.32313

 Mulliken charges:
               1
     1  C   -0.170688
     2  C   -0.219529
     3  C   -0.171375
     4  C    0.155932
     5  C   -0.174044
     6  C   -0.220377
     7  H    0.223735
     8  H    0.220956
     9  H    0.273264
    10  H    0.290165
    11  H    0.225362
    12  N    0.488289
    13  O   -0.460435
    14  O   -0.463750
    15  C   -0.170524
    16  C   -0.219186
    17  C   -0.171519
    18  C    0.155659
    19  C   -0.175144
    20  C   -0.219669
    21  H    0.225396
    22  H    0.222450
    23  H    0.274039
    24  H    0.288702
    25  H    0.226528
    26  N    0.488441
    27  O   -0.460797
    28  O   -0.461883
 Sum of Mulliken charges =  -0.00000

 Dipole moment (field-independent basis, Debye):
    X=              1.5757    Y=             -1.4956    Z=             -4.7856  Tot=              5.2556
 Quadrupole moment (field-independent basis, Debye-Ang):
   XX=            -65.2467   YY=           -107.6768   ZZ=           -107.8130
   XY=             19.5375   XZ=             -2.3693   YZ=              0.6817

 Normal termination of Gaussian 16 at Thu May  6 00:22:55 2021.
