 Gaussian 16, Revision A.03,
 Gaussian 16:  EM64L-G16RevA.03 25-Dec-2016

 -------------
 #p 6-31g* mp2
 -------------

 ------------------------------------------------------
 Input file generated by CHIRIPA (05-May-2021 14:51:08)
 ------------------------------------------------------
 Symbolic Z-matrix:
 Charge =  0 Multiplicity = 1

                         Standard orientation:
 ---------------------------------------------------------------------
 Center     Atomic      Atomic             Coordinates (Angstroms)
 Number     Number       Type             X           Y           Z
 ---------------------------------------------------------------------
      1          6           0        3.093156   -0.706110   -0.175120
      2          6           0        1.993092   -1.643843    0.323378
      3          6           0        2.248937   -3.104973   -0.047348
      4          1           0        3.178992   -0.799380   -1.266394
      5          1           0        4.057014   -1.028056    0.242880
      6          1           0        1.031392   -1.319395   -0.094332
      7          1           0        1.909735   -1.548189    1.413569
      8          1           0        3.194387   -3.451564    0.382305
      9          1           0        2.311053   -3.221470   -1.134165
     10          1           0        1.450399   -3.757793    0.318743
     11          6           0        2.851571    0.758024    0.187755
     12          6           0        3.951635    1.695757   -0.310743
     13          6           0        3.695791    3.156887    0.059982
     14          1           0        1.887714    1.079970   -0.230246
     15          1           0        2.765735    0.851294    1.279028
     16          1           0        4.034993    1.600103   -1.400935
     17          1           0        4.913336    1.371309    0.106967
     18          1           0        3.633675    3.273384    1.146799
     19          1           0        2.750341    3.503478   -0.369670
     20          1           0        4.494329    3.809707   -0.306109
     21          6           0       -3.492078    0.504285   -0.185685
     22          6           0       -3.108534    1.910243    0.277091
     23          6           0       -4.158168    2.960005   -0.089051
     24          1           0       -3.641481    0.511411   -1.274065
     25          1           0       -4.457891    0.229646    0.260602
     26          1           0       -2.143065    2.181603   -0.168835
     27          1           0       -2.959838    1.899726    1.364471
     28          1           0       -5.122574    2.716322    0.368268
     29          1           0       -4.301160    2.999802   -1.173749
     30          1           0       -3.863805    3.957733    0.251171
     31          6           0       -2.452650   -0.556199    0.173050
     32          6           0       -2.836194   -1.962157   -0.289725
     33          6           0       -1.786560   -3.011920    0.076416
     34          1           0       -1.486837   -0.281560   -0.273237
     35          1           0       -2.303246   -0.563326    1.261431
     36          1           0       -2.984889   -1.951640   -1.377106
     37          1           0       -3.801663   -2.233518    0.156200
     38          1           0       -1.643568   -3.051716    1.161114
     39          1           0       -0.822154   -2.768237   -0.380903
     40          1           0       -2.080923   -4.009647   -0.263806
 ---------------------------------------------------------------------

 SCF Done:  E(RHF) =  -470.732620140     A.U. after   11 cycles
 E2 =    -0.1583762065D+01 EUMP2 =    -0.47231638220411D+03

 The electronic state is 1-A.
 Alpha  occ. eigenvalues --  -11.21610 -11.21601 -11.21596 -11.21553 -11.21415
 Alpha  occ. eigenvalues --  -11.21397 -11.21356 -11.21336 -11.21077 -11.21071
 Alpha  occ. eigenvalues --  -11.21013 -11.21004  -1.08453  -1.08405  -1.03578
 Alpha  occ. eigenvalues --   -1.03471  -0.96037  -0.95909  -0.87038  -0.86939
 Alpha  occ. eigenvalues --   -0.79653  -0.79533  -0.78335  -0.78146  -0.65175
 Alpha  occ. eigenvalues --   -0.64968  -0.61123  -0.60769  -0.59426  -0.59275
 Alpha  occ. eigenvalues --   -0.57784  -0.57390  -0.55382  -0.55127  -0.52758
 Alpha  occ. eigenvalues --   -0.52627  -0.52495  -0.52209  -0.49921  -0.49895
 Alpha  occ. eigenvalues --   -0.47992  -0.47836  -0.46819  -0.46479  -0.46030
 Alpha  occ. eigenvalues --   -0.45764  -0.45730  -0.45299  -0.43815  -0.43736
 Alpha virt. eigenvalues --    0.21056   0.23184   0.23386   0.24619   0.25163
 Alpha virt. eigenvalues --    0.26813   0.26935   0.27129   0.28971   0.29542
 Alpha virt. eigenvalues --    0.30049   0.31169   0.31581   0.31746   0.32173

 Mulliken charges:
               1
     1  C   -0.297627
     2  C   -0.306196
     3  C   -0.479380
     4  H    0.149111
     5  H    0.149573
     6  H    0.157428
     7  H    0.152279
     8  H    0.155456
     9  H    0.154233
    10  H    0.164713
    11  C   -0.298237
    12  C   -0.299651
    13  C   -0.475640
    14  H    0.148888
    15  H    0.149938
    16  H    0.151782
    17  H    0.152042
    18  H    0.155282
    19  H    0.155035
    20  H    0.160229
    21  C   -0.298224
    22  C   -0.299451
    23  C   -0.475735
    24  H    0.149441
    25  H    0.149765
    26  H    0.151495
    27  H    0.152228
    28  H    0.155241
    29  H    0.155086
    30  H    0.160362
    31  C   -0.300946
    32  C   -0.300162
    33  C   -0.482262
    34  H    0.151331
    35  H    0.150170
    36  H    0.151465
    37  H    0.151850
    38  H    0.154780
    39  H    0.164539
    40  H    0.159772
 Sum of Mulliken charges =  -0.00000

 Dipole moment (field-independent basis, Debye):
    X=             -0.0022    Y=             -0.0107    Z=              0.0186  Tot=              0.0216
 Quadrupole moment (field-independent basis, Debye-Ang):
   XX=            -84.8499   YY=            -86.7149   ZZ=            -83.2622
   XY=              0.5996   XZ=             -0.0768   YZ=             -0.3184

 Normal termination of Gaussian 16 at Thu May  6 03:40:41 2021.
