 Gaussian 16, Revision A.03,
 Gaussian 16:  EM64L-G16RevA.03 25-Dec-2016

 -------------
 #p 6-31g* mp2
 -------------

 ------------------------------------------------------
 Input file generated by CHIRIPA (05-May-2021 14:55:23)
 ------------------------------------------------------
 Symbolic Z-matrix:
 Charge =  0 Multiplicity = 1

                         Standard orientation:
 ---------------------------------------------------------------------
 Center     Atomic      Atomic             Coordinates (Angstroms)
 Number     Number       Type             X           Y           Z
 ---------------------------------------------------------------------
      1          6           0        1.227031   -1.878481    1.381528
      2          6           0        2.436716   -1.413066    1.907430
      3          6           0        3.230266   -0.520530    1.180654
      4          6           0        2.781659   -0.112287   -0.074488
      5          6           0        1.581301   -0.558099   -0.625563
      6          6           0        0.803931   -1.450267    0.118936
      7          1           0        0.616866   -2.571682    1.952990
      8          1           0        2.767804   -1.743921    2.887716
      9          1           0        4.171071   -0.144433    1.563871
     10          1           0        1.277630   -0.210356   -1.605500
     11          1           0       -0.135075   -1.810059   -0.291994
     12          7           0        3.613190    0.832406   -0.853274
     13          8           0        3.195700    1.176930   -1.956743
     14          8           0        4.666690    1.210445   -0.345473
     15          6           0       -3.122042   -0.278721   -0.426257
     16          6           0       -4.099694   -1.454023   -0.397170
     17          6           0       -3.559192   -2.690498   -1.116045
     18          1           0       -2.892800   -0.026477   -1.470654
     19          1           0       -2.174256   -0.587687    0.035951
     20          1           0       -5.045826   -1.142508   -0.858050
     21          1           0       -4.326785   -1.703375    0.647277
     22          1           0       -2.626650   -3.028591   -0.652731
     23          1           0       -3.349778   -2.464538   -2.166611
     24          1           0       -4.274070   -3.518583   -1.083107
     25          6           0       -3.648165    0.964760    0.288359
     26          6           0       -2.670512    2.140063    0.259274
     27          6           0       -3.211015    3.376537    0.978149
     28          1           0       -4.595951    1.273727   -0.173848
     29          1           0       -3.877407    0.712516    1.332757
     30          1           0       -2.443423    2.389415   -0.785174
     31          1           0       -1.724381    1.828548    0.720152
     32          1           0       -3.420430    3.150577    2.028714
     33          1           0       -4.143557    3.714631    0.514835
     34          1           0       -2.496137    4.204622    0.945210
 ---------------------------------------------------------------------

 SCF Done:  E(RHF) =  -669.535418586     A.U. after   15 cycles
 E2 =    -0.2091960272D+01 EUMP2 =    -0.67162737885785D+03

 The electronic state is 1-A.
 Alpha  occ. eigenvalues --  -20.60757 -20.60752 -15.85811 -11.31183 -11.27761
 Alpha  occ. eigenvalues --  -11.27748 -11.27505 -11.26775 -11.26729 -11.22360
 Alpha  occ. eigenvalues --  -11.22132 -11.22008 -11.21935 -11.21867 -11.21298
 Alpha  occ. eigenvalues --   -1.59833  -1.39386  -1.19360  -1.09045  -1.08753
 Alpha  occ. eigenvalues --   -1.04761  -1.04101  -0.96569  -0.95587  -0.87584
 Alpha  occ. eigenvalues --   -0.86164  -0.82420  -0.80180  -0.78854  -0.77452
 Alpha  occ. eigenvalues --   -0.72029  -0.71156  -0.70468  -0.65736  -0.65010
 Alpha  occ. eigenvalues --   -0.64733  -0.62129  -0.61474  -0.59945  -0.58166
 Alpha  occ. eigenvalues --   -0.55881  -0.55268  -0.53246  -0.53108  -0.52987
 Alpha  occ. eigenvalues --   -0.52859  -0.50525  -0.48803  -0.48783  -0.48469
 Alpha  occ. eigenvalues --   -0.47205  -0.46361  -0.46269  -0.44790  -0.44355
 Alpha  occ. eigenvalues --   -0.37340  -0.36343
 Alpha virt. eigenvalues --    0.05067   0.11183   0.16490   0.19515   0.22730
 Alpha virt. eigenvalues --    0.23558   0.25468   0.26403   0.27203   0.28321
 Alpha virt. eigenvalues --    0.28921   0.30240   0.31205   0.31435   0.31937

 Mulliken charges:
               1
     1  C   -0.173129
     2  C   -0.218514
     3  C   -0.170866
     4  C    0.158587
     5  C   -0.172471
     6  C   -0.222718
     7  H    0.225325
     8  H    0.223366
     9  H    0.275632
    10  H    0.276500
    11  H    0.231935
    12  N    0.488100
    13  O   -0.460242
    14  O   -0.460561
    15  C   -0.304123
    16  C   -0.300062
    17  C   -0.477665
    18  H    0.150779
    19  H    0.145307
    20  H    0.156284
    21  H    0.152333
    22  H    0.145945
    23  H    0.158120
    24  H    0.165003
    25  C   -0.297854
    26  C   -0.301355
    27  C   -0.476222
    28  H    0.151791
    29  H    0.149538
    30  H    0.154001
    31  H    0.153312
    32  H    0.154593
    33  H    0.155790
    34  H    0.163540
 Sum of Mulliken charges =  -0.00000

 Dipole moment (field-independent basis, Debye):
    X=             -3.0503    Y=             -3.2438    Z=              2.7245  Tot=              5.2201
 Quadrupole moment (field-independent basis, Debye-Ang):
   XX=           -108.5155   YY=            -95.4464   ZZ=            -92.1685
   XY=             -8.8555   XZ=             11.4284   YZ=             -0.7707

 Normal termination of Gaussian 16 at Thu May  6 01:31:33 2021.
