 Gaussian 16, Revision A.03,
 Gaussian 16:  EM64L-G16RevA.03 25-Dec-2016

 -------------
 #p 6-31g* mp2
 -------------

 ------------------------------------------------------
 Input file generated by CHIRIPA (05-May-2021 14:57:24)
 ------------------------------------------------------
 Symbolic Z-matrix:
 Charge =  0 Multiplicity = 1

                         Standard orientation:
 ---------------------------------------------------------------------
 Center     Atomic      Atomic             Coordinates (Angstroms)
 Number     Number       Type             X           Y           Z
 ---------------------------------------------------------------------
      1          6           0        1.632463   -2.101439   -0.074013
      2          6           0        2.996037   -2.408448   -0.019857
      3          6           0        3.953978   -1.390205   -0.028757
      4          6           0        3.511051   -0.069976   -0.092782
      5          6           0        2.159721    0.267927   -0.147732
      6          6           0        1.219385   -0.766584   -0.137665
      7          1           0        0.895149   -2.898753   -0.066646
      8          1           0        3.319739   -3.444214    0.029632
      9          1           0        5.015993   -1.599626    0.012292
     10          1           0        1.867608    1.309903   -0.196473
     11          1           0        0.161085   -0.525196   -0.179815
     12          7           0        4.515862    1.016604   -0.102821
     13          8           0        4.099834    2.171731   -0.159727
     14          8           0        5.700434    0.692563   -0.053594
     15          6           0       -3.973021   -2.190750   -0.048199
     16          6           0       -2.920237   -1.784869    0.778496
     17          6           0       -2.563800   -0.435694    0.863504
     18          6           0       -3.284775    0.484929    0.104598
     19          6           0       -4.338556    0.111710   -0.728195
     20          6           0       -4.677580   -1.242837   -0.797585
     21          1           0       -4.243147   -3.240909   -0.108170
     22          1           0       -2.371310   -2.518830    1.361614
     23          1           0       -1.753061   -0.093970    1.495443
     24          1           0       -4.867230    0.866560   -1.297513
     25          1           0       -5.495636   -1.555166   -1.440452
     26          7           0       -2.916648    1.916083    0.186324
     27          8           0       -3.567467    2.707564   -0.492373
     28          8           0       -1.984262    2.219242    0.927531
 ---------------------------------------------------------------------

 SCF Done:  E(RHF) =  -868.337162579     A.U. after   16 cycles
 E2 =    -0.2600891845D+01 EUMP2 =    -0.87093805442347D+03

 The electronic state is 1-A.
 Alpha  occ. eigenvalues --  -20.61587 -20.61556 -20.60586 -20.60564 -15.86631
 Alpha  occ. eigenvalues --  -15.85633 -11.32157 -11.31091 -11.28754 -11.28661
 Alpha  occ. eigenvalues --  -11.28444 -11.27819 -11.27716 -11.27692 -11.27608
 Alpha  occ. eigenvalues --  -11.27548 -11.26781 -11.26680  -1.60647  -1.59653
 Alpha  occ. eigenvalues --   -1.40197  -1.39201  -1.20333  -1.19295  -1.09682
 Alpha  occ. eigenvalues --   -1.08697  -1.05756  -1.04699  -0.96494  -0.95504
 Alpha  occ. eigenvalues --   -0.87137  -0.86112  -0.83318  -0.82323  -0.78361
 Alpha  occ. eigenvalues --   -0.77331  -0.72832  -0.71984  -0.71851  -0.71406
 Alpha  occ. eigenvalues --   -0.70978  -0.70444  -0.65967  -0.65748  -0.64950
 Alpha  occ. eigenvalues --   -0.64740  -0.63084  -0.62006  -0.56203  -0.55287
 Alpha  occ. eigenvalues --   -0.54102  -0.53827  -0.53045  -0.52731  -0.49605
 Alpha  occ. eigenvalues --   -0.49587  -0.48623  -0.48594  -0.45566  -0.44585
 Alpha  occ. eigenvalues --   -0.38294  -0.37392  -0.37300  -0.36301
 Alpha virt. eigenvalues --    0.04133   0.05185   0.10156   0.11293   0.15600
 Alpha virt. eigenvalues --    0.16603   0.19992   0.21845   0.25961   0.26786
 Alpha virt. eigenvalues --    0.27944   0.28585   0.29923   0.31042   0.32239

 Mulliken charges:
               1
     1  C   -0.174221
     2  C   -0.218455
     3  C   -0.170925
     4  C    0.158668
     5  C   -0.171605
     6  C   -0.226630
     7  H    0.218642
     8  H    0.221684
     9  H    0.275525
    10  H    0.285227
    11  H    0.227938
    12  N    0.487759
    13  O   -0.456479
    14  O   -0.461805
    15  C   -0.170490
    16  C   -0.222068
    17  C   -0.183711
    18  C    0.159990
    19  C   -0.169727
    20  C   -0.217142
    21  H    0.228126
    22  H    0.223349
    23  H    0.277986
    24  H    0.279255
    25  H    0.227399
    26  N    0.488110
    27  O   -0.455012
    28  O   -0.461388
 Sum of Mulliken charges =  -0.00000

 Dipole moment (field-independent basis, Debye):
    X=             -5.1168    Y=             -8.6590    Z=             -0.3249  Tot=             10.0631
 Quadrupole moment (field-independent basis, Debye-Ang):
   XX=           -115.0364   YY=           -107.4688   ZZ=           -104.0807
   XY=             -0.6333   XZ=              4.4742   YZ=             -1.3429

 Normal termination of Gaussian 16 at Thu May  6 03:27:51 2021.
