 Gaussian 16, Revision A.03,
 Gaussian 16:  EM64L-G16RevA.03 25-Dec-2016

 -------------
 #p 6-31g* mp2
 -------------

 ------------------------------------------------------
 Input file generated by CHIRIPA (05-May-2021 14:55:20)
 ------------------------------------------------------
 Symbolic Z-matrix:
 Charge =  0 Multiplicity = 1

                         Standard orientation:
 ---------------------------------------------------------------------
 Center     Atomic      Atomic             Coordinates (Angstroms)
 Number     Number       Type             X           Y           Z
 ---------------------------------------------------------------------
      1          6           0       -3.726095   -1.851503    0.690575
      2          6           0       -4.050866   -1.129196   -0.462385
      3          6           0       -3.439983    0.100505   -0.725453
      4          6           0       -2.504570    0.580290    0.190025
      5          6           0       -2.159833   -0.115834    1.347547
      6          6           0       -2.783277   -1.343413    1.590275
      7          1           0       -4.205522   -2.805940    0.887033
      8          1           0       -4.782706   -1.521340   -1.162869
      9          1           0       -3.672739    0.680452   -1.610272
     10          1           0       -1.426458    0.300841    2.027225
     11          1           0       -2.529098   -1.902190    2.486493
     12          7           0       -1.851206    1.880995   -0.077707
     13          8           0       -1.030348    2.281933    0.744533
     14          8           0       -2.172329    2.474923   -1.104726
     15          6           0        4.088780   -0.603242   -0.199354
     16          6           0        4.825404    0.545477    0.490439
     17          6           0        6.315104    0.260755    0.684144
     18          1           0        4.214346   -1.519491    0.393662
     19          1           0        4.556110   -0.795879   -1.175002
     20          1           0        4.355953    0.736806    1.463899
     21          1           0        4.697909    1.459139   -0.104189
     22          1           0        6.803532    0.090996   -0.280853
     23          1           0        6.459632   -0.635442    1.296144
     24          1           0        6.822240    1.094905    1.178985
     25          6           0        2.598585   -0.333507   -0.400071
     26          6           0        1.861961   -1.482227   -1.089863
     27          6           0        0.372262   -1.197504   -1.283569
     28          1           0        2.131254   -0.140870    0.575577
     29          1           0        2.473018    0.582741   -0.993087
     30          1           0        1.989456   -2.395889   -0.495236
     31          1           0        2.331411   -1.673555   -2.063323
     32          1           0        0.227732   -0.301307   -1.895568
     33          1           0       -0.116168   -1.027746   -0.318572
     34          1           0       -0.134876   -2.031654   -1.778410
 ---------------------------------------------------------------------

 SCF Done:  E(RHF) =  -669.534423792     A.U. after   15 cycles
 E2 =    -0.2093514677D+01 EUMP2 =    -0.67162793846839D+03

 The electronic state is 1-A.
 Alpha  occ. eigenvalues --  -20.60778 -20.60767 -15.85817 -11.31160 -11.27761
 Alpha  occ. eigenvalues --  -11.27739 -11.27519 -11.26804 -11.26791 -11.21367
 Alpha  occ. eigenvalues --  -11.21238 -11.21076 -11.20975 -11.20810 -11.20788
 Alpha  occ. eigenvalues --   -1.59843  -1.39398  -1.19379  -1.08765  -1.08112
 Alpha  occ. eigenvalues --   -1.04791  -1.03250  -0.95715  -0.95592  -0.86734
 Alpha  occ. eigenvalues --   -0.86181  -0.82436  -0.79321  -0.77908  -0.77479
 Alpha  occ. eigenvalues --   -0.72045  -0.71162  -0.70488  -0.65031  -0.64794
 Alpha  occ. eigenvalues --   -0.64748  -0.62135  -0.60671  -0.59068  -0.57341
 Alpha  occ. eigenvalues --   -0.55287  -0.55096  -0.53315  -0.52877  -0.52371
 Alpha  occ. eigenvalues --   -0.51944  -0.49607  -0.48804  -0.48799  -0.47617
 Alpha  occ. eigenvalues --   -0.46341  -0.45456  -0.45381  -0.44780  -0.43490
 Alpha  occ. eigenvalues --   -0.37291  -0.36347
 Alpha virt. eigenvalues --    0.05035   0.11187   0.16542   0.21336   0.23149
 Alpha virt. eigenvalues --    0.24529   0.26733   0.27365   0.27669   0.28190
 Alpha virt. eigenvalues --    0.28496   0.30947   0.31577   0.32106   0.32142

 Mulliken charges:
               1
     1  C   -0.170960
     2  C   -0.217390
     3  C   -0.170778
     4  C    0.167409
     5  C   -0.179865
     6  C   -0.214980
     7  H    0.225660
     8  H    0.223575
     9  H    0.275662
    10  H    0.275253
    11  H    0.223496
    12  N    0.489023
    13  O   -0.460618
    14  O   -0.461085
    15  C   -0.298281
    16  C   -0.299551
    17  C   -0.475616
    18  H    0.146558
    19  H    0.148793
    20  H    0.152473
    21  H    0.155177
    22  H    0.154591
    23  H    0.153309
    24  H    0.160367
    25  C   -0.298417
    26  C   -0.298986
    27  C   -0.482387
    28  H    0.149391
    29  H    0.156456
    30  H    0.147746
    31  H    0.151290
    32  H    0.158532
    33  H    0.157923
    34  H    0.156226
 Sum of Mulliken charges =  -0.00000

 Dipole moment (field-independent basis, Debye):
    X=             -2.3981    Y=             -4.4816    Z=              0.9377  Tot=              5.1686
 Quadrupole moment (field-independent basis, Debye-Ang):
   XX=            -83.6626   YY=           -100.7688   ZZ=            -90.2891
   XY=             10.5989   XZ=             -0.6651   YZ=             -1.2901

 Normal termination of Gaussian 16 at Thu May  6 12:26:05 2021.
