 Gaussian 16, Revision A.03,
 Gaussian 16:  EM64L-G16RevA.03 25-Dec-2016

 -------------
 #p 6-31g* mp2
 -------------

 ------------------------------------------------------
 Input file generated by CHIRIPA (05-May-2021 14:53:15)
 ------------------------------------------------------
 Symbolic Z-matrix:
 Charge =  0 Multiplicity = 1

                         Standard orientation:
 ---------------------------------------------------------------------
 Center     Atomic      Atomic             Coordinates (Angstroms)
 Number     Number       Type             X           Y           Z
 ---------------------------------------------------------------------
      1          6           0       -3.113221   -1.093047   -0.142817
      2          6           0       -1.980417   -1.029603   -1.167861
      3          6           0       -1.227441   -2.353798   -1.299502
      4          1           0       -2.699847   -1.380088    0.833746
      5          1           0       -3.815031   -1.887907   -0.431010
      6          1           0       -1.281685   -0.234177   -0.878572
      7          1           0       -2.396507   -0.742493   -2.142054
      8          1           0       -1.906699   -3.153885   -1.611063
      9          1           0       -0.785543   -2.642681   -0.340402
     10          1           0       -0.422014   -2.286001   -2.037439
     11          6           0       -3.875341    0.223189    0.000095
     12          6           0       -5.008145    0.159744    1.025139
     13          6           0       -5.761121    1.483939    1.156780
     14          1           0       -3.173530    1.018048    0.288288
     15          1           0       -4.288715    0.510230   -0.976468
     16          1           0       -4.592054   -0.127366    1.999332
     17          1           0       -5.706877   -0.635681    0.735850
     18          1           0       -6.203019    1.772823    0.197680
     19          1           0       -5.081862    2.284026    1.468341
     20          1           0       -6.566548    1.416142    1.894717
     21          6           0        3.711562   -1.719091    1.134310
     22          6           0        2.562452   -1.823364    0.343615
     23          6           0        2.009845   -0.689263   -0.258868
     24          6           0        2.635005    0.538833   -0.048520
     25          6           0        3.780739    0.675095    0.733792
     26          6           0        4.315972   -0.472393    1.326536
     27          1           0        4.134092   -2.605288    1.598550
     28          1           0        2.090936   -2.790270    0.192589
     29          1           0        1.120993   -0.741421   -0.875829
     30          1           0        4.228385    1.652621    0.865993
     31          1           0        5.208463   -0.388419    1.940093
     32          7           0        2.059180    1.746542   -0.681188
     33          8           0        2.628846    2.816960   -0.480379
     34          8           0        1.049087    1.599858   -1.365900
 ---------------------------------------------------------------------

 SCF Done:  E(RHF) =  -669.535427770     A.U. after   15 cycles
 E2 =    -0.2092811098D+01 EUMP2 =    -0.67162823886775D+03

 The electronic state is 1-A.
 Alpha  occ. eigenvalues --  -20.60843 -20.60834 -15.85873 -11.31162 -11.27749
 Alpha  occ. eigenvalues --  -11.27655 -11.27481 -11.26754 -11.26713 -11.21648
 Alpha  occ. eigenvalues --  -11.21545 -11.21421 -11.21343 -11.21134 -11.20844
 Alpha  occ. eigenvalues --   -1.59905  -1.39462  -1.19341  -1.08753  -1.08352
 Alpha  occ. eigenvalues --   -1.04738  -1.03547  -0.96056  -0.95587  -0.87058
 Alpha  occ. eigenvalues --   -0.86137  -0.82429  -0.79575  -0.78117  -0.77485
 Alpha  occ. eigenvalues --   -0.72099  -0.71221  -0.70474  -0.65065  -0.64993
 Alpha  occ. eigenvalues --   -0.64698  -0.62243  -0.60822  -0.59386  -0.57616
 Alpha  occ. eigenvalues --   -0.55439  -0.55119  -0.53073  -0.52881  -0.52706
 Alpha  occ. eigenvalues --   -0.52395  -0.49976  -0.48883  -0.48847  -0.47876
 Alpha  occ. eigenvalues --   -0.46577  -0.45671  -0.45566  -0.44838  -0.43770
 Alpha  occ. eigenvalues --   -0.37330  -0.36329
 Alpha virt. eigenvalues --    0.04996   0.11279   0.16483   0.20351   0.23168
 Alpha virt. eigenvalues --    0.24071   0.26227   0.27001   0.27107   0.28137
 Alpha virt. eigenvalues --    0.29494   0.30484   0.31424   0.31697   0.32238

 Mulliken charges:
               1
     1  C   -0.297888
     2  C   -0.311342
     3  C   -0.489376
     4  H    0.146819
     5  H    0.148048
     6  H    0.170365
     7  H    0.157806
     8  H    0.162023
     9  H    0.148967
    10  H    0.156729
    11  C   -0.299456
    12  C   -0.299654
    13  C   -0.475829
    14  H    0.155829
    15  H    0.151488
    16  H    0.150493
    17  H    0.150527
    18  H    0.155882
    19  H    0.157139
    20  H    0.159092
    21  C   -0.170381
    22  C   -0.225300
    23  C   -0.179741
    24  C    0.157163
    25  C   -0.169983
    26  C   -0.219173
    27  H    0.225599
    28  H    0.225674
    29  H    0.293804
    30  H    0.275348
    31  H    0.223330
    32  N    0.488263
    33  O   -0.459580
    34  O   -0.462686
 Sum of Mulliken charges =  -0.00000

 Dipole moment (field-independent basis, Debye):
    X=              1.9570    Y=             -4.1187    Z=              2.1779  Tot=              5.0534
 Quadrupole moment (field-independent basis, Debye-Ang):
   XX=            -81.6552   YY=            -99.1486   ZZ=            -94.3319
   XY=             -7.3754   XZ=              8.4906   YZ=              2.6737

 Normal termination of Gaussian 16 at Thu May  6 04:18:04 2021.
