 Gaussian 16, Revision A.03,
 Gaussian 16:  EM64L-G16RevA.03 25-Dec-2016

 -------------
 #p 6-31g* mp2
 -------------

 ------------------------------------------------------
 Input file generated by CHIRIPA (05-May-2021 14:53:13)
 ------------------------------------------------------
 Symbolic Z-matrix:
 Charge =  0 Multiplicity = 1

                         Standard orientation:
 ---------------------------------------------------------------------
 Center     Atomic      Atomic             Coordinates (Angstroms)
 Number     Number       Type             X           Y           Z
 ---------------------------------------------------------------------
      1          6           0        1.723140    1.104726   -0.307878
      2          6           0        1.989605    2.593558   -0.532289
      3          6           0        0.709748    3.392258   -0.780964
      4          1           0        1.198727    0.696651   -1.182756
      5          1           0        1.043614    0.985821    0.547401
      6          1           0        2.669524    2.709551   -1.386029
      7          1           0        2.513614    2.998093    0.343143
      8          1           0        0.029929    3.306215    0.072877
      9          1           0        0.186725    3.016034   -1.666120
     10          1           0        0.923398    4.453993   -0.938868
     11          6           0        2.992905    0.292966   -0.057934
     12          6           0        2.726440   -1.195866    0.166477
     13          6           0        4.006296   -1.994566    0.415151
     14          1           0        3.672430    0.411871   -0.913213
     15          1           0        3.517317    0.701041    0.816944
     16          1           0        2.202430   -1.600401   -0.708955
     17          1           0        2.046521   -1.311859    1.020217
     18          1           0        4.529320   -1.618341    1.300308
     19          1           0        4.686115   -1.908522   -0.438689
     20          1           0        3.792647   -3.056300    0.573056
     21          6           0       -2.419814    1.770862    0.958106
     22          6           0       -2.904756    1.321353   -0.274491
     23          6           0       -2.591104    0.039544   -0.736160
     24          6           0       -1.786364   -0.769957    0.064084
     25          6           0       -1.287932   -0.350830    1.296638
     26          6           0       -1.614370    0.934809    1.738360
     27          1           0       -2.668433    2.768088    1.308994
     28          1           0       -3.530483    1.968470   -0.882561
     29          1           0       -2.953054   -0.333800   -1.686436
     30          1           0       -0.666375   -1.018789    1.880516
     31          1           0       -1.236345    1.281247    2.696026
     32          7           0       -1.447547   -2.128977   -0.414106
     33          8           0       -0.736713   -2.822831    0.309716
     34          8           0       -1.899231   -2.474590   -1.503679
 ---------------------------------------------------------------------

 SCF Done:  E(RHF) =  -669.533716658     A.U. after   15 cycles
 E2 =    -0.2096430777D+01 EUMP2 =    -0.67163014743493D+03

 The electronic state is 1-A.
 Alpha  occ. eigenvalues --  -20.60857 -20.60833 -15.85885 -11.31241 -11.27840
 Alpha  occ. eigenvalues --  -11.27822 -11.27579 -11.26838 -11.26823 -11.21681
 Alpha  occ. eigenvalues --  -11.21283 -11.21222 -11.21169 -11.21115 -11.20622
 Alpha  occ. eigenvalues --   -1.59911  -1.39465  -1.19445  -1.08834  -1.08288
 Alpha  occ. eigenvalues --   -1.04858  -1.03374  -0.95866  -0.95653  -0.86874
 Alpha  occ. eigenvalues --   -0.86246  -0.82504  -0.79461  -0.78113  -0.77522
 Alpha  occ. eigenvalues --   -0.72109  -0.71220  -0.70561  -0.65103  -0.64967
 Alpha  occ. eigenvalues --   -0.64837  -0.62199  -0.60797  -0.59231  -0.57444
 Alpha  occ. eigenvalues --   -0.55363  -0.55162  -0.53304  -0.52945  -0.52525
 Alpha  occ. eigenvalues --   -0.52292  -0.49832  -0.48878  -0.48867  -0.47708
 Alpha  occ. eigenvalues --   -0.46512  -0.45633  -0.45556  -0.44747  -0.43616
 Alpha  occ. eigenvalues --   -0.37353  -0.36301
 Alpha virt. eigenvalues --    0.04935   0.11073   0.16328   0.20772   0.23160
 Alpha virt. eigenvalues --    0.24087   0.26004   0.26903   0.27498   0.28078
 Alpha virt. eigenvalues --    0.28823   0.30531   0.31237   0.31748   0.32263

 Mulliken charges:
               1
     1  C   -0.303080
     2  C   -0.298676
     3  C   -0.475820
     4  H    0.149034
     5  H    0.152297
     6  H    0.152840
     7  H    0.149212
     8  H    0.150375
     9  H    0.154704
    10  H    0.157640
    11  C   -0.298342
    12  C   -0.299285
    13  C   -0.476531
    14  H    0.149268
    15  H    0.145635
    16  H    0.159575
    17  H    0.149745
    18  H    0.150942
    19  H    0.154052
    20  H    0.166160
    21  C   -0.168329
    22  C   -0.216723
    23  C   -0.171888
    24  C    0.163877
    25  C   -0.172105
    26  C   -0.219572
    27  H    0.226603
    28  H    0.224193
    29  H    0.275808
    30  H    0.276969
    31  H    0.223795
    32  N    0.487664
    33  O   -0.459494
    34  O   -0.460539
 Sum of Mulliken charges =  -0.00000

 Dipole moment (field-independent basis, Debye):
    X=             -1.3418    Y=              4.6050    Z=              1.6635  Tot=              5.0768
 Quadrupole moment (field-independent basis, Debye-Ang):
   XX=            -90.4969   YY=           -103.4317   ZZ=            -90.3688
   XY=             -8.1029   XZ=             -0.9395   YZ=             -1.3417

 Normal termination of Gaussian 16 at Wed May  5 21:48:26 2021.
