 Gaussian 16, Revision A.03,
 Gaussian 16:  EM64L-G16RevA.03 25-Dec-2016

 -------------
 #p 6-31g* mp2
 -------------

 ------------------------------------------------------
 Input file generated by CHIRIPA (05-May-2021 14:57:26)
 ------------------------------------------------------
 Symbolic Z-matrix:
 Charge =  0 Multiplicity = 1

                         Standard orientation:
 ---------------------------------------------------------------------
 Center     Atomic      Atomic             Coordinates (Angstroms)
 Number     Number       Type             X           Y           Z
 ---------------------------------------------------------------------
      1          6           0        5.611267    0.476236    0.507570
      2          6           0        5.064937   -0.809376    0.435138
      3          6           0        3.747395   -0.997867    0.007232
      4          6           0        3.001279    0.126645   -0.342160
      5          6           0        3.517239    1.420203   -0.280660
      6          6           0        4.837040    1.584968    0.150070
      7          1           0        6.635642    0.613444    0.841074
      8          1           0        5.663875   -1.672269    0.712148
      9          1           0        3.299419   -1.981964   -0.058254
     10          1           0        2.895564    2.261027   -0.563419
     11          1           0        5.258703    2.584563    0.205335
     12          7           0        1.605262   -0.060342   -0.796660
     13          8           0        0.968722    0.946690   -1.098885
     14          8           0        1.174036   -1.210395   -0.842065
     15          6           0       -5.131360    1.422851   -0.241208
     16          6           0       -5.012593    0.221000   -0.946877
     17          6           0       -3.963879   -0.662193   -0.673536
     18          6           0       -3.047675   -0.310241    0.316410
     19          6           0       -3.139051    0.879758    1.036716
     20          6           0       -4.195858    1.747822    0.746595
     21          1           0       -5.949170    2.103061   -0.460062
     22          1           0       -5.737648   -0.033982   -1.714550
     23          1           0       -3.848149   -1.599187   -1.204637
     24          1           0       -2.400824    1.106478    1.796345
     25          1           0       -4.285601    2.680508    1.296220
     26          7           0       -1.933163   -1.237230    0.614665
     27          8           0       -1.139037   -0.903978    1.491558
     28          8           0       -1.874840   -2.279504   -0.034104
 ---------------------------------------------------------------------

 SCF Done:  E(RHF) =  -868.337290516     A.U. after   16 cycles
 E2 =    -0.2600938915D+01 EUMP2 =    -0.87093822943009D+03

 The electronic state is 1-A.
 Alpha  occ. eigenvalues --  -20.59962 -20.59805 -20.59384 -20.59299 -15.84914
 Alpha  occ. eigenvalues --  -15.84406 -11.30471 -11.30031 -11.27112 -11.27022
 Alpha  occ. eigenvalues --  -11.26882 -11.26660 -11.26641 -11.26488 -11.26173
 Alpha  occ. eigenvalues --  -11.26118 -11.25763 -11.25749  -1.58946  -1.58360
 Alpha  occ. eigenvalues --   -1.38492  -1.37937  -1.18670  -1.18235  -1.08039
 Alpha  occ. eigenvalues --   -1.07587  -1.04108  -1.03701  -0.94843  -0.94385
 Alpha  occ. eigenvalues --   -0.85498  -0.85091  -0.81673  -0.81243  -0.76685
 Alpha  occ. eigenvalues --   -0.76227  -0.71181  -0.70700  -0.70338  -0.69795
 Alpha  occ. eigenvalues --   -0.69485  -0.69387  -0.64326  -0.64126  -0.63912
 Alpha  occ. eigenvalues --   -0.63736  -0.61454  -0.61062  -0.54626  -0.54227
 Alpha  occ. eigenvalues --   -0.52423  -0.52212  -0.51986  -0.51823  -0.48010
 Alpha  occ. eigenvalues --   -0.47922  -0.47392  -0.47329  -0.43830  -0.43283
 Alpha  occ. eigenvalues --   -0.36666  -0.36222  -0.35718  -0.35306
 Alpha virt. eigenvalues --    0.05868   0.06366   0.11935   0.12347   0.17317
 Alpha virt. eigenvalues --    0.17784   0.22003   0.22331   0.27894   0.28205
 Alpha virt. eigenvalues --    0.28930   0.29255   0.31518   0.31831   0.33216

 Mulliken charges:
               1
     1  C   -0.171571
     2  C   -0.218911
     3  C   -0.168930
     4  C    0.160931
     5  C   -0.171601
     6  C   -0.218828
     7  H    0.222975
     8  H    0.222190
     9  H    0.279784
    10  H    0.272427
    11  H    0.220189
    12  N    0.490251
    13  O   -0.472500
    14  O   -0.446272
    15  C   -0.171794
    16  C   -0.218631
    17  C   -0.169325
    18  C    0.165953
    19  C   -0.167306
    20  C   -0.218555
    21  H    0.221188
    22  H    0.219716
    23  H    0.274682
    24  H    0.272510
    25  H    0.218886
    26  N    0.495649
    27  O   -0.468355
    28  O   -0.454752
 Sum of Mulliken charges =  -0.00000

 Dipole moment (field-independent basis, Debye):
    X=              1.0806    Y=              3.5763    Z=              0.4931  Tot=              3.7684
 Quadrupole moment (field-independent basis, Debye-Ang):
   XX=            -54.1277   YY=           -100.2941   ZZ=           -105.6904
   XY=             -5.6719   XZ=              6.9160   YZ=              3.4157

 Normal termination of Gaussian 16 at Thu May  6 13:08:40 2021.
