 Gaussian 16, Revision A.03,
 Gaussian 16:  EM64L-G16RevA.03 25-Dec-2016

 -------------
 #p 6-31g* mp2
 -------------

 ------------------------------------------------------
 Input file generated by CHIRIPA (05-May-2021 14:57:22)
 ------------------------------------------------------
 Symbolic Z-matrix:
 Charge =  0 Multiplicity = 1

                         Standard orientation:
 ---------------------------------------------------------------------
 Center     Atomic      Atomic             Coordinates (Angstroms)
 Number     Number       Type             X           Y           Z
 ---------------------------------------------------------------------
      1          6           0        1.917635    2.027093    0.344522
      2          6           0        1.589414    0.668095    0.388286
      3          6           0        2.563966   -0.305712    0.150595
      4          6           0        3.862610    0.116856   -0.129136
      5          6           0        4.220749    1.463131   -0.179828
      6          6           0        3.229941    2.419582    0.061105
      7          1           0        1.154265    2.776829    0.530425
      8          1           0        0.571077    0.360367    0.608147
      9          1           0        2.337333   -1.364623    0.178221
     10          1           0        5.244492    1.739170   -0.401573
     11          1           0        3.487720    3.474284    0.026462
     12          7           0        4.902930   -0.904882   -0.382485
     13          8           0        6.039764   -0.506664   -0.626753
     14          8           0        4.561800   -2.084593   -0.331993
     15          6           0       -1.849343   -1.674308    1.109232
     16          6           0       -2.033071   -0.348244    1.514592
     17          6           0       -3.050348    0.430734    0.955226
     18          6           0       -3.869213   -0.150962   -0.011407
     19          6           0       -3.711357   -1.469282   -0.436149
     20          6           0       -2.687595   -2.229616    0.136870
     21          1           0       -1.056578   -2.272196    1.549063
     22          1           0       -1.383582    0.085645    2.269542
     23          1           0       -3.214817    1.459862    1.250627
     24          1           0       -4.374691   -1.874097   -1.190821
     25          1           0       -2.547239   -3.259190   -0.179869
     26          7           0       -4.949591    0.663838   -0.610809
     27          8           0       -5.657596    0.127972   -1.460641
     28          8           0       -5.067930    1.822916   -0.219439
 ---------------------------------------------------------------------

 SCF Done:  E(RHF) =  -868.337170677     A.U. after   16 cycles
 E2 =    -0.2600846380D+01 EUMP2 =    -0.87093801705699D+03

 The electronic state is 1-A.
 Alpha  occ. eigenvalues --  -20.61480 -20.61466 -20.61169 -20.61154 -15.86536
 Alpha  occ. eigenvalues --  -15.86218 -11.32076 -11.31611 -11.28734 -11.28622
 Alpha  occ. eigenvalues --  -11.28470 -11.28217 -11.28145 -11.27904 -11.27790
 Alpha  occ. eigenvalues --  -11.27634 -11.27161 -11.27138  -1.60547  -1.60238
 Alpha  occ. eigenvalues --   -1.40096  -1.39792  -1.20285  -1.19775  -1.09650
 Alpha  occ. eigenvalues --   -1.09162  -1.05716  -1.05184  -0.96443  -0.95999
 Alpha  occ. eigenvalues --   -0.87120  -0.86569  -0.83269  -0.82834  -0.78294
 Alpha  occ. eigenvalues --   -0.77877  -0.72750  -0.72436  -0.71873  -0.71561
 Alpha  occ. eigenvalues --   -0.71371  -0.70891  -0.65944  -0.65806  -0.65427
 Alpha  occ. eigenvalues --   -0.65121  -0.63060  -0.62510  -0.56194  -0.55689
 Alpha  occ. eigenvalues --   -0.54122  -0.53805  -0.53506  -0.53141  -0.49522
 Alpha  occ. eigenvalues --   -0.49494  -0.49197  -0.49187  -0.45462  -0.45192
 Alpha  occ. eigenvalues --   -0.38268  -0.37751  -0.37307  -0.36790
 Alpha virt. eigenvalues --    0.04247   0.04658   0.10128   0.10837   0.15654
 Alpha virt. eigenvalues --    0.16138   0.19678   0.21861   0.25926   0.26222
 Alpha virt. eigenvalues --    0.28174   0.28769   0.29919   0.30920   0.31925

 Mulliken charges:
               1
     1  C   -0.173663
     2  C   -0.226273
     3  C   -0.174240
     4  C    0.159591
     5  C   -0.170887
     6  C   -0.217827
     7  H    0.226160
     8  H    0.228833
     9  H    0.271022
    10  H    0.276918
    11  H    0.225393
    12  N    0.488183
    13  O   -0.458634
    14  O   -0.461887
    15  C   -0.174072
    16  C   -0.229669
    17  C   -0.171842
    18  C    0.159491
    19  C   -0.168573
    20  C   -0.217254
    21  H    0.229066
    22  H    0.224042
    23  H    0.276299
    24  H    0.279548
    25  H    0.228886
    26  N    0.488065
    27  O   -0.456955
    28  O   -0.459721
 Sum of Mulliken charges =  -0.00000

 Dipole moment (field-independent basis, Debye):
    X=             -0.1018    Y=              0.6798    Z=              2.8929  Tot=              2.9735
 Quadrupole moment (field-independent basis, Debye-Ang):
   XX=           -159.6335   YY=            -97.5080   ZZ=           -104.7877
   XY=             28.7517   XZ=             -3.8409   YZ=              1.3367

 Normal termination of Gaussian 16 at Fri May  7 00:14:49 2021.
