 Gaussian 16, Revision A.03,
 Gaussian 16:  EM64L-G16RevA.03 25-Dec-2016

 -------------
 #p 6-31g* mp2
 -------------

 ------------------------------------------------------
 Input file generated by CHIRIPA (05-May-2021 14:53:14)
 ------------------------------------------------------
 Symbolic Z-matrix:
 Charge =  0 Multiplicity = 1

                         Standard orientation:
 ---------------------------------------------------------------------
 Center     Atomic      Atomic             Coordinates (Angstroms)
 Number     Number       Type             X           Y           Z
 ---------------------------------------------------------------------
      1          6           0        3.785608    0.753845   -0.338013
      2          6           0        2.709800    1.825508   -0.517348
      3          6           0        3.295688    3.213296   -0.779209
      4          1           0        4.442974    1.038995    0.494755
      5          1           0        4.416053    0.722963   -1.237446
      6          1           0        2.080717    1.853406    0.381591
      7          1           0        2.054802    1.537677   -1.349664
      8          1           0        3.907466    3.208137   -1.687120
      9          1           0        3.933528    3.525660    0.053972
     10          1           0        2.509183    3.964036   -0.904349
     11          6           0        3.215494   -0.638914   -0.075482
     12          6           0        4.291302   -1.710576    0.103854
     13          6           0        3.705414   -3.098365    0.365714
     14          1           0        2.585048   -0.608032    0.823951
     15          1           0        2.558128   -0.924064   -0.908250
     16          1           0        4.946299   -1.422746    0.936169
     17          1           0        4.920385   -1.738475   -0.795086
     18          1           0        3.067574   -3.410729   -0.467467
     19          1           0        3.093636   -3.093206    1.273625
     20          1           0        4.491918   -3.849105    0.490854
     21          6           0       -5.005960   -0.495487   -0.840850
     22          6           0       -3.902636   -1.259392   -1.235370
     23          6           0       -2.639534   -1.018534   -0.686636
     24          6           0       -2.515239   -0.001334    0.258427
     25          6           0       -3.595347    0.776916    0.671929
     26          6           0       -4.849072    0.518441    0.109865
     27          1           0       -5.983525   -0.689434   -1.272296
     28          1           0       -4.021516   -2.047469   -1.973508
     29          1           0       -1.768470   -1.594788   -0.974034
     30          1           0       -3.445638    1.555689    1.409842
     31          1           0       -5.704155    1.113285    0.418145
     32          7           0       -1.183013    0.262977    0.846403
     33          8           0       -1.099853    1.164891    1.677230
     34          8           0       -0.247201   -0.436774    0.465297
 ---------------------------------------------------------------------

 SCF Done:  E(RHF) =  -669.536098222     A.U. after   15 cycles
 E2 =    -0.2092004527D+01 EUMP2 =    -0.67162810274853D+03

 The electronic state is 1-A.
 Alpha  occ. eigenvalues --  -20.61010 -20.60997 -15.86016 -11.31327 -11.27887
 Alpha  occ. eigenvalues --  -11.27884 -11.27621 -11.26890 -11.26880 -11.20405
 Alpha  occ. eigenvalues --  -11.20114 -11.20079 -11.20012 -11.19959 -11.19658
 Alpha  occ. eigenvalues --   -1.60055  -1.39612  -1.19493  -1.08901  -1.07021
 Alpha  occ. eigenvalues --   -1.04886  -1.02284  -0.95746  -0.94745  -0.86287
 Alpha  occ. eigenvalues --   -0.85774  -0.82583  -0.78319  -0.77640  -0.76768
 Alpha  occ. eigenvalues --   -0.72222  -0.71358  -0.70601  -0.65147  -0.64890
 Alpha  occ. eigenvalues --   -0.63667  -0.62233  -0.59697  -0.58119  -0.56341
 Alpha  occ. eigenvalues --   -0.55392  -0.54050  -0.53219  -0.52978  -0.51508
 Alpha  occ. eigenvalues --   -0.51171  -0.49060  -0.49007  -0.48693  -0.46647
 Alpha  occ. eigenvalues --   -0.45333  -0.45070  -0.44295  -0.44106  -0.42479
 Alpha  occ. eigenvalues --   -0.37470  -0.36486
 Alpha virt. eigenvalues --    0.04879   0.11169   0.16376   0.21291   0.24177
 Alpha virt. eigenvalues --    0.25427   0.27201   0.27884   0.28204   0.28890
 Alpha virt. eigenvalues --    0.29364   0.30951   0.32417   0.32522   0.32945

 Mulliken charges:
               1
     1  C   -0.298593
     2  C   -0.300591
     3  C   -0.474929
     4  H    0.145536
     5  H    0.141754
     6  H    0.169576
     7  H    0.146933
     8  H    0.149734
     9  H    0.152953
    10  H    0.156450
    11  C   -0.298025
    12  C   -0.299313
    13  C   -0.473425
    14  H    0.171625
    15  H    0.147173
    16  H    0.148466
    17  H    0.145744
    18  H    0.151255
    19  H    0.157598
    20  H    0.154529
    21  C   -0.170514
    22  C   -0.218556
    23  C   -0.170817
    24  C    0.158021
    25  C   -0.170469
    26  C   -0.218608
    27  H    0.226121
    28  H    0.223959
    29  H    0.275858
    30  H    0.275875
    31  H    0.223916
    32  N    0.491448
    33  O   -0.460419
    34  O   -0.460268
 Sum of Mulliken charges =  -0.00000

 Dipole moment (field-independent basis, Debye):
    X=             -5.1152    Y=             -0.9466    Z=             -1.8990  Tot=              5.5378
 Quadrupole moment (field-independent basis, Debye-Ang):
   XX=            -72.6010   YY=            -94.4556   ZZ=            -94.0188
   XY=              0.5170   XZ=              3.5321   YZ=              2.8301

 Normal termination of Gaussian 16 at Thu May  6 01:03:40 2021.
