 Gaussian 16, Revision A.03,
 Gaussian 16:  EM64L-G16RevA.03 25-Dec-2016

 -------------
 #p 6-31g* mp2
 -------------

 ------------------------------------------------------
 Input file generated by CHIRIPA (05-May-2021 14:53:13)
 ------------------------------------------------------
 Symbolic Z-matrix:
 Charge =  0 Multiplicity = 1

                         Standard orientation:
 ---------------------------------------------------------------------
 Center     Atomic      Atomic             Coordinates (Angstroms)
 Number     Number       Type             X           Y           Z
 ---------------------------------------------------------------------
      1          6           0        3.654132   -0.467117    0.341000
      2          6           0        2.923480   -1.729790   -0.117026
      3          6           0        1.540290   -1.875628    0.518040
      4          1           0        3.751386   -0.483951    1.435168
      5          1           0        3.042216    0.411789    0.095075
      6          1           0        3.537222   -2.605964    0.128446
      7          1           0        2.828124   -1.710040   -1.210247
      8          1           0        0.906984   -1.019868    0.262695
      9          1           0        1.620111   -1.920883    1.608995
     10          1           0        1.035696   -2.784907    0.176782
     11          6           0        5.038329   -0.307307   -0.285248
     12          6           0        5.768981    0.955367    0.172778
     13          6           0        7.152172    1.101204   -0.462288
     14          1           0        5.650245   -1.186212   -0.039322
     15          1           0        4.941075   -0.290472   -1.379416
     16          1           0        5.864338    0.935616    1.266000
     17          1           0        5.155240    1.831541   -0.072693
     18          1           0        7.072351    1.146460   -1.553242
     19          1           0        7.785478    0.245445   -0.206943
     20          1           0        7.656765    2.010484   -0.121030
     21          6           0       -2.567238    2.678469    0.164590
     22          6           0       -1.671084    1.612474    0.295302
     23          6           0       -2.118851    0.291960    0.193845
     24          6           0       -3.475566    0.072810   -0.039796
     25          6           0       -4.393053    1.113643   -0.174605
     26          6           0       -3.922972    2.426095   -0.069532
     27          1           0       -2.210735    3.701145    0.244809
     28          1           0       -0.617651    1.805484    0.477160
     29          1           0       -1.446808   -0.552042    0.290998
     30          1           0       -5.437355    0.889767   -0.355521
     31          1           0       -4.621214    3.251996   -0.171468
     32          7           0       -3.961407   -1.320892   -0.149118
     33          8           0       -5.161582   -1.487390   -0.355266
     34          8           0       -3.132836   -2.220389   -0.026584
 ---------------------------------------------------------------------

 SCF Done:  E(RHF) =  -669.535512219     A.U. after   15 cycles
 E2 =    -0.2091075475D+01 EUMP2 =    -0.67162658769398D+03

 The electronic state is 1-A.
 Alpha  occ. eigenvalues --  -20.60716 -20.60710 -15.85767 -11.31124 -11.27709
 Alpha  occ. eigenvalues --  -11.27660 -11.27460 -11.26727 -11.26712 -11.21962
 Alpha  occ. eigenvalues --  -11.21945 -11.21826 -11.21710 -11.21535 -11.21349
 Alpha  occ. eigenvalues --   -1.59791  -1.39343  -1.19305  -1.08807  -1.08705
 Alpha  occ. eigenvalues --   -1.04712  -1.03893  -0.96353  -0.95538  -0.87372
 Alpha  occ. eigenvalues --   -0.86107  -0.82372  -0.79961  -0.78627  -0.77414
 Alpha  occ. eigenvalues --   -0.71988  -0.71113  -0.70425  -0.65443  -0.64961
 Alpha  occ. eigenvalues --   -0.64720  -0.62115  -0.61259  -0.59693  -0.57950
 Alpha  occ. eigenvalues --   -0.55681  -0.55200  -0.53047  -0.53040  -0.52878
 Alpha  occ. eigenvalues --   -0.52664  -0.50296  -0.48747  -0.48741  -0.48271
 Alpha  occ. eigenvalues --   -0.46992  -0.46168  -0.46091  -0.44751  -0.44135
 Alpha  occ. eigenvalues --   -0.37294  -0.36313
 Alpha virt. eigenvalues --    0.05116   0.11338   0.16600   0.19976   0.22629
 Alpha virt. eigenvalues --    0.23834   0.25324   0.26378   0.27011   0.28099
 Alpha virt. eigenvalues --    0.29125   0.30071   0.31451   0.31602   0.31917

 Mulliken charges:
               1
     1  C   -0.297553
     2  C   -0.300484
     3  C   -0.478547
     4  H    0.150329
     5  H    0.142992
     6  H    0.155556
     7  H    0.154144
     8  H    0.141155
     9  H    0.157721
    10  H    0.173067
    11  C   -0.298578
    12  C   -0.299571
    13  C   -0.475896
    14  H    0.151531
    15  H    0.150591
    16  H    0.152240
    17  H    0.149790
    18  H    0.155677
    19  H    0.156370
    20  H    0.160551
    21  C   -0.170662
    22  C   -0.221618
    23  C   -0.180043
    24  C    0.159624
    25  C   -0.170345
    26  C   -0.219065
    27  H    0.225338
    28  H    0.223196
    29  H    0.287080
    30  H    0.275404
    31  H    0.223246
    32  N    0.487617
    33  O   -0.460769
    34  O   -0.460092
 Sum of Mulliken charges =  -0.00000

 Dipole moment (field-independent basis, Debye):
    X=              1.8472    Y=              4.7740    Z=              0.3826  Tot=              5.1332
 Quadrupole moment (field-independent basis, Debye-Ang):
   XX=           -102.8830   YY=            -93.4361   ZZ=            -95.0977
   XY=            -19.6566   XZ=              0.0768   YZ=             -0.7988

 Normal termination of Gaussian 16 at Thu May  6 04:09:20 2021.
