 Gaussian 16, Revision A.03,
 Gaussian 16:  EM64L-G16RevA.03 25-Dec-2016

 -------------
 #p 6-31g* mp2
 -------------

 ------------------------------------------------------
 Input file generated by CHIRIPA (05-May-2021 14:53:12)
 ------------------------------------------------------
 Symbolic Z-matrix:
 Charge =  0 Multiplicity = 1

                         Standard orientation:
 ---------------------------------------------------------------------
 Center     Atomic      Atomic             Coordinates (Angstroms)
 Number     Number       Type             X           Y           Z
 ---------------------------------------------------------------------
      1          6           0       -3.837575   -0.413749   -0.671595
      2          6           0       -3.576633   -1.796139   -0.072520
      3          6           0       -4.003747   -2.933126   -1.001298
      4          1           0       -4.907123   -0.317562   -0.903457
      5          1           0       -3.301729   -0.328810   -1.627132
      6          1           0       -4.111695   -1.877943    0.882275
      7          1           0       -2.507614   -1.888975    0.158119
      8          1           0       -3.460884   -2.879699   -1.950533
      9          1           0       -5.074079   -2.868604   -1.222263
     10          1           0       -3.808244   -3.912388   -0.553320
     11          6           0       -3.415841    0.733208    0.245115
     12          6           0       -3.676783    2.115598   -0.353960
     13          6           0       -3.249670    3.252585    0.574818
     14          1           0       -3.951687    0.648269    1.200651
     15          1           0       -2.346293    0.637021    0.476976
     16          1           0       -4.745803    2.208435   -0.584600
     17          1           0       -3.141722    2.197402   -1.308755
     18          1           0       -2.179337    3.188063    0.795783
     19          1           0       -3.792533    3.199159    1.524053
     20          1           0       -3.445172    4.231847    0.126840
     21          6           0        0.789461   -0.996664    1.361671
     22          6           0        1.894828   -1.831063    1.165547
     23          6           0        3.032659   -1.358635    0.504714
     24          6           0        3.030963   -0.040499    0.051058
     25          6           0        1.945375    0.815278    0.231157
     26          6           0        0.818212    0.321519    0.894673
     27          1           0       -0.090290   -1.371943    1.876064
     28          1           0        1.875306   -2.855226    1.527149
     29          1           0        3.902264   -1.983030    0.339377
     30          1           0        1.994406    1.831538   -0.140635
     31          1           0       -0.038776    0.971786    1.045571
     32          7           0        4.229887    0.470931   -0.649956
     33          8           0        4.203429    1.636157   -1.040063
     34          8           0        5.173360   -0.303123   -0.796031
 ---------------------------------------------------------------------

 SCF Done:  E(RHF) =  -669.535539109     A.U. after   15 cycles
 E2 =    -0.2091965652D+01 EUMP2 =    -0.67162750476109D+03

 The electronic state is 1-A.
 Alpha  occ. eigenvalues --  -20.60776 -20.60771 -15.85830 -11.31207 -11.27773
 Alpha  occ. eigenvalues --  -11.27769 -11.27510 -11.26787 -11.26770 -11.22449
 Alpha  occ. eigenvalues --  -11.22412 -11.22348 -11.22159 -11.21906 -11.21732
 Alpha  occ. eigenvalues --   -1.59851  -1.39405  -1.19378  -1.09283  -1.08768
 Alpha  occ. eigenvalues --   -1.04782  -1.04332  -0.96774  -0.95602  -0.87787
 Alpha  occ. eigenvalues --   -0.86182  -0.82435  -0.80398  -0.79128  -0.77480
 Alpha  occ. eigenvalues --   -0.72048  -0.71174  -0.70478  -0.65970  -0.65027
 Alpha  occ. eigenvalues --   -0.64754  -0.62157  -0.61699  -0.60143  -0.58391
 Alpha  occ. eigenvalues --   -0.56069  -0.55272  -0.53444  -0.53216  -0.53104
 Alpha  occ. eigenvalues --   -0.52877  -0.50713  -0.48828  -0.48802  -0.48693
 Alpha  occ. eigenvalues --   -0.47426  -0.46650  -0.46549  -0.44808  -0.44596
 Alpha  occ. eigenvalues --   -0.37348  -0.36380
 Alpha virt. eigenvalues --    0.05032   0.11168   0.16453   0.18875   0.22521
 Alpha virt. eigenvalues --    0.22823   0.25061   0.26109   0.26534   0.27742
 Alpha virt. eigenvalues --    0.29378   0.30488   0.31088   0.31312   0.32213

 Mulliken charges:
               1
     1  C   -0.298126
     2  C   -0.301637
     3  C   -0.476049
     4  H    0.153145
     5  H    0.153224
     6  H    0.151785
     7  H    0.146537
     8  H    0.158075
     9  H    0.157643
    10  H    0.160411
    11  C   -0.302783
    12  C   -0.300902
    13  C   -0.476090
    14  H    0.150831
    15  H    0.141763
    16  H    0.155944
    17  H    0.154811
    18  H    0.148097
    19  H    0.157123
    20  H    0.165440
    21  C   -0.173788
    22  C   -0.218671
    23  C   -0.170965
    24  C    0.158878
    25  C   -0.171873
    26  C   -0.223856
    27  H    0.228233
    28  H    0.223672
    29  H    0.275709
    30  H    0.275805
    31  H    0.230283
    32  N    0.487998
    33  O   -0.460316
    34  O   -0.460350
 Sum of Mulliken charges =  -0.00000

 Dipole moment (field-independent basis, Debye):
    X=             -4.4045    Y=             -1.7911    Z=              2.3771  Tot=              5.3158
 Quadrupole moment (field-independent basis, Debye-Ang):
   XX=           -118.2568   YY=            -91.3259   ZZ=            -95.3242
   XY=             -8.0476   XZ=              7.3802   YZ=             -1.3255

 Normal termination of Gaussian 16 at Thu May  6 04:08:48 2021.
