 Gaussian 16, Revision A.03,
 Gaussian 16:  EM64L-G16RevA.03 25-Dec-2016

 -------------
 #p 6-31g* mp2
 -------------

 ------------------------------------------------------
 Input file generated by CHIRIPA (05-May-2021 14:53:17)
 ------------------------------------------------------
 Symbolic Z-matrix:
 Charge =  0 Multiplicity = 1

                         Standard orientation:
 ---------------------------------------------------------------------
 Center     Atomic      Atomic             Coordinates (Angstroms)
 Number     Number       Type             X           Y           Z
 ---------------------------------------------------------------------
      1          6           0        4.451643   -0.294990    0.143536
      2          6           0        5.628673   -0.928594   -0.598847
      3          6           0        6.169353   -2.174214    0.103926
      4          1           0        4.766843   -0.034676    1.163256
      5          1           0        3.648296   -1.037814    0.244732
      6          1           0        6.429019   -0.184374   -0.699830
      7          1           0        5.310689   -1.187256   -1.616981
      8          1           0        5.388561   -2.936654    0.191393
      9          1           0        6.513245   -1.928074    1.113755
     10          1           0        7.010237   -2.611019   -0.443773
     11          6           0        3.900144    0.951251   -0.546725
     12          6           0        2.723115    1.584855    0.195658
     13          6           0        2.182435    2.830475   -0.507116
     14          1           0        4.703492    1.694075   -0.647921
     15          1           0        3.584944    0.690937   -1.566446
     16          1           0        3.041099    1.843516    1.213792
     17          1           0        1.922769    0.840635    0.296641
     18          1           0        1.838543    2.584335   -1.516945
     19          1           0        2.963227    3.592914   -0.594583
     20          1           0        1.341550    3.267280    0.040583
     21          6           0       -0.932932   -0.117172    1.116688
     22          6           0       -1.426492   -1.340517    0.651559
     23          6           0       -2.715711   -1.429374    0.118113
     24          6           0       -3.487623   -0.269807    0.064765
     25          6           0       -3.024198    0.963568    0.520081
     26          6           0       -1.731952    1.028946    1.049583
     27          1           0        0.069741   -0.057264    1.529549
     28          1           0       -0.808198   -2.232241    0.702425
     29          1           0       -3.122799   -2.363630   -0.249125
     30          1           0       -3.664101    1.835269    0.456209
     31          1           0       -1.351266    1.980355    1.410059
     32          7           0       -4.854065   -0.351449   -0.497883
     33          8           0       -5.514232    0.684664   -0.533766
     34          8           0       -5.239040   -1.450005   -0.892349
 ---------------------------------------------------------------------

 SCF Done:  E(RHF) =  -669.535471441     A.U. after   15 cycles
 E2 =    -0.2091474854D+01 EUMP2 =    -0.67162694629435D+03

 The electronic state is 1-A.
 Alpha  occ. eigenvalues --  -20.60763 -20.60758 -15.85817 -11.31189 -11.27757
 Alpha  occ. eigenvalues --  -11.27751 -11.27465 -11.26774 -11.26764 -11.22615
 Alpha  occ. eigenvalues --  -11.22240 -11.22196 -11.22139 -11.21944 -11.21637
 Alpha  occ. eigenvalues --   -1.59838  -1.39392  -1.19360  -1.09233  -1.08752
 Alpha  occ. eigenvalues --   -1.04763  -1.04310  -0.96734  -0.95587  -0.87750
 Alpha  occ. eigenvalues --   -0.86158  -0.82423  -0.80399  -0.79051  -0.77466
 Alpha  occ. eigenvalues --   -0.72034  -0.71162  -0.70481  -0.65857  -0.65010
 Alpha  occ. eigenvalues --   -0.64767  -0.62113  -0.61700  -0.60128  -0.58361
 Alpha  occ. eigenvalues --   -0.56009  -0.55276  -0.53440  -0.53160  -0.53085
 Alpha  occ. eigenvalues --   -0.52846  -0.50661  -0.48810  -0.48789  -0.48677
 Alpha  occ. eigenvalues --   -0.47415  -0.46577  -0.46495  -0.44796  -0.44565
 Alpha  occ. eigenvalues --   -0.37320  -0.36367
 Alpha virt. eigenvalues --    0.05032   0.11258   0.16411   0.19948   0.22453
 Alpha virt. eigenvalues --    0.23699   0.25242   0.26067   0.26271   0.28043
 Alpha virt. eigenvalues --    0.29035   0.29812   0.30911   0.31601   0.32218

 Mulliken charges:
               1
     1  C   -0.298002
     2  C   -0.300275
     3  C   -0.475994
     4  H    0.150022
     5  H    0.144390
     6  H    0.153917
     7  H    0.153519
     8  H    0.154192
     9  H    0.155686
    10  H    0.162687
    11  C   -0.298159
    12  C   -0.305849
    13  C   -0.474372
    14  H    0.152773
    15  H    0.152662
    16  H    0.151485
    17  H    0.146302
    18  H    0.160124
    19  H    0.159133
    20  H    0.154691
    21  C   -0.171859
    22  C   -0.219887
    23  C   -0.170917
    24  C    0.158710
    25  C   -0.170978
    26  C   -0.219711
    27  H    0.229890
    28  H    0.223250
    29  H    0.275542
    30  H    0.275670
    31  H    0.224119
    32  N    0.488055
    33  O   -0.460361
    34  O   -0.460455
 Sum of Mulliken charges =  -0.00000

 Dipole moment (field-independent basis, Debye):
    X=              4.9815    Y=              0.3205    Z=              1.9011  Tot=              5.3415
 Quadrupole moment (field-independent basis, Debye-Ang):
   XX=           -128.0114   YY=            -90.5007   ZZ=            -95.0149
   XY=             -2.1100   XZ=             -6.8662   YZ=              0.9858

 Normal termination of Gaussian 16 at Wed May  5 18:45:44 2021.
