 Gaussian 16, Revision A.03,
 Gaussian 16:  EM64L-G16RevA.03 25-Dec-2016

 -------------
 #p 6-31g* mp2
 -------------

 ------------------------------------------------------
 Input file generated by CHIRIPA (05-May-2021 14:51:11)
 ------------------------------------------------------
 Symbolic Z-matrix:
 Charge =  0 Multiplicity = 1

                         Standard orientation:
 ---------------------------------------------------------------------
 Center     Atomic      Atomic             Coordinates (Angstroms)
 Number     Number       Type             X           Y           Z
 ---------------------------------------------------------------------
      1          6           0        4.514456   -0.489270    0.190117
      2          6           0        5.727884    0.193410   -0.441964
      3          6           0        7.018107   -0.606341   -0.258886
      4          1           0        4.704191   -0.641652    1.261437
      5          1           0        4.393412   -1.488314   -0.251079
      6          1           0        5.845781    1.191409   -0.000700
      7          1           0        5.535161    0.344358   -1.511865
      8          1           0        6.925167   -1.597218   -0.715096
      9          1           0        7.237552   -0.745354    0.804655
     10          1           0        7.872827   -0.100141   -0.718314
     11          6           0        3.217074    0.298138    0.015430
     12          6           0        2.003646   -0.384541    0.647511
     13          6           0        0.713423    0.415210    0.464433
     14          1           0        3.338117    1.297183    0.456626
     15          1           0        3.027339    0.450521   -1.055890
     16          1           0        2.196369   -0.535489    1.717412
     17          1           0        1.885749   -1.382540    0.206247
     18          1           0        0.493977    0.554223   -0.599108
     19          1           0        0.806362    1.406086    0.920643
     20          1           0       -0.141297   -0.090991    0.923861
     21          6           0       -4.019108    0.827445    0.053014
     22          6           0       -2.884248    1.779002   -0.327270
     23          6           0       -3.205961    3.239593   -0.009514
     24          1           0       -4.933375    1.126807   -0.477498
     25          1           0       -4.231878    0.931962    1.125955
     26          1           0       -2.672749    1.671719   -1.398893
     27          1           0       -1.972528    1.477224    0.204062
     28          1           0       -3.396320    3.368060    1.060934
     29          1           0       -4.100519    3.563660   -0.551128
     30          1           0       -2.381204    3.902404   -0.289371
     31          6           0       -3.712422   -0.636314   -0.258562
     32          6           0       -4.847282   -1.587870    0.121723
     33          6           0       -4.525569   -3.048462   -0.196032
     34          1           0       -3.499651   -0.740831   -1.331501
     35          1           0       -2.798155   -0.935676    0.271950
     36          1           0       -5.759001   -1.286093   -0.409609
     37          1           0       -5.058781   -1.480589    1.193345
     38          1           0       -3.631011   -3.372529    0.345581
     39          1           0       -4.335208   -3.176929   -1.266481
     40          1           0       -5.350325   -3.711272    0.083824
 ---------------------------------------------------------------------

 SCF Done:  E(RHF) =  -470.732952650     A.U. after   11 cycles
 E2 =    -0.1582974573D+01 EUMP2 =    -0.47231592722311D+03

 The electronic state is 1-A.
 Alpha  occ. eigenvalues --  -11.21622 -11.21613 -11.21572 -11.21423 -11.21416
 Alpha  occ. eigenvalues --  -11.21363 -11.21348 -11.21276 -11.21113 -11.21080
 Alpha  occ. eigenvalues --  -11.21054 -11.20975  -1.08452  -1.08360  -1.03563
 Alpha  occ. eigenvalues --   -1.03449  -0.96013  -0.95915  -0.87053  -0.86917
 Alpha  occ. eigenvalues --   -0.79705  -0.79453  -0.78282  -0.78139  -0.65078
 Alpha  occ. eigenvalues --   -0.65004  -0.60948  -0.60868  -0.59413  -0.59250
 Alpha  occ. eigenvalues --   -0.57646  -0.57497  -0.55294  -0.55206  -0.52803
 Alpha  occ. eigenvalues --   -0.52568  -0.52448  -0.52319  -0.49947  -0.49857
 Alpha  occ. eigenvalues --   -0.48003  -0.47768  -0.46650  -0.46553  -0.45862
 Alpha  occ. eigenvalues --   -0.45732  -0.45666  -0.45621  -0.43755  -0.43672
 Alpha virt. eigenvalues --    0.21677   0.23000   0.24025   0.24374   0.25682
 Alpha virt. eigenvalues --    0.26539   0.26927   0.27400   0.27929   0.29137
 Alpha virt. eigenvalues --    0.30699   0.31035   0.31641   0.31866   0.32282

 Mulliken charges:
               1
     1  C   -0.298322
     2  C   -0.299625
     3  C   -0.475715
     4  H    0.149643
     5  H    0.149606
     6  H    0.151937
     7  H    0.151983
     8  H    0.155217
     9  H    0.155181
    10  H    0.160299
    11  C   -0.298609
    12  C   -0.300605
    13  C   -0.478834
    14  H    0.149528
    15  H    0.149799
    16  H    0.151744
    17  H    0.152211
    18  H    0.157850
    19  H    0.155155
    20  H    0.161081
    21  C   -0.297667
    22  C   -0.309952
    23  C   -0.475114
    24  H    0.149134
    25  H    0.148765
    26  H    0.150328
    27  H    0.167398
    28  H    0.154476
    29  H    0.154473
    30  H    0.159801
    31  C   -0.300459
    32  C   -0.299535
    33  C   -0.475618
    34  H    0.149358
    35  H    0.151114
    36  H    0.152019
    37  H    0.151758
    38  H    0.154935
    39  H    0.155098
    40  H    0.160161
 Sum of Mulliken charges =  -0.00000

 Dipole moment (field-independent basis, Debye):
    X=              0.0500    Y=             -0.0049    Z=              0.0009  Tot=              0.0502
 Quadrupole moment (field-independent basis, Debye-Ang):
   XX=            -85.8671   YY=            -86.0692   ZZ=            -83.1637
   XY=              0.6776   XZ=              0.4836   YZ=              0.1953

 Normal termination of Gaussian 16 at Wed May  5 21:28:04 2021.
