 Gaussian 16, Revision A.03,
 Gaussian 16:  EM64L-G16RevA.03 25-Dec-2016

 -------------
 #p 6-31g* mp2
 -------------

 ------------------------------------------------------
 Input file generated by CHIRIPA (05-May-2021 14:51:14)
 ------------------------------------------------------
 Symbolic Z-matrix:
 Charge =  0 Multiplicity = 1

                         Standard orientation:
 ---------------------------------------------------------------------
 Center     Atomic      Atomic             Coordinates (Angstroms)
 Number     Number       Type             X           Y           Z
 ---------------------------------------------------------------------
      1          6           0       -3.922855   -0.680864    0.100967
      2          6           0       -4.486727    0.695710    0.454629
      3          6           0       -5.998574    0.674657    0.681943
      4          1           0       -4.425564   -1.055218   -0.801301
      5          1           0       -4.163401   -1.386378    0.908297
      6          1           0       -4.243990    1.398744   -0.352488
      7          1           0       -3.982481    1.066914    1.356050
      8          1           0       -6.255571   -0.004880    1.500957
      9          1           0       -6.518565    0.328835   -0.217289
     10          1           0       -6.380609    1.668948    0.933526
     11          6           0       -2.412654   -0.676025   -0.129244
     12          6           0       -1.848781   -2.052599   -0.482906
     13          6           0       -0.336935   -2.031545   -0.710220
     14          1           0       -2.172107    0.029490   -0.936574
     15          1           0       -1.909944   -0.301670    0.773024
     16          1           0       -2.353027   -2.423803   -1.384327
     17          1           0       -2.091519   -2.755632    0.324211
     18          1           0        0.183056   -1.685724    0.189012
     19          1           0       -0.079938   -1.352009   -1.529234
     20          1           0        0.045101   -3.025836   -0.961803
     21          6           0        2.672145    1.225338    0.210887
     22          6           0        1.674498    1.566519   -0.896489
     23          6           0        0.689580    2.662291   -0.487813
     24          1           0        2.121276    0.909457    1.107384
     25          1           0        3.226181    2.132871    0.488059
     26          1           0        1.123476    0.658315   -1.172451
     27          1           0        2.227812    1.881442   -1.790515
     28          1           0        1.222743    3.583641   -0.231980
     29          1           0        0.112134    2.353564    0.389595
     30          1           0       -0.014407    2.890442   -1.294169
     31          6           0        3.663364    0.131550   -0.182610
     32          6           0        4.661010   -0.209631    0.924766
     33          6           0        5.645928   -1.305402    0.516090
     34          1           0        3.109326   -0.775983   -0.459782
     35          1           0        4.214232    0.447431   -1.079107
     36          1           0        4.107697   -0.524554    1.818792
     37          1           0        5.212032    0.698574    1.200728
     38          1           0        6.223375   -0.996676   -0.361318
     39          1           0        5.112765   -2.226753    0.260258
     40          1           0        6.349915   -1.533554    1.322446
 ---------------------------------------------------------------------

 SCF Done:  E(RHF) =  -470.733096660     A.U. after   11 cycles
 E2 =    -0.1583583438D+01 EUMP2 =    -0.47231668009846D+03

 The electronic state is 1-A.
 Alpha  occ. eigenvalues --  -11.21682 -11.21619 -11.21549 -11.21455 -11.21448
 Alpha  occ. eigenvalues --  -11.21393 -11.21324 -11.21265 -11.21180 -11.21085
 Alpha  occ. eigenvalues --  -11.21027 -11.20986  -1.08485  -1.08346  -1.03595
 Alpha  occ. eigenvalues --   -1.03445  -0.96043  -0.95905  -0.87071  -0.86914
 Alpha  occ. eigenvalues --   -0.79684  -0.79494  -0.78308  -0.78145  -0.65112
 Alpha  occ. eigenvalues --   -0.64991  -0.61015  -0.60848  -0.59408  -0.59267
 Alpha  occ. eigenvalues --   -0.57656  -0.57512  -0.55363  -0.55166  -0.52733
 Alpha  occ. eigenvalues --   -0.52618  -0.52490  -0.52325  -0.50013  -0.49821
 Alpha  occ. eigenvalues --   -0.48112  -0.47752  -0.46762  -0.46444  -0.45950
 Alpha  occ. eigenvalues --   -0.45770  -0.45669  -0.45394  -0.43839  -0.43706
 Alpha virt. eigenvalues --    0.20640   0.22890   0.23743   0.24916   0.25534
 Alpha virt. eigenvalues --    0.25821   0.26652   0.27675   0.28905   0.29405
 Alpha virt. eigenvalues --    0.30527   0.31309   0.31762   0.31966   0.32278

 Mulliken charges:
               1
     1  C   -0.298399
     2  C   -0.299628
     3  C   -0.475765
     4  H    0.149778
     5  H    0.149590
     6  H    0.152357
     7  H    0.151955
     8  H    0.155146
     9  H    0.155182
    10  H    0.160458
    11  C   -0.299443
    12  C   -0.300051
    13  C   -0.480665
    14  H    0.151049
    15  H    0.149503
    16  H    0.152361
    17  H    0.152189
    18  H    0.156011
    19  H    0.159423
    20  H    0.160909
    21  C   -0.297309
    22  C   -0.308044
    23  C   -0.475238
    24  H    0.148505
    25  H    0.149125
    26  H    0.161294
    27  H    0.150771
    28  H    0.154503
    29  H    0.155811
    30  H    0.159045
    31  C   -0.300712
    32  C   -0.299423
    33  C   -0.475682
    34  H    0.152569
    35  H    0.149306
    36  H    0.151441
    37  H    0.151729
    38  H    0.155072
    39  H    0.155306
    40  H    0.159969
 Sum of Mulliken charges =  -0.00000

 Dipole moment (field-independent basis, Debye):
    X=             -0.0543    Y=             -0.0448    Z=             -0.0179  Tot=              0.0726
 Quadrupole moment (field-independent basis, Debye-Ang):
   XX=            -86.2188   YY=            -84.9501   ZZ=            -83.7176
   XY=              1.1472   XZ=              0.2393   YZ=             -0.5497

 Normal termination of Gaussian 16 at Wed May  5 15:24:07 2021.
