 Gaussian 16, Revision A.03,
 Gaussian 16:  EM64L-G16RevA.03 25-Dec-2016

 -------------
 #p 6-31g* mp2
 -------------

 ------------------------------------------------------
 Input file generated by CHIRIPA (05-May-2021 14:55:20)
 ------------------------------------------------------
 Symbolic Z-matrix:
 Charge =  0 Multiplicity = 1

                         Standard orientation:
 ---------------------------------------------------------------------
 Center     Atomic      Atomic             Coordinates (Angstroms)
 Number     Number       Type             X           Y           Z
 ---------------------------------------------------------------------
      1          6           0        1.957746    1.649886    0.529442
      2          6           0        3.088346    2.195936   -0.087076
      3          6           0        4.186493    1.388864   -0.398937
      4          6           0        4.119813    0.033757   -0.078736
      5          6           0        3.007652   -0.539861    0.535553
      6          6           0        1.921072    0.286135    0.838244
      7          1           0        1.109171    2.284189    0.768142
      8          1           0        3.119615    3.254707   -0.328055
      9          1           0        5.074369    1.785501   -0.876192
     10          1           0        3.005856   -1.598836    0.763558
     11          1           0        1.044354   -0.140669    1.317044
     12          7           0        5.276249   -0.830670   -0.404036
     13          8           0        5.192705   -2.021533   -0.111627
     14          8           0        6.244311   -0.300978   -0.945255
     15          6           0       -4.438879   -0.072557    0.491837
     16          6           0       -3.167235   -0.835802    0.119864
     17          6           0       -1.994676   -0.519126    1.048636
     18          1           0       -4.231616    1.006070    0.468365
     19          1           0       -4.714269   -0.315462    1.527478
     20          1           0       -2.895101   -0.592597   -0.915225
     21          1           0       -3.377601   -1.912732    0.144038
     22          1           0       -2.241691   -0.778630    2.083161
     23          1           0       -1.756449    0.549004    1.017879
     24          1           0       -1.095968   -1.075478    0.764636
     25          6           0       -5.619919   -0.378580   -0.427523
     26          6           0       -6.891564    0.384665   -0.055549
     27          6           0       -8.064122    0.067990   -0.984321
     28          1           0       -5.344528   -0.135674   -1.463164
     29          1           0       -5.827183   -1.457207   -0.404051
     30          1           0       -6.681197    1.461595   -0.079723
     31          1           0       -7.163698    0.141460    0.979540
     32          1           0       -8.302350   -1.000140   -0.953564
     33          1           0       -7.817108    0.327495   -2.018847
     34          1           0       -8.962831    0.624341   -0.700321
 ---------------------------------------------------------------------

 SCF Done:  E(RHF) =  -669.535419706     A.U. after   15 cycles
 E2 =    -0.2090957387D+01 EUMP2 =    -0.67162637709226D+03

 The electronic state is 1-A.
 Alpha  occ. eigenvalues --  -20.60714 -20.60708 -15.85765 -11.31118 -11.27687
 Alpha  occ. eigenvalues --  -11.27667 -11.27416 -11.26706 -11.26620 -11.22427
 Alpha  occ. eigenvalues --  -11.22253 -11.22065 -11.22050 -11.21897 -11.21438
 Alpha  occ. eigenvalues --   -1.59789  -1.39343  -1.19284  -1.09069  -1.08681
 Alpha  occ. eigenvalues --   -1.04686  -1.04211  -0.96694  -0.95520  -0.87731
 Alpha  occ. eigenvalues --   -0.86076  -0.82354  -0.80289  -0.78843  -0.77402
 Alpha  occ. eigenvalues --   -0.71984  -0.71112  -0.70397  -0.65696  -0.64934
 Alpha  occ. eigenvalues --   -0.64712  -0.62080  -0.61594  -0.60059  -0.58273
 Alpha  occ. eigenvalues --   -0.55975  -0.55192  -0.53540  -0.53120  -0.53007
 Alpha  occ. eigenvalues --   -0.52617  -0.50622  -0.48741  -0.48740  -0.48594
 Alpha  occ. eigenvalues --   -0.47291  -0.46398  -0.46293  -0.44752  -0.44450
 Alpha  occ. eigenvalues --   -0.37264  -0.36283
 Alpha virt. eigenvalues --    0.05124   0.11329   0.16595   0.20393   0.22399
 Alpha virt. eigenvalues --    0.23859   0.25773   0.26009   0.26554   0.27461
 Alpha virt. eigenvalues --    0.28830   0.29643   0.31022   0.31470   0.32282

 Mulliken charges:
               1
     1  C   -0.173242
     2  C   -0.218481
     3  C   -0.171350
     4  C    0.158876
     5  C   -0.173006
     6  C   -0.223573
     7  H    0.225344
     8  H    0.222959
     9  H    0.275273
    10  H    0.275248
    11  H    0.234115
    12  N    0.488067
    13  O   -0.460610
    14  O   -0.460700
    15  C   -0.299105
    16  C   -0.299558
    17  C   -0.480776
    18  H    0.148645
    19  H    0.150686
    20  H    0.154768
    21  H    0.155844
    22  H    0.159092
    23  H    0.149518
    24  H    0.157695
    25  C   -0.298950
    26  C   -0.300000
    27  C   -0.476052
    28  H    0.150511
    29  H    0.151250
    30  H    0.151748
    31  H    0.152521
    32  H    0.156109
    33  H    0.155764
    34  H    0.161370
 Sum of Mulliken charges =  -0.00000

 Dipole moment (field-independent basis, Debye):
    X=             -4.3234    Y=              3.0084    Z=              1.1252  Tot=              5.3859
 Quadrupole moment (field-independent basis, Debye-Ang):
   XX=           -127.8346   YY=            -91.0862   ZZ=            -94.9325
   XY=             14.9385   XZ=              3.3450   YZ=             -2.5308

 Normal termination of Gaussian 16 at Thu May  6 12:27:28 2021.
