 Gaussian 16, Revision A.03,
 Gaussian 16:  EM64L-G16RevA.03 25-Dec-2016

 -------------
 #p 6-31g* mp2
 -------------

 ------------------------------------------------------
 Input file generated by CHIRIPA (05-May-2021 14:55:23)
 ------------------------------------------------------
 Symbolic Z-matrix:
 Charge =  0 Multiplicity = 1

                         Standard orientation:
 ---------------------------------------------------------------------
 Center     Atomic      Atomic             Coordinates (Angstroms)
 Number     Number       Type             X           Y           Z
 ---------------------------------------------------------------------
      1          6           0       -1.305588   -2.355508    0.330006
      2          6           0       -1.534437   -1.554535    1.453657
      3          6           0       -2.072864   -0.271951    1.313577
      4          6           0       -2.372076    0.179925    0.029221
      5          6           0       -2.155581   -0.594223   -1.109688
      6          6           0       -1.616342   -1.873645   -0.945831
      7          1           0       -0.887009   -3.350622    0.448059
      8          1           0       -1.294063   -1.926147    2.445711
      9          1           0       -2.260190    0.369207    2.166362
     10          1           0       -2.405334   -0.196284   -2.085745
     11          1           0       -1.439680   -2.493482   -1.820267
     12          7           0       -2.942514    1.536065   -0.131662
     13          8           0       -3.197563    1.910953   -1.274048
     14          8           0       -3.123774    2.198442    0.887671
     15          6           0        2.906635    0.762018   -0.362173
     16          6           0        3.629796    1.787263    0.511838
     17          6           0        3.602624    3.195411   -0.083289
     18          1           0        3.367881    0.749227   -1.359185
     19          1           0        1.864779    1.081177   -0.503839
     20          1           0        4.669606    1.465553    0.652957
     21          1           0        3.166899    1.797479    1.506945
     22          1           0        2.571332    3.540941   -0.208373
     23          1           0        4.082577    3.207130   -1.067214
     24          1           0        4.125227    3.912297    0.557663
     25          6           0        2.925201   -0.650445    0.219488
     26          6           0        2.202039   -1.675690   -0.654523
     27          6           0        2.229211   -3.083837   -0.059396
     28          1           0        3.967057   -0.969603    0.361154
     29          1           0        2.463955   -0.637653    1.216501
     30          1           0        2.664937   -1.685905   -1.649629
     31          1           0        1.162230   -1.353979   -0.795641
     32          1           0        1.749258   -3.095555    0.924529
     33          1           0        3.260504   -3.429366    0.065689
     34          1           0        1.706609   -3.800724   -0.700349
 ---------------------------------------------------------------------

 SCF Done:  E(RHF) =  -669.534270989     A.U. after   15 cycles
 E2 =    -0.2094231431D+01 EUMP2 =    -0.67162850241943D+03

 The electronic state is 1-A.
 Alpha  occ. eigenvalues --  -20.60846 -20.60840 -15.85902 -11.31290 -11.27879
 Alpha  occ. eigenvalues --  -11.27868 -11.27553 -11.26864 -11.26835 -11.21938
 Alpha  occ. eigenvalues --  -11.21878 -11.21684 -11.21668 -11.21513 -11.21013
 Alpha  occ. eigenvalues --   -1.59922  -1.39474  -1.19479  -1.08892  -1.08652
 Alpha  occ. eigenvalues --   -1.04882  -1.03823  -0.96319  -0.95670  -0.87320
 Alpha  occ. eigenvalues --   -0.86272  -0.82514  -0.79895  -0.78466  -0.77562
 Alpha  occ. eigenvalues --   -0.72117  -0.71249  -0.70573  -0.65341  -0.65117
 Alpha  occ. eigenvalues --   -0.64863  -0.62219  -0.61266  -0.59720  -0.57897
 Alpha  occ. eigenvalues --   -0.55783  -0.55193  -0.53223  -0.52988  -0.52955
 Alpha  occ. eigenvalues --   -0.52711  -0.50216  -0.48877  -0.48871  -0.48198
 Alpha  occ. eigenvalues --   -0.46901  -0.46014  -0.45905  -0.44875  -0.44064
 Alpha  occ. eigenvalues --   -0.37353  -0.36454
 Alpha virt. eigenvalues --    0.04958   0.11074   0.16391   0.20412   0.22883
 Alpha virt. eigenvalues --    0.24311   0.26128   0.26626   0.26753   0.27736
 Alpha virt. eigenvalues --    0.29608   0.30528   0.30750   0.31367   0.32150

 Mulliken charges:
               1
     1  C   -0.166825
     2  C   -0.219923
     3  C   -0.170761
     4  C    0.157873
     5  C   -0.170422
     6  C   -0.222130
     7  H    0.229970
     8  H    0.223894
     9  H    0.276022
    10  H    0.276320
    11  H    0.224890
    12  N    0.488048
    13  O   -0.460055
    14  O   -0.460317
    15  C   -0.299022
    16  C   -0.299740
    17  C   -0.476481
    18  H    0.149757
    19  H    0.151852
    20  H    0.151132
    21  H    0.151702
    22  H    0.159041
    23  H    0.154934
    24  H    0.160775
    25  C   -0.296798
    26  C   -0.308438
    27  C   -0.476796
    28  H    0.149131
    29  H    0.147660
    30  H    0.151413
    31  H    0.163332
    32  H    0.148364
    33  H    0.159928
    34  H    0.151668
 Sum of Mulliken charges =  -0.00000

 Dipole moment (field-independent basis, Debye):
    X=              1.9490    Y=             -4.6902    Z=              0.5504  Tot=              5.1088
 Quadrupole moment (field-independent basis, Debye-Ang):
   XX=           -104.4549   YY=            -98.3169   ZZ=            -89.6956
   XY=             11.8600   XZ=             -1.5152   YZ=              1.1134

 Normal termination of Gaussian 16 at Thu May  6 06:19:51 2021.
