 Gaussian 16, Revision A.03,
 Gaussian 16:  EM64L-G16RevA.03 25-Dec-2016

 -------------
 #p 6-31g* mp2
 -------------

 ------------------------------------------------------
 Input file generated by CHIRIPA (05-May-2021 14:55:25)
 ------------------------------------------------------
 Symbolic Z-matrix:
 Charge =  0 Multiplicity = 1

                         Standard orientation:
 ---------------------------------------------------------------------
 Center     Atomic      Atomic             Coordinates (Angstroms)
 Number     Number       Type             X           Y           Z
 ---------------------------------------------------------------------
      1          6           0        1.314756   -2.022083    1.730199
      2          6           0        0.862989   -0.703187    1.843965
      3          6           0        1.307827    0.278956    0.953986
      4          6           0        2.208498   -0.094473   -0.042323
      5          6           0        2.676995   -1.400009   -0.181518
      6          6           0        2.218724   -2.365678    0.719602
      7          1           0        0.963978   -2.778636    2.425883
      8          1           0        0.160954   -0.433470    2.627829
      9          1           0        0.974311    1.307511    1.019252
     10          1           0        3.376794   -1.638572   -0.973218
     11          1           0        2.571273   -3.389163    0.628860
     12          7           0        2.686539    0.936558   -0.990402
     13          8           0        3.480054    0.581982   -1.859451
     14          8           0        2.258661    2.079734   -0.846504
     15          6           0       -2.199670    0.791616    0.171970
     16          6           0       -2.665681    2.238421    0.338039
     17          6           0       -1.601711    3.132746    0.975174
     18          1           0       -1.920027    0.388068    1.154769
     19          1           0       -1.289322    0.775274   -0.443169
     20          1           0       -3.575661    2.251908    0.951530
     21          1           0       -2.944428    2.638510   -0.645243
     22          1           0       -0.694742    3.149050    0.362196
     23          1           0       -1.329561    2.760253    1.968041
     24          1           0       -1.955855    4.162546    1.084504
     25          6           0       -3.252391   -0.114755   -0.463635
     26          6           0       -2.786380   -1.561558   -0.629703
     27          6           0       -3.850351   -2.455885   -1.266839
     28          1           0       -4.162738   -0.098412    0.151504
     29          1           0       -3.532034    0.288794   -1.446433
     30          1           0       -2.507633   -1.961649    0.353579
     31          1           0       -1.876401   -1.575047   -1.243195
     32          1           0       -4.122500   -2.083392   -2.259706
     33          1           0       -4.757320   -2.472189   -0.653860
     34          1           0       -3.496206   -3.485684   -1.376168
 ---------------------------------------------------------------------

 SCF Done:  E(RHF) =  -669.534599529     A.U. after   15 cycles
 E2 =    -0.2094482497D+01 EUMP2 =    -0.67162908202571D+03

 The electronic state is 1-A.
 Alpha  occ. eigenvalues --  -20.60814 -20.60808 -15.85856 -11.31140 -11.27723
 Alpha  occ. eigenvalues --  -11.27662 -11.27466 -11.26720 -11.26693 -11.21872
 Alpha  occ. eigenvalues --  -11.21811 -11.21676 -11.21610 -11.21320 -11.21315
 Alpha  occ. eigenvalues --   -1.59882  -1.39438  -1.19326  -1.08742  -1.08702
 Alpha  occ. eigenvalues --   -1.04721  -1.03789  -0.96247  -0.95579  -0.87266
 Alpha  occ. eigenvalues --   -0.86126  -0.82422  -0.79861  -0.78600  -0.77415
 Alpha  occ. eigenvalues --   -0.72075  -0.71203  -0.70439  -0.65381  -0.64973
 Alpha  occ. eigenvalues --   -0.64697  -0.62096  -0.61173  -0.59596  -0.57883
 Alpha  occ. eigenvalues --   -0.55532  -0.55230  -0.53196  -0.52933  -0.52839
 Alpha  occ. eigenvalues --   -0.52541  -0.50187  -0.48831  -0.48827  -0.48160
 Alpha  occ. eigenvalues --   -0.46871  -0.46079  -0.45974  -0.44840  -0.44040
 Alpha  occ. eigenvalues --   -0.37304  -0.36208
 Alpha virt. eigenvalues --    0.05053   0.11201   0.16483   0.20107   0.22863
 Alpha virt. eigenvalues --    0.23801   0.25341   0.26341   0.27099   0.28545
 Alpha virt. eigenvalues --    0.29598   0.30318   0.31537   0.31681   0.31940

 Mulliken charges:
               1
     1  C   -0.170863
     2  C   -0.218607
     3  C   -0.170954
     4  C    0.154837
     5  C   -0.170607
     6  C   -0.219086
     7  H    0.225268
     8  H    0.222562
     9  H    0.285443
    10  H    0.275188
    11  H    0.223121
    12  N    0.488507
    13  O   -0.459863
    14  O   -0.463157
    15  C   -0.301467
    16  C   -0.298109
    17  C   -0.488253
    18  H    0.139977
    19  H    0.155963
    20  H    0.150867
    21  H    0.156720
    22  H    0.171480
    23  H    0.144417
    24  H    0.165693
    25  C   -0.298525
    26  C   -0.298588
    27  C   -0.475882
    28  H    0.148650
    29  H    0.152857
    30  H    0.146310
    31  H    0.154836
    32  H    0.157347
    33  H    0.154706
    34  H    0.159210
 Sum of Mulliken charges =  -0.00000

 Dipole moment (field-independent basis, Debye):
    X=             -1.7035    Y=             -3.5488    Z=              3.2084  Tot=              5.0783
 Quadrupole moment (field-independent basis, Debye-Ang):
   XX=           -101.6352   YY=            -92.3169   ZZ=            -94.0088
   XY=            -10.7507   XZ=              5.6610   YZ=              0.8869

 Normal termination of Gaussian 16 at Thu May  6 19:23:36 2021.
