 Gaussian 16, Revision A.03,
 Gaussian 16:  EM64L-G16RevA.03 25-Dec-2016

 -------------
 #p 6-31g* mp2
 -------------

 ------------------------------------------------------
 Input file generated by CHIRIPA (05-May-2021 14:51:13)
 ------------------------------------------------------
 Symbolic Z-matrix:
 Charge =  0 Multiplicity = 1

                         Standard orientation:
 ---------------------------------------------------------------------
 Center     Atomic      Atomic             Coordinates (Angstroms)
 Number     Number       Type             X           Y           Z
 ---------------------------------------------------------------------
      1          6           0        3.633547   -0.522875   -0.197679
      2          6           0        5.089603   -0.938113    0.015539
      3          6           0        5.562314   -1.978805   -0.999989
      4          1           0        2.992540   -1.413094   -0.137975
      5          1           0        3.518818   -0.122727   -1.214592
      6          1           0        5.201847   -1.336077    1.032221
      7          1           0        5.727199   -0.046774   -0.044488
      8          1           0        5.479039   -1.587987   -2.019268
      9          1           0        4.950703   -2.884616   -0.936441
     10          1           0        6.605796   -2.261343   -0.829176
     11          6           0        3.146384    0.517002    0.809821
     12          6           0        1.690327    0.932239    0.596604
     13          6           0        1.217617    1.972932    1.612132
     14          1           0        3.261113    0.116853    1.826735
     15          1           0        3.787391    1.407221    0.750118
     16          1           0        1.052732    0.040901    0.656631
     17          1           0        1.578083    1.330204   -0.420078
     18          1           0        1.829228    2.878743    1.548583
     19          1           0        1.300892    1.582114    2.631410
     20          1           0        0.174135    2.255470    1.441318
     21          6           0       -3.304518    0.728656   -0.528472
     22          6           0       -1.851097    1.108283   -0.813838
     23          6           0       -1.696358    2.563212   -1.257720
     24          1           0       -3.906579    0.904322   -1.430475
     25          1           0       -3.704298    1.394600    0.248761
     26          1           0       -1.453751    0.440925   -1.589316
     27          1           0       -1.252390    0.931512    0.088891
     28          1           0       -2.066745    3.243499   -0.484012
     29          1           0       -2.269251    2.750125   -2.171754
     30          1           0       -0.649499    2.813159   -1.456396
     31          6           0       -3.475412   -0.722783   -0.083671
     32          6           0       -4.928834   -1.102409    0.201695
     33          6           0       -5.083573   -2.557338    0.645577
     34          1           0       -3.075633   -1.388727   -0.860903
     35          1           0       -2.873351   -0.898449    0.818331
     36          1           0       -5.527540   -0.925638   -0.701034
     37          1           0       -5.326178   -0.435052    0.977173
     38          1           0       -4.510680   -2.744251    1.559611
     39          1           0       -4.713185   -3.237624   -0.128131
     40          1           0       -6.130432   -2.807286    0.844252
 ---------------------------------------------------------------------

 SCF Done:  E(RHF) =  -470.732411821     A.U. after   11 cycles
 E2 =    -0.1583923299D+01 EUMP2 =    -0.47231633511949D+03

 The electronic state is 1-A.
 Alpha  occ. eigenvalues --  -11.21600 -11.21594 -11.21584 -11.21498 -11.21401
 Alpha  occ. eigenvalues --  -11.21384 -11.21341 -11.21319 -11.21071 -11.21069
 Alpha  occ. eigenvalues --  -11.21059 -11.21058  -1.08458  -1.08381  -1.03615
 Alpha  occ. eigenvalues --   -1.03434  -0.96047  -0.95907  -0.87005  -0.86974
 Alpha  occ. eigenvalues --   -0.79700  -0.79489  -0.78343  -0.78111  -0.65095
 Alpha  occ. eigenvalues --   -0.65033  -0.61053  -0.60924  -0.59597  -0.59101
 Alpha  occ. eigenvalues --   -0.57819  -0.57269  -0.55273  -0.55240  -0.52703
 Alpha  occ. eigenvalues --   -0.52619  -0.52406  -0.52381  -0.49920  -0.49908
 Alpha  occ. eigenvalues --   -0.47994  -0.47820  -0.46693  -0.46527  -0.45919
 Alpha  occ. eigenvalues --   -0.45729  -0.45686  -0.45516  -0.43788  -0.43759
 Alpha virt. eigenvalues --    0.21022   0.23124   0.23421   0.25204   0.25883
 Alpha virt. eigenvalues --    0.26605   0.26658   0.27561   0.27842   0.29190
 Alpha virt. eigenvalues --    0.29713   0.31188   0.31437   0.31758   0.32668

 Mulliken charges:
               1
     1  C   -0.298282
     2  C   -0.299650
     3  C   -0.475700
     4  H    0.149792
     5  H    0.149404
     6  H    0.151917
     7  H    0.151927
     8  H    0.155150
     9  H    0.155192
    10  H    0.160249
    11  C   -0.298019
    12  C   -0.301926
    13  C   -0.481401
    14  H    0.149412
    15  H    0.149503
    16  H    0.152787
    17  H    0.154060
    18  H    0.155578
    19  H    0.154811
    20  H    0.165122
    21  C   -0.297638
    22  C   -0.307337
    23  C   -0.477902
    24  H    0.149330
    25  H    0.148925
    26  H    0.151716
    27  H    0.161911
    28  H    0.154509
    29  H    0.155318
    30  H    0.161788
    31  C   -0.298250
    32  C   -0.299572
    33  C   -0.475702
    34  H    0.149491
    35  H    0.149121
    36  H    0.152005
    37  H    0.151926
    38  H    0.155046
    39  H    0.155136
    40  H    0.160252
 Sum of Mulliken charges =  -0.00000

 Dipole moment (field-independent basis, Debye):
    X=              0.0156    Y=             -0.0015    Z=             -0.0013  Tot=              0.0157
 Quadrupole moment (field-independent basis, Debye-Ang):
   XX=            -85.1566   YY=            -85.7917   ZZ=            -84.0066
   XY=              0.3670   XZ=              0.2944   YZ=             -0.3523

 Normal termination of Gaussian 16 at Thu May  6 02:24:22 2021.
