 Gaussian 16, Revision A.03,
 Gaussian 16:  EM64L-G16RevA.03 25-Dec-2016

 -------------
 #p 6-31g* mp2
 -------------

 ------------------------------------------------------
 Input file generated by CHIRIPA (05-May-2021 14:55:20)
 ------------------------------------------------------
 Symbolic Z-matrix:
 Charge =  0 Multiplicity = 1

                         Standard orientation:
 ---------------------------------------------------------------------
 Center     Atomic      Atomic             Coordinates (Angstroms)
 Number     Number       Type             X           Y           Z
 ---------------------------------------------------------------------
      1          6           0       -2.130996   -2.280970   -1.034330
      2          6           0       -3.307926   -1.985445   -0.338613
      3          6           0       -3.595955   -0.671878    0.043655
      4          6           0       -2.680725    0.326055   -0.287665
      5          6           0       -1.499670    0.063345   -0.980039
      6          6           0       -1.232209   -1.257436   -1.352263
      7          1           0       -1.915237   -3.304182   -1.327384
      8          1           0       -4.007762   -2.778315   -0.090356
      9          1           0       -4.499638   -0.415097    0.582950
     10          1           0       -0.821283    0.875001   -1.213328
     11          1           0       -0.317408   -1.484009   -1.892493
     12          7           0       -2.974761    1.720488    0.111708
     13          8           0       -2.152195    2.581700   -0.192161
     14          8           0       -4.022226    1.925830    0.721044
     15          6           0        3.708333    0.272831   -0.105804
     16          6           0        5.229695    0.120350   -0.119683
     17          6           0        5.893589    0.918508   -1.242171
     18          1           0        3.304978   -0.050044   -1.075341
     19          1           0        3.454382    1.336674   -0.000254
     20          1           0        5.480699   -0.943029   -0.223785
     21          1           0        5.629457    0.443446    0.850067
     22          1           0        5.672274    1.985732   -1.138951
     23          1           0        5.522671    0.591379   -2.218905
     24          1           0        6.981050    0.795158   -1.233555
     25          6           0        3.030264   -0.519194    1.010729
     26          6           0        1.508902   -0.366713    1.024607
     27          6           0        0.845007   -1.164872    2.147096
     28          1           0        3.284215   -1.583038    0.905179
     29          1           0        3.433618   -0.196318    1.980265
     30          1           0        1.109139   -0.689808    0.054858
     31          1           0        1.257897    0.696666    1.128709
     32          1           0        1.215925   -0.837743    3.123829
     33          1           0        1.066322   -2.232095    2.043877
     34          1           0       -0.242453   -1.041522    2.138479
 ---------------------------------------------------------------------

 SCF Done:  E(RHF) =  -669.534187072     A.U. after   15 cycles
 E2 =    -0.2093758323D+01 EUMP2 =    -0.67162794539515D+03

 The electronic state is 1-A.
 Alpha  occ. eigenvalues --  -20.60793 -20.60787 -15.85847 -11.31216 -11.27787
 Alpha  occ. eigenvalues --  -11.27773 -11.27534 -11.26797 -11.26785 -11.21834
 Alpha  occ. eigenvalues --  -11.21806 -11.21686 -11.21606 -11.21262 -11.21242
 Alpha  occ. eigenvalues --   -1.59868  -1.39421  -1.19402  -1.08793  -1.08687
 Alpha  occ. eigenvalues --   -1.04821  -1.03744  -0.96196  -0.95621  -0.87213
 Alpha  occ. eigenvalues --   -0.86199  -0.82474  -0.79843  -0.78541  -0.77480
 Alpha  occ. eigenvalues --   -0.72064  -0.71192  -0.70496  -0.65370  -0.65039
 Alpha  occ. eigenvalues --   -0.64796  -0.62180  -0.61145  -0.59583  -0.57844
 Alpha  occ. eigenvalues --   -0.55499  -0.55299  -0.53211  -0.52899  -0.52780
 Alpha  occ. eigenvalues --   -0.52568  -0.50143  -0.48825  -0.48818  -0.48147
 Alpha  occ. eigenvalues --   -0.46872  -0.46072  -0.45974  -0.44822  -0.44014
 Alpha  occ. eigenvalues --   -0.37378  -0.36281
 Alpha virt. eigenvalues --    0.05032   0.11171   0.16412   0.20627   0.22823
 Alpha virt. eigenvalues --    0.24160   0.25523   0.26426   0.27648   0.28142
 Alpha virt. eigenvalues --    0.29217   0.30227   0.31464   0.31514   0.32140

 Mulliken charges:
               1
     1  C   -0.171592
     2  C   -0.218731
     3  C   -0.171742
     4  C    0.156380
     5  C   -0.164941
     6  C   -0.217804
     7  H    0.225742
     8  H    0.223627
     9  H    0.275765
    10  H    0.277264
    11  H    0.223144
    12  N    0.488203
    13  O   -0.460460
    14  O   -0.460333
    15  C   -0.298016
    16  C   -0.299623
    17  C   -0.475900
    18  H    0.142501
    19  H    0.153322
    20  H    0.150924
    21  H    0.153844
    22  H    0.157126
    23  H    0.153665
    24  H    0.161065
    25  C   -0.297854
    26  C   -0.303514
    27  C   -0.475795
    28  H    0.147096
    29  H    0.152123
    30  H    0.144773
    31  H    0.157808
    32  H    0.157522
    33  H    0.151092
    34  H    0.163319
 Sum of Mulliken charges =  -0.00000

 Dipole moment (field-independent basis, Debye):
    X=              1.0161    Y=             -4.8568    Z=             -1.3623  Tot=              5.1455
 Quadrupole moment (field-independent basis, Debye-Ang):
   XX=            -97.1394   YY=            -97.7480   ZZ=            -93.9021
   XY=             15.1347   XZ=              2.0921   YZ=              1.2495

 Normal termination of Gaussian 16 at Thu May  6 07:43:43 2021.
