 Gaussian 16, Revision A.03,
 Gaussian 16:  EM64L-G16RevA.03 25-Dec-2016

 -------------
 #p 6-31g* mp2
 -------------

 ------------------------------------------------------
 Input file generated by CHIRIPA (05-May-2021 14:57:22)
 ------------------------------------------------------
 Symbolic Z-matrix:
 Charge =  0 Multiplicity = 1

                         Standard orientation:
 ---------------------------------------------------------------------
 Center     Atomic      Atomic             Coordinates (Angstroms)
 Number     Number       Type             X           Y           Z
 ---------------------------------------------------------------------
      1          6           0        1.414435    0.394232    0.428286
      2          6           0        1.995695   -0.796239    0.877102
      3          6           0        3.340362   -1.073392    0.613272
      4          6           0        4.077689   -0.133594   -0.105351
      5          6           0        3.527183    1.061437   -0.565931
      6          6           0        2.180683    1.317643   -0.290531
      7          1           0        0.369154    0.601395    0.637729
      8          1           0        1.403031   -1.515202    1.435570
      9          1           0        3.815606   -1.987131    0.948895
     10          1           0        4.143421    1.758857   -1.120254
     11          1           0        1.731916    2.243005   -0.640328
     12          7           0        5.502198   -0.415915   -0.390780
     13          8           0        6.130305    0.428323   -1.025903
     14          8           0        5.963647   -1.476091    0.026027
     15          6           0       -2.180385    1.512867    1.310909
     16          6           0       -2.602685    0.293131    1.849819
     17          6           0       -3.523482   -0.505052    1.164556
     18          6           0       -4.003640   -0.050777   -0.062788
     19          6           0       -3.602151    1.159608   -0.625872
     20          6           0       -2.680583    1.941458    0.076960
     21          1           0       -1.464788    2.126571    1.850061
     22          1           0       -2.215908   -0.042240    2.807929
     23          1           0       -3.867408   -1.453628    1.558684
     24          1           0       -4.005450    1.467355   -1.582982
     25          1           0       -2.354399    2.888271   -0.343984
     26          7           0       -4.978854   -0.887133   -0.797544
     27          8           0       -5.386897   -0.464485   -1.877132
     28          8           0       -5.316719   -1.949478   -0.279947
 ---------------------------------------------------------------------

 SCF Done:  E(RHF) =  -868.336756973     A.U. after   16 cycles
 E2 =    -0.2601132631D+01 EUMP2 =    -0.87093788960333D+03

 The electronic state is 1-A.
 Alpha  occ. eigenvalues --  -20.61612 -20.61606 -20.61046 -20.61040 -15.86672
 Alpha  occ. eigenvalues --  -15.86103 -11.32303 -11.31534 -11.28880 -11.28865
 Alpha  occ. eigenvalues --  -11.28723 -11.28136 -11.28114 -11.28008 -11.27989
 Alpha  occ. eigenvalues --  -11.27796 -11.27181 -11.27138  -1.60681  -1.60120
 Alpha  occ. eigenvalues --   -1.40226  -1.39672  -1.20517  -1.19721  -1.09895
 Alpha  occ. eigenvalues --   -1.09101  -1.05933  -1.05143  -0.96673  -0.95920
 Alpha  occ. eigenvalues --   -0.87328  -0.86540  -0.83476  -0.82759  -0.78452
 Alpha  occ. eigenvalues --   -0.77798  -0.72885  -0.72319  -0.72007  -0.71713
 Alpha  occ. eigenvalues --   -0.71445  -0.70778  -0.66160  -0.65927  -0.65374
 Alpha  occ. eigenvalues --   -0.65168  -0.63247  -0.62495  -0.56532  -0.55781
 Alpha  occ. eigenvalues --   -0.54077  -0.54013  -0.53462  -0.53242  -0.49665
 Alpha  occ. eigenvalues --   -0.49624  -0.49085  -0.49070  -0.45572  -0.45062
 Alpha  occ. eigenvalues --   -0.38534  -0.37710  -0.37537  -0.36754
 Alpha virt. eigenvalues --    0.04009   0.04748   0.10050   0.10892   0.15334
 Alpha virt. eigenvalues --    0.16202   0.19733   0.21726   0.25741   0.26668
 Alpha virt. eigenvalues --    0.27313   0.29077   0.29636   0.31206   0.31672

 Mulliken charges:
               1
     1  C   -0.178347
     2  C   -0.222276
     3  C   -0.169722
     4  C    0.158263
     5  C   -0.169764
     6  C   -0.222440
     7  H    0.233688
     8  H    0.222367
     9  H    0.276661
    10  H    0.276138
    11  H    0.218957
    12  N    0.487988
    13  O   -0.459889
    14  O   -0.459422
    15  C   -0.187160
    16  C   -0.221281
    17  C   -0.169699
    18  C    0.160606
    19  C   -0.169023
    20  C   -0.218664
    21  H    0.228641
    22  H    0.226310
    23  H    0.279179
    24  H    0.279707
    25  H    0.225715
    26  N    0.487864
    27  O   -0.456943
    28  O   -0.457452
 Sum of Mulliken charges =  -0.00000

 Dipole moment (field-independent basis, Debye):
    X=             -1.9029    Y=              3.8533    Z=              3.5158  Tot=              5.5525
 Quadrupole moment (field-independent basis, Debye-Ang):
   XX=           -173.1102   YY=            -99.7069   ZZ=           -102.3841
   XY=             -7.0494   XZ=             -5.9411   YZ=             -5.9947

 Normal termination of Gaussian 16 at Thu May  6 22:38:02 2021.
