 Gaussian 16, Revision A.03,
 Gaussian 16:  EM64L-G16RevA.03 25-Dec-2016

 -------------
 #p 6-31g* mp2
 -------------

 ------------------------------------------------------
 Input file generated by CHIRIPA (05-May-2021 14:53:17)
 ------------------------------------------------------
 Symbolic Z-matrix:
 Charge =  0 Multiplicity = 1

                         Standard orientation:
 ---------------------------------------------------------------------
 Center     Atomic      Atomic             Coordinates (Angstroms)
 Number     Number       Type             X           Y           Z
 ---------------------------------------------------------------------
      1          6           0        3.961570   -0.200941   -0.062464
      2          6           0        3.229398   -1.539290    0.041129
      3          6           0        4.182615   -2.734601    0.061155
      4          1           0        4.576887   -0.196338   -0.972578
      5          1           0        4.655145   -0.103858    0.784250
      6          1           0        2.536403   -1.633209   -0.804775
      7          1           0        2.615604   -1.540634    0.951003
      8          1           0        4.865928   -2.668172    0.913957
      9          1           0        4.786278   -2.761273   -0.851797
     10          1           0        3.638131   -3.681095    0.135621
     11          6           0        3.022111    1.003508   -0.083592
     12          6           0        3.754283    2.341857   -0.187184
     13          6           0        2.801066    3.537169   -0.207210
     14          1           0        2.328536    0.906426   -0.930305
     15          1           0        2.406794    0.998905    0.826523
     16          1           0        4.368077    2.343201   -1.097059
     17          1           0        4.447278    2.435776    0.658720
     18          1           0        2.197403    3.563840    0.705742
     19          1           0        2.117753    3.470739   -1.060012
     20          1           0        3.345551    4.483663   -0.281676
     21          6           0       -0.560551   -1.589528    0.256666
     22          6           0       -1.289863   -1.630829   -0.936197
     23          6           0       -2.492082   -0.927720   -1.058070
     24          6           0       -2.937541   -0.190142    0.037755
     25          6           0       -2.233592   -0.129245    1.239436
     26          6           0       -1.033909   -0.840189    1.338767
     27          1           0        0.372377   -2.138763    0.342584
     28          1           0       -0.924666   -2.211943   -1.778208
     29          1           0       -3.076705   -0.942270   -1.969894
     30          1           0       -2.623132    0.458816    2.061544
     31          1           0       -0.469614   -0.806287    2.266380
     32          7           0       -4.208936    0.558356   -0.079335
     33          8           0       -4.579862    1.200753    0.900653
     34          8           0       -4.810453    0.488458   -1.148880
 ---------------------------------------------------------------------

 SCF Done:  E(RHF) =  -669.534957643     A.U. after   15 cycles
 E2 =    -0.2092173370D+01 EUMP2 =    -0.67162713101382D+03

 The electronic state is 1-A.
 Alpha  occ. eigenvalues --  -20.60703 -20.60698 -15.85758 -11.31099 -11.27688
 Alpha  occ. eigenvalues --  -11.27685 -11.27319 -11.26675 -11.26663 -11.22850
 Alpha  occ. eigenvalues --  -11.22254 -11.22115 -11.22104 -11.22037 -11.21429
 Alpha  occ. eigenvalues --   -1.59780  -1.39334  -1.19275  -1.09256  -1.08659
 Alpha  occ. eigenvalues --   -1.04682  -1.04330  -0.96725  -0.95505  -0.87746
 Alpha  occ. eigenvalues --   -0.86077  -0.82361  -0.80476  -0.79030  -0.77399
 Alpha  occ. eigenvalues --   -0.71976  -0.71104  -0.70366  -0.65883  -0.64922
 Alpha  occ. eigenvalues --   -0.64694  -0.62039  -0.61717  -0.60166  -0.58358
 Alpha  occ. eigenvalues --   -0.55987  -0.55183  -0.53440  -0.53127  -0.52999
 Alpha  occ. eigenvalues --   -0.52773  -0.50670  -0.48779  -0.48732  -0.48646
 Alpha  occ. eigenvalues --   -0.47509  -0.46538  -0.46452  -0.44745  -0.44561
 Alpha  occ. eigenvalues --   -0.37209  -0.36295
 Alpha virt. eigenvalues --    0.05133   0.11296   0.16587   0.20198   0.22478
 Alpha virt. eigenvalues --    0.23726   0.24771   0.26202   0.26812   0.27756
 Alpha virt. eigenvalues --    0.29250   0.30334   0.30400   0.31560   0.31801

 Mulliken charges:
               1
     1  C   -0.297839
     2  C   -0.304371
     3  C   -0.476344
     4  H    0.152945
     5  H    0.152034
     6  H    0.148874
     7  H    0.144317
     8  H    0.159292
     9  H    0.159668
    10  H    0.158155
    11  C   -0.298665
    12  C   -0.300545
    13  C   -0.475936
    14  H    0.151775
    15  H    0.147244
    16  H    0.153051
    17  H    0.152371
    18  H    0.155585
    19  H    0.157238
    20  H    0.162206
    21  C   -0.171088
    22  C   -0.222304
    23  C   -0.170531
    24  C    0.157872
    25  C   -0.170600
    26  C   -0.221599
    27  H    0.235611
    28  H    0.222634
    29  H    0.275141
    30  H    0.275157
    31  H    0.222115
    32  N    0.488132
    33  O   -0.460772
    34  O   -0.460824
 Sum of Mulliken charges =  -0.00000

 Dipole moment (field-independent basis, Debye):
    X=              4.7016    Y=             -2.5570    Z=              0.3701  Tot=              5.3647
 Quadrupole moment (field-independent basis, Debye-Ang):
   XX=           -121.4934   YY=            -94.6646   ZZ=            -89.3855
   XY=              7.6941   XZ=             -0.5567   YZ=              1.6774

 Normal termination of Gaussian 16 at Wed May  5 22:01:28 2021.
