 Gaussian 16, Revision A.03,
 Gaussian 16:  EM64L-G16RevA.03 25-Dec-2016

 -------------
 #p 6-31g* mp2
 -------------

 ------------------------------------------------------
 Input file generated by CHIRIPA (05-May-2021 14:51:13)
 ------------------------------------------------------
 Symbolic Z-matrix:
 Charge =  0 Multiplicity = 1

                         Standard orientation:
 ---------------------------------------------------------------------
 Center     Atomic      Atomic             Coordinates (Angstroms)
 Number     Number       Type             X           Y           Z
 ---------------------------------------------------------------------
      1          6           0       -2.683587    1.110147   -0.033262
      2          6           0       -1.761409    2.070493    0.718607
      3          6           0       -2.392916    3.445378    0.939251
      4          1           0       -2.950987    1.552263   -1.002786
      5          1           0       -3.621307    0.998083    0.528448
      6          1           0       -0.825158    2.179635    0.156345
      7          1           0       -1.496020    1.625955    1.686372
      8          1           0       -3.316727    3.356275    1.519970
      9          1           0       -2.642054    3.913102   -0.018750
     10          1           0       -1.716581    4.115958    1.478467
     11          6           0       -2.066307   -0.268476   -0.261498
     12          6           0       -2.988486   -1.228822   -1.013367
     13          6           0       -2.356978   -2.603707   -1.234011
     14          1           0       -1.128587   -0.156412   -0.823208
     15          1           0       -1.798908   -0.710592    0.708026
     16          1           0       -3.253875   -0.784284   -1.981132
     17          1           0       -3.924737   -1.337964   -0.451105
     18          1           0       -2.107841   -3.071431   -0.276010
     19          1           0       -1.433167   -2.514604   -1.814730
     20          1           0       -3.033314   -3.274287   -1.773227
     21          6           0        2.059741   -1.112731    0.074183
     22          6           0        1.604356   -1.715325    1.403652
     23          6           0        0.975843   -3.099612    1.240821
     24          1           0        1.199326   -1.048642   -0.605908
     25          1           0        2.782680   -1.791269   -0.399465
     26          1           0        0.883536   -1.035194    1.875306
     27          1           0        2.465916   -1.777809    2.080724
     28          1           0        1.690988   -3.797125    0.792888
     29          1           0        0.099617   -3.050291    0.586302
     30          1           0        0.657473   -3.511723    2.203455
     31          6           0        2.690153    0.271060    0.220577
     32          6           0        3.145539    0.873653   -1.108892
     33          6           0        3.774051    2.257941   -0.946061
     34          1           0        1.967215    0.949597    0.694225
     35          1           0        3.550568    0.206970    0.900668
     36          1           0        2.283978    0.936138   -1.785964
     37          1           0        3.866359    0.193523   -1.580547
     38          1           0        4.650277    2.208619   -0.291542
     39          1           0        3.058906    2.955454   -0.498128
     40          1           0        4.092422    2.670053   -1.908696
 ---------------------------------------------------------------------

 SCF Done:  E(RHF) =  -470.732677425     A.U. after   11 cycles
 E2 =    -0.1585143183D+01 EUMP2 =    -0.47231782060828D+03

 The electronic state is 1-A.
 Alpha  occ. eigenvalues --  -11.21711 -11.21693 -11.21593 -11.21506 -11.21503
 Alpha  occ. eigenvalues --  -11.21446 -11.21333 -11.21262 -11.21150 -11.21146
 Alpha  occ. eigenvalues --  -11.21066 -11.20916  -1.08549  -1.08354  -1.03638
 Alpha  occ. eigenvalues --   -1.03460  -0.96087  -0.95908  -0.87119  -0.86911
 Alpha  occ. eigenvalues --   -0.79726  -0.79516  -0.78390  -0.78154  -0.65198
 Alpha  occ. eigenvalues --   -0.64978  -0.61045  -0.60882  -0.59447  -0.59272
 Alpha  occ. eigenvalues --   -0.57788  -0.57465  -0.55374  -0.55210  -0.52762
 Alpha  occ. eigenvalues --   -0.52644  -0.52603  -0.52239  -0.50053  -0.49818
 Alpha  occ. eigenvalues --   -0.48192  -0.47726  -0.46743  -0.46562  -0.46179
 Alpha  occ. eigenvalues --   -0.45869  -0.45562  -0.45251  -0.43879  -0.43721
 Alpha virt. eigenvalues --    0.19678   0.22134   0.23523   0.23923   0.25385
 Alpha virt. eigenvalues --    0.26007   0.26577   0.27999   0.29003   0.30020
 Alpha virt. eigenvalues --    0.30761   0.31334   0.31664   0.31845   0.32326

 Mulliken charges:
               1
     1  C   -0.297962
     2  C   -0.301695
     3  C   -0.475759
     4  H    0.149986
     5  H    0.150079
     6  H    0.152707
     7  H    0.152142
     8  H    0.155585
     9  H    0.155496
    10  H    0.160597
    11  C   -0.305682
    12  C   -0.299329
    13  C   -0.481124
    14  H    0.153641
    15  H    0.152627
    16  H    0.152203
    17  H    0.152345
    18  H    0.159487
    19  H    0.156107
    20  H    0.161427
    21  C   -0.302595
    22  C   -0.299580
    23  C   -0.484859
    24  H    0.154284
    25  H    0.148988
    26  H    0.152513
    27  H    0.151318
    28  H    0.154670
    29  H    0.165114
    30  H    0.158629
    31  C   -0.300648
    32  C   -0.299427
    33  C   -0.475648
    34  H    0.151911
    35  H    0.149548
    36  H    0.150444
    37  H    0.152037
    38  H    0.155366
    39  H    0.154983
    40  H    0.160073
 Sum of Mulliken charges =  -0.00000

 Dipole moment (field-independent basis, Debye):
    X=             -0.0840    Y=              0.0078    Z=             -0.0197  Tot=              0.0866
 Quadrupole moment (field-independent basis, Debye-Ang):
   XX=            -84.0630   YY=            -86.5860   ZZ=            -84.0838
   XY=             -0.3373   XZ=             -0.1544   YZ=             -0.4322

 Normal termination of Gaussian 16 at Thu May  6 05:32:34 2021.
