 Gaussian 16, Revision A.03,
 Gaussian 16:  EM64L-G16RevA.03 25-Dec-2016

 -------------
 #p 6-31g* mp2
 -------------

 ------------------------------------------------------
 Input file generated by CHIRIPA (05-May-2021 14:53:14)
 ------------------------------------------------------
 Symbolic Z-matrix:
 Charge =  0 Multiplicity = 1

                         Standard orientation:
 ---------------------------------------------------------------------
 Center     Atomic      Atomic             Coordinates (Angstroms)
 Number     Number       Type             X           Y           Z
 ---------------------------------------------------------------------
      1          6           0       -2.436790    1.107821   -0.591677
      2          6           0       -2.363705    2.422796    0.185165
      3          6           0       -1.469302    3.461072   -0.492934
      4          1           0       -1.422916    0.700879   -0.707454
      5          1           0       -2.810444    1.309072   -1.605223
      6          1           0       -1.991610    2.218932    1.197391
      7          1           0       -3.377891    2.826557    0.299272
      8          1           0       -1.841098    3.693483   -1.496105
      9          1           0       -0.446940    3.082406   -0.592884
     10          1           0       -1.431383    4.393297    0.079237
     11          6           0       -3.327174    0.059824    0.073640
     12          6           0       -3.400258   -1.255151   -0.703202
     13          6           0       -4.294662   -2.293428   -0.025103
     14          1           0       -2.953519   -0.141427    1.087186
     15          1           0       -4.341047    0.466765    0.189417
     16          1           0       -2.386072   -1.658912   -0.817309
     17          1           0       -3.772353   -1.051288   -1.715427
     18          1           0       -5.317023   -1.914762    0.074847
     19          1           0       -3.922865   -2.525839    0.978069
     20          1           0       -4.332580   -3.225653   -0.597274
     21          6           0       -0.004478   -1.145199    1.097583
     22          6           0        0.745508   -0.170982    1.764625
     23          6           0        1.996768    0.218589    1.277665
     24          6           0        2.469653   -0.389493    0.115811
     25          6           0        1.746156   -1.363002   -0.571302
     26          6           0        0.497355   -1.737055   -0.066200
     27          1           0       -0.975532   -1.441800    1.482911
     28          1           0        0.358284    0.290363    2.668651
     29          1           0        2.598322    0.970260    1.774194
     30          1           0        2.158575   -1.804961   -1.470190
     31          1           0       -0.082898   -2.493910   -0.586317
     32          7           0        3.793004    0.014716   -0.409314
     33          8           0        4.187315   -0.536146   -1.434842
     34          8           0        4.410877    0.874742    0.214564
 ---------------------------------------------------------------------

 SCF Done:  E(RHF) =  -669.533732370     A.U. after   15 cycles
 E2 =    -0.2095646717D+01 EUMP2 =    -0.67162937908662D+03

 The electronic state is 1-A.
 Alpha  occ. eigenvalues --  -20.60836 -20.60831 -15.85893 -11.31293 -11.27887
 Alpha  occ. eigenvalues --  -11.27877 -11.27585 -11.26883 -11.26860 -11.22608
 Alpha  occ. eigenvalues --  -11.22288 -11.22104 -11.22084 -11.21836 -11.21386
 Alpha  occ. eigenvalues --   -1.59912  -1.39464  -1.19488  -1.09242  -1.08819
 Alpha  occ. eigenvalues --   -1.04892  -1.04252  -0.96682  -0.95694  -0.87693
 Alpha  occ. eigenvalues --   -0.86290  -0.82527  -0.80353  -0.78953  -0.77563
 Alpha  occ. eigenvalues --   -0.72110  -0.71237  -0.70677  -0.65936  -0.65128
 Alpha  occ. eigenvalues --   -0.64807  -0.62286  -0.61607  -0.60066  -0.58281
 Alpha  occ. eigenvalues --   -0.56081  -0.55310  -0.53386  -0.53236  -0.53050
 Alpha  occ. eigenvalues --   -0.52968  -0.50609  -0.48884  -0.48862  -0.48635
 Alpha  occ. eigenvalues --   -0.47416  -0.46484  -0.46369  -0.44863  -0.44482
 Alpha  occ. eigenvalues --   -0.37367  -0.36482
 Alpha virt. eigenvalues --    0.04953   0.10963   0.16362   0.18982   0.22966
 Alpha virt. eigenvalues --    0.23538   0.24761   0.26060   0.27487   0.28126
 Alpha virt. eigenvalues --    0.28980   0.29754   0.31048   0.31466   0.31936

 Mulliken charges:
               1
     1  C   -0.304731
     2  C   -0.298145
     3  C   -0.476874
     4  H    0.159918
     5  H    0.151275
     6  H    0.145369
     7  H    0.152400
     8  H    0.156922
     9  H    0.158309
    10  H    0.161026
    11  C   -0.298889
    12  C   -0.306222
    13  C   -0.475915
    14  H    0.137814
    15  H    0.154459
    16  H    0.145608
    17  H    0.158555
    18  H    0.160565
    19  H    0.148966
    20  H    0.162528
    21  C   -0.169984
    22  C   -0.219572
    23  C   -0.170958
    24  C    0.157934
    25  C   -0.170936
    26  C   -0.221240
    27  H    0.231028
    28  H    0.224241
    29  H    0.276365
    30  H    0.276390
    31  H    0.225773
    32  N    0.488129
    33  O   -0.460014
    34  O   -0.460094
 Sum of Mulliken charges =  -0.00000

 Dipole moment (field-independent basis, Debye):
    X=             -4.6543    Y=             -1.3733    Z=              1.7511  Tot=              5.1590
 Quadrupole moment (field-independent basis, Debye-Ang):
   XX=           -117.9116   YY=            -92.5487   ZZ=            -91.6479
   XY=             -2.1587   XZ=              5.4738   YZ=              2.0293

 Normal termination of Gaussian 16 at Thu May  6 01:04:03 2021.
