 Gaussian 16, Revision A.03,
 Gaussian 16:  EM64L-G16RevA.03 25-Dec-2016

 -------------
 #p 6-31g* mp2
 -------------

 ------------------------------------------------------
 Input file generated by CHIRIPA (05-May-2021 14:57:24)
 ------------------------------------------------------
 Symbolic Z-matrix:
 Charge =  0 Multiplicity = 1

                         Standard orientation:
 ---------------------------------------------------------------------
 Center     Atomic      Atomic             Coordinates (Angstroms)
 Number     Number       Type             X           Y           Z
 ---------------------------------------------------------------------
      1          6           0        1.306116    2.766971   -0.589201
      2          6           0        1.229222    1.703988   -1.495112
      3          6           0        1.822640    0.473506   -1.197932
      4          6           0        2.488015    0.340340    0.019784
      5          6           0        2.581875    1.380586    0.943022
      6          6           0        1.981007    2.602168    0.624834
      7          1           0        0.842241    3.719382   -0.828218
      8          1           0        0.705743    1.829106   -2.438701
      9          1           0        1.778331   -0.366035   -1.881032
     10          1           0        3.110562    1.225620    1.875703
     11          1           0        2.042320    3.425953    1.330287
     12          7           0        3.120184   -0.957605    0.345516
     13          8           0        3.700591   -1.049393    1.425025
     14          8           0        3.023300   -1.858571   -0.484853
     15          6           0       -4.021011    1.255610    0.674157
     16          6           0       -3.475326    0.425138    1.658569
     17          6           0       -2.567280   -0.580936    1.315327
     18          6           0       -2.225549   -0.729228   -0.027998
     19          6           0       -2.752025    0.082260   -1.031791
     20          6           0       -3.658259    1.081827   -0.665518
     21          1           0       -4.725699    2.034625    0.949741
     22          1           0       -3.755224    0.557802    2.699771
     23          1           0       -2.129648   -1.237916    2.057131
     24          1           0       -2.453822   -0.074206   -2.061358
     25          1           0       -4.080454    1.725309   -1.432152
     26          7           0       -1.265201   -1.790869   -0.403563
     27          8           0       -0.980335   -1.901067   -1.594086
     28          8           0       -0.815529   -2.492683    0.499703
 ---------------------------------------------------------------------

 SCF Done:  E(RHF) =  -868.337062872     A.U. after   16 cycles
 E2 =    -0.2601668117D+01 EUMP2 =    -0.87093873098951D+03

 The electronic state is 1-A.
 Alpha  occ. eigenvalues --  -20.60935 -20.60871 -20.59979 -20.59893 -15.85950
 Alpha  occ. eigenvalues --  -15.85003 -11.31428 -11.30652 -11.28061 -11.27972
 Alpha  occ. eigenvalues --  -11.27780 -11.27322 -11.27158 -11.27148 -11.27088
 Alpha  occ. eigenvalues --  -11.27024 -11.26408 -11.26361  -1.59963  -1.59005
 Alpha  occ. eigenvalues --   -1.39521  -1.38549  -1.19611  -1.18880  -1.08985
 Alpha  occ. eigenvalues --   -1.08234  -1.05039  -1.04318  -0.95801  -0.95007
 Alpha  occ. eigenvalues --   -0.86431  -0.85705  -0.82638  -0.81833  -0.77670
 Alpha  occ. eigenvalues --   -0.76810  -0.72161  -0.71336  -0.71210  -0.70728
 Alpha  occ. eigenvalues --   -0.70312  -0.69976  -0.65269  -0.65047  -0.64525
 Alpha  occ. eigenvalues --   -0.64331  -0.62389  -0.61630  -0.55535  -0.54852
 Alpha  occ. eigenvalues --   -0.53370  -0.53137  -0.52641  -0.52404  -0.48924
 Alpha  occ. eigenvalues --   -0.48897  -0.48013  -0.47946  -0.44904  -0.43886
 Alpha  occ. eigenvalues --   -0.37604  -0.36938  -0.36638  -0.35907
 Alpha virt. eigenvalues --    0.04854   0.05725   0.10956   0.11727   0.16311
 Alpha virt. eigenvalues --    0.17139   0.20996   0.21842   0.26724   0.27483
 Alpha virt. eigenvalues --    0.28324   0.28826   0.30675   0.31256   0.32466

 Mulliken charges:
               1
     1  C   -0.171171
     2  C   -0.221523
     3  C   -0.173863
     4  C    0.157263
     5  C   -0.171712
     6  C   -0.219669
     7  H    0.220767
     8  H    0.219861
     9  H    0.289593
    10  H    0.274327
    11  H    0.219900
    12  N    0.489291
    13  O   -0.465357
    14  O   -0.449349
    15  C   -0.171516
    16  C   -0.218595
    17  C   -0.170385
    18  C    0.160906
    19  C   -0.171721
    20  C   -0.219574
    21  H    0.225173
    22  H    0.224284
    23  H    0.278398
    24  H    0.271564
    25  H    0.221429
    26  N    0.487522
    27  O   -0.464666
    28  O   -0.451176
 Sum of Mulliken charges =  -0.00000

 Dipole moment (field-independent basis, Debye):
    X=             -5.5969    Y=              7.9398    Z=              0.2053  Tot=              9.7164
 Quadrupole moment (field-independent basis, Debye-Ang):
   XX=           -102.0192   YY=           -107.4977   ZZ=            -96.7704
   XY=              4.8202   XZ=             -4.3682   YZ=             -0.9605

 Normal termination of Gaussian 16 at Thu May  6 05:03:50 2021.
