 Gaussian 16, Revision A.03,
 Gaussian 16:  EM64L-G16RevA.03 25-Dec-2016

 -------------
 #p 6-31g* mp2
 -------------

 ------------------------------------------------------
 Input file generated by CHIRIPA (05-May-2021 14:55:19)
 ------------------------------------------------------
 Symbolic Z-matrix:
 Charge =  0 Multiplicity = 1

                         Standard orientation:
 ---------------------------------------------------------------------
 Center     Atomic      Atomic             Coordinates (Angstroms)
 Number     Number       Type             X           Y           Z
 ---------------------------------------------------------------------
      1          6           0        0.636920   -0.857711    1.062793
      2          6           0        1.797034   -1.020764    1.827038
      3          6           0        3.051071   -0.720169    1.287053
      4          6           0        3.108490   -0.256575   -0.026367
      5          6           0        1.970766   -0.083664   -0.813118
      6          6           0        0.727329   -0.390505   -0.252527
      7          1           0       -0.333128   -1.093647    1.490270
      8          1           0        1.729842   -1.383427    2.848804
      9          1           0        3.965186   -0.837173    1.856369
     10          1           0        2.069574    0.279703   -1.828804
     11          1           0       -0.171954   -0.262909   -0.848391
     12          7           0        4.430471    0.064958   -0.608932
     13          8           0        4.454186    0.471825   -1.768472
     14          8           0        5.417893   -0.095981    0.105025
     15          6           0       -3.317471    1.008778   -0.337990
     16          6           0       -3.007613    2.020020    0.766258
     17          6           0       -2.242041    3.239904    0.252861
     18          1           0       -2.376827    0.683936   -0.803404
     19          1           0       -3.901322    1.504271   -1.126024
     20          1           0       -2.425702    1.522412    1.552631
     21          1           0       -3.949092    2.342348    1.229225
     22          1           0       -2.820249    3.761851   -0.516455
     23          1           0       -1.288205    2.937256   -0.191212
     24          1           0       -2.031024    3.949806    1.058697
     25          6           0       -4.082493   -0.216285    0.159695
     26          6           0       -4.392352   -1.227527   -0.944553
     27          6           0       -5.157923   -2.447410   -0.431156
     28          1           0       -3.498643   -0.711779    0.947730
     29          1           0       -5.023138    0.108558    0.625109
     30          1           0       -3.450873   -1.549855   -1.407520
     31          1           0       -4.974261   -0.729919   -1.730926
     32          1           0       -6.111759   -2.144762    0.012918
     33          1           0       -4.579714   -2.969358    0.338161
     34          1           0       -5.368941   -3.157313   -1.236991
 ---------------------------------------------------------------------

 SCF Done:  E(RHF) =  -669.535489300     A.U. after   15 cycles
 E2 =    -0.2091919582D+01 EUMP2 =    -0.67162740888213D+03

 The electronic state is 1-A.
 Alpha  occ. eigenvalues --  -20.60774 -20.60769 -15.85828 -11.31208 -11.27782
 Alpha  occ. eigenvalues --  -11.27778 -11.27533 -11.26797 -11.26784 -11.22517
 Alpha  occ. eigenvalues --  -11.22495 -11.22444 -11.22390 -11.21838 -11.21736
 Alpha  occ. eigenvalues --   -1.59850  -1.39403  -1.19384  -1.09404  -1.08775
 Alpha  occ. eigenvalues --   -1.04790  -1.04376  -0.96822  -0.95608  -0.87830
 Alpha  occ. eigenvalues --   -0.86190  -0.82442  -0.80442  -0.79235  -0.77485
 Alpha  occ. eigenvalues --   -0.72047  -0.71173  -0.70496  -0.66129  -0.65034
 Alpha  occ. eigenvalues --   -0.64749  -0.62158  -0.61750  -0.60183  -0.58432
 Alpha  occ. eigenvalues --   -0.56118  -0.55297  -0.53464  -0.53252  -0.53112
 Alpha  occ. eigenvalues --   -0.52882  -0.50761  -0.48817  -0.48801  -0.48743
 Alpha  occ. eigenvalues --   -0.47490  -0.46738  -0.46699  -0.44805  -0.44670
 Alpha  occ. eigenvalues --   -0.37362  -0.36388
 Alpha virt. eigenvalues --    0.05044   0.11184   0.16493   0.17890   0.23122
 Alpha virt. eigenvalues --    0.23574   0.23978   0.25045   0.26978   0.28523
 Alpha virt. eigenvalues --    0.30400   0.30485   0.30975   0.31312   0.31405

 Mulliken charges:
               1
     1  C   -0.174099
     2  C   -0.218629
     3  C   -0.170781
     4  C    0.158935
     5  C   -0.172141
     6  C   -0.224282
     7  H    0.226943
     8  H    0.223634
     9  H    0.275747
    10  H    0.276255
    11  H    0.231232
    12  N    0.487992
    13  O   -0.460251
    14  O   -0.460379
    15  C   -0.302862
    16  C   -0.299583
    17  C   -0.476386
    18  H    0.142294
    19  H    0.155280
    20  H    0.147898
    21  H    0.155563
    22  H    0.157380
    23  H    0.155250
    24  H    0.163809
    25  C   -0.298547
    26  C   -0.299758
    27  C   -0.475816
    28  H    0.142369
    29  H    0.154721
    30  H    0.147681
    31  H    0.155768
    32  H    0.157597
    33  H    0.153717
    34  H    0.163450
 Sum of Mulliken charges =  -0.00000

 Dipole moment (field-independent basis, Debye):
    X=             -4.8395    Y=             -1.0581    Z=              2.0471  Tot=              5.3602
 Quadrupole moment (field-independent basis, Debye-Ang):
   XX=           -121.7451   YY=            -94.8941   ZZ=            -91.3516
   XY=             -4.1009   XZ=              9.1526   YZ=             -1.6605

 Normal termination of Gaussian 16 at Wed May  5 15:49:44 2021.
