 Gaussian 16, Revision A.03,
 Gaussian 16:  EM64L-G16RevA.03 25-Dec-2016

 -------------
 #p 6-31g* mp2
 -------------

 ------------------------------------------------------
 Input file generated by CHIRIPA (05-May-2021 14:53:11)
 ------------------------------------------------------
 Symbolic Z-matrix:
 Charge =  0 Multiplicity = 1

                         Standard orientation:
 ---------------------------------------------------------------------
 Center     Atomic      Atomic             Coordinates (Angstroms)
 Number     Number       Type             X           Y           Z
 ---------------------------------------------------------------------
      1          6           0        3.556368    0.254640    0.033679
      2          6           0        3.738997   -1.147497   -0.548251
      3          6           0        5.135970   -1.715186   -0.295289
      4          1           0        4.310453    0.925728   -0.399844
      5          1           0        3.750263    0.223478    1.114802
      6          1           0        3.543464   -1.113971   -1.627722
      7          1           0        2.984268   -1.815282   -0.113436
      8          1           0        5.337752   -1.777532    0.778955
      9          1           0        5.900126   -1.072237   -0.743936
     10          1           0        5.244640   -2.718159   -0.719665
     11          6           0        2.164873    0.835633   -0.211099
     12          6           0        1.982243    2.237770    0.370830
     13          6           0        0.585270    2.805459    0.117868
     14          1           0        1.970978    0.866795   -1.292223
     15          1           0        1.410787    0.164545    0.222423
     16          1           0        2.736973    2.905554   -0.063984
     17          1           0        2.177776    2.204244    1.450302
     18          1           0       -0.178886    2.162510    0.566515
     19          1           0        0.383488    2.867805   -0.956375
     20          1           0        0.476600    3.808432    0.542245
     21          6           0       -2.703148   -0.066768   -2.383788
     22          6           0       -2.365536   -1.340556   -1.914742
     23          6           0       -2.104006   -1.551174   -0.557616
     24          6           0       -2.189587   -0.460606    0.306461
     25          6           0       -2.523504    0.820404   -0.130349
     26          6           0       -2.780917    1.007752   -1.491667
     27          1           0       -2.904712    0.087807   -3.439664
     28          1           0       -2.304391   -2.176891   -2.605284
     29          1           0       -1.840473   -2.526794   -0.167573
     30          1           0       -2.576564    1.634617    0.582153
     31          1           0       -3.042884    1.998094   -1.853112
     32          7           0       -1.914896   -0.671260    1.745408
     33          8           0       -1.996955    0.305983    2.486285
     34          8           0       -1.622735   -1.809626    2.105133
 ---------------------------------------------------------------------

 SCF Done:  E(RHF) =  -669.534959739     A.U. after   15 cycles
 E2 =    -0.2093292794D+01 EUMP2 =    -0.67162825253214D+03

 The electronic state is 1-A.
 Alpha  occ. eigenvalues --  -20.60880 -20.60867 -15.85913 -11.31212 -11.27795
 Alpha  occ. eigenvalues --  -11.27773 -11.27525 -11.26777 -11.26761 -11.21487
 Alpha  occ. eigenvalues --  -11.21464 -11.21276 -11.21206 -11.21012 -11.20950
 Alpha  occ. eigenvalues --   -1.59944  -1.39499  -1.19395  -1.08799  -1.08300
 Alpha  occ. eigenvalues --   -1.04790  -1.03418  -0.95895  -0.95634  -0.86922
 Alpha  occ. eigenvalues --   -0.86188  -0.82471  -0.79502  -0.78123  -0.77523
 Alpha  occ. eigenvalues --   -0.72130  -0.71269  -0.70517  -0.65048  -0.64939
 Alpha  occ. eigenvalues --   -0.64777  -0.62163  -0.60799  -0.59252  -0.57508
 Alpha  occ. eigenvalues --   -0.55345  -0.55135  -0.53200  -0.52896  -0.52581
 Alpha  occ. eigenvalues --   -0.52237  -0.49819  -0.48892  -0.48883  -0.47804
 Alpha  occ. eigenvalues --   -0.46512  -0.45662  -0.45576  -0.44881  -0.43676
 Alpha  occ. eigenvalues --   -0.37353  -0.36314
 Alpha virt. eigenvalues --    0.04987   0.11178   0.16470   0.21284   0.22937
 Alpha virt. eigenvalues --    0.24366   0.26485   0.26781   0.27559   0.28024
 Alpha virt. eigenvalues --    0.28755   0.30327   0.31579   0.31866   0.32052

 Mulliken charges:
               1
     1  C   -0.298530
     2  C   -0.299936
     3  C   -0.475672
     4  H    0.148394
     5  H    0.153085
     6  H    0.148722
     7  H    0.154097
     8  H    0.157257
     9  H    0.154268
    10  H    0.159240
    11  C   -0.297805
    12  C   -0.299177
    13  C   -0.480988
    14  H    0.146081
    15  H    0.150113
    16  H    0.150210
    17  H    0.157704
    18  H    0.160509
    19  H    0.148765
    20  H    0.159560
    21  C   -0.170715
    22  C   -0.218241
    23  C   -0.170993
    24  C    0.160361
    25  C   -0.171109
    26  C   -0.217813
    27  H    0.225693
    28  H    0.223489
    29  H    0.275540
    30  H    0.276894
    31  H    0.224058
    32  N    0.488131
    33  O   -0.461308
    34  O   -0.459883
 Sum of Mulliken charges =  -0.00000

 Dipole moment (field-independent basis, Debye):
    X=             -1.0103    Y=              0.7009    Z=             -5.0070  Tot=              5.1557
 Quadrupole moment (field-independent basis, Debye-Ang):
   XX=            -91.9557   YY=            -91.1264   ZZ=            -97.5548
   XY=             -1.5692   XZ=             10.7158   YZ=              3.3336

 Normal termination of Gaussian 16 at Wed May  5 15:27:04 2021.
