 Gaussian 16, Revision A.03,
 Gaussian 16:  EM64L-G16RevA.03 25-Dec-2016

 -------------
 #p 6-31g* mp2
 -------------

 ------------------------------------------------------
 Input file generated by CHIRIPA (05-May-2021 14:57:21)
 ------------------------------------------------------
 Symbolic Z-matrix:
 Charge =  0 Multiplicity = 1

                         Standard orientation:
 ---------------------------------------------------------------------
 Center     Atomic      Atomic             Coordinates (Angstroms)
 Number     Number       Type             X           Y           Z
 ---------------------------------------------------------------------
      1          6           0        5.797159   -0.678611   -1.419542
      2          6           0        4.909856   -1.673988   -0.997123
      3          6           0        3.877573   -1.372428   -0.103814
      4          6           0        3.761308   -0.059149    0.349035
      5          6           0        4.629492    0.954584   -0.053322
      6          6           0        5.654397    0.630191   -0.947127
      7          1           0        6.596196   -0.921739   -2.113679
      8          1           0        5.018325   -2.691280   -1.362358
      9          1           0        3.176660   -2.123590    0.239541
     10          1           0        4.496052    1.959621    0.328139
     11          1           0        6.342021    1.405250   -1.273471
     12          7           0        2.672382    0.272186    1.295004
     13          8           0        2.591323    1.436826    1.679294
     14          8           0        1.920560   -0.639028    1.634252
     15          6           0       -2.109944    1.833320   -0.432043
     16          6           0       -1.803362    0.540582    0.005400
     17          6           0       -2.809728   -0.420285    0.141457
     18          6           0       -4.117774   -0.052484   -0.170031
     19          6           0       -4.454923    1.227210   -0.608216
     20          6           0       -3.432415    2.171911   -0.736918
     21          1           0       -1.321905    2.573466   -0.534878
     22          1           0       -0.777198    0.274811    0.242885
     23          1           0       -2.600347   -1.428398    0.478038
     24          1           0       -5.487174    1.462463   -0.837416
     25          1           0       -3.673442    3.175100   -1.076859
     26          7           0       -5.191713   -1.061153   -0.029887
     27          8           0       -6.336236   -0.712062   -0.310671
     28          8           0       -4.868609   -2.181741    0.358089
 ---------------------------------------------------------------------

 SCF Done:  E(RHF) =  -868.339871832     A.U. after   16 cycles
 E2 =    -0.2598411010D+01 EUMP2 =    -0.87093828284254D+03

 The electronic state is 1-A.
 Alpha  occ. eigenvalues --  -20.61833 -20.61828 -20.60157 -20.60148 -15.86851
 Alpha  occ. eigenvalues --  -15.85200 -11.31952 -11.30423 -11.28490 -11.28478
 Alpha  occ. eigenvalues --  -11.28165 -11.27434 -11.27416 -11.27003 -11.26894
 Alpha  occ. eigenvalues --  -11.26643 -11.26010 -11.25781  -1.60903  -1.59233
 Alpha  occ. eigenvalues --   -1.40458  -1.38790  -1.20098  -1.18565  -1.09540
 Alpha  occ. eigenvalues --   -1.07985  -1.05455  -1.03929  -0.96415  -0.94850
 Alpha  occ. eigenvalues --   -0.86865  -0.85333  -0.83252  -0.81674  -0.78336
 Alpha  occ. eigenvalues --   -0.76745  -0.73059  -0.72220  -0.71423  -0.71192
 Alpha  occ. eigenvalues --   -0.70554  -0.69672  -0.65747  -0.65446  -0.64208
 Alpha  occ. eigenvalues --   -0.63900  -0.62802  -0.61266  -0.55956  -0.54436
 Alpha  occ. eigenvalues --   -0.53804  -0.53537  -0.52290  -0.51998  -0.49837
 Alpha  occ. eigenvalues --   -0.49799  -0.48186  -0.48166  -0.45907  -0.44228
 Alpha  occ. eigenvalues --   -0.38061  -0.37047  -0.36545  -0.35532
 Alpha virt. eigenvalues --    0.04136   0.05759   0.10611   0.12119   0.15682
 Alpha virt. eigenvalues --    0.17299   0.20798   0.22319   0.26737   0.27578
 Alpha virt. eigenvalues --    0.28275   0.29121   0.30389   0.31683   0.32067

 Mulliken charges:
               1
     1  C   -0.169705
     2  C   -0.218370
     3  C   -0.171060
     4  C    0.156648
     5  C   -0.171246
     6  C   -0.218510
     7  H    0.228420
     8  H    0.226457
     9  H    0.276401
    10  H    0.275579
    11  H    0.225511
    12  N    0.486331
    13  O   -0.459184
    14  O   -0.463367
    15  C   -0.171639
    16  C   -0.222456
    17  C   -0.172963
    18  C    0.158072
    19  C   -0.172780
    20  C   -0.218776
    21  H    0.226159
    22  H    0.237712
    23  H    0.276094
    24  H    0.272723
    25  H    0.220279
    26  N    0.488125
    27  O   -0.463012
    28  O   -0.461442
 Sum of Mulliken charges =  -0.00000

 Dipole moment (field-independent basis, Debye):
    X=              8.1297    Y=              2.3399    Z=             -3.8243  Tot=              9.2840
 Quadrupole moment (field-independent basis, Debye-Ang):
   XX=           -105.2648   YY=            -98.6370   ZZ=           -108.0384
   XY=            -20.5591   XZ=             -9.3428   YZ=             -1.7240

 Normal termination of Gaussian 16 at Thu May  6 00:09:40 2021.
