 Gaussian 16, Revision A.03,
 Gaussian 16:  EM64L-G16RevA.03 25-Dec-2016

 -------------
 #p 6-31g* mp2
 -------------

 ------------------------------------------------------
 Input file generated by CHIRIPA (05-May-2021 14:57:25)
 ------------------------------------------------------
 Symbolic Z-matrix:
 Charge =  0 Multiplicity = 1

                         Standard orientation:
 ---------------------------------------------------------------------
 Center     Atomic      Atomic             Coordinates (Angstroms)
 Number     Number       Type             X           Y           Z
 ---------------------------------------------------------------------
      1          6           0        0.025484   -1.699725    1.497602
      2          6           0        0.627026   -2.284100    0.378149
      3          6           0        1.710778   -1.663743   -0.250489
      4          6           0        2.169346   -0.454238    0.269226
      5          6           0        1.591236    0.153004    1.382930
      6          6           0        0.508657   -0.485180    1.995541
      7          1           0       -0.815945   -2.188558    1.979718
      8          1           0        0.253900   -3.227279   -0.010741
      9          1           0        2.195197   -2.094074   -1.118574
     10          1           0        1.985436    1.093773    1.747589
     11          1           0        0.043454   -0.029033    2.864771
     12          7           0        3.316045    0.211942   -0.387802
     13          8           0        3.701259    1.277043    0.089491
     14          8           0        3.807900   -0.343620   -1.367631
     15          6           0       -0.950847    2.841898   -0.034928
     16          6           0       -0.583957    2.066933   -1.140072
     17          6           0       -1.147927    0.803384   -1.339901
     18          6           0       -2.079886    0.343817   -0.410632
     19          6           0       -2.465890    1.092212    0.700311
     20          6           0       -1.888988    2.352926    0.880123
     21          1           0       -0.507719    3.822352    0.112529
     22          1           0        0.144363    2.444121   -1.852337
     23          1           0       -0.881949    0.182501   -2.186764
     24          1           0       -3.194582    0.689307    1.393200
     25          1           0       -2.175813    2.952581    1.739303
     26          7           0       -2.683779   -0.992345   -0.611587
     27          8           0       -3.502585   -1.374509    0.221567
     28          8           0       -2.326871   -1.632164   -1.598443
 ---------------------------------------------------------------------

 SCF Done:  E(RHF) =  -868.338352103     A.U. after   16 cycles
 E2 =    -0.2607411289D+01 EUMP2 =    -0.87094576339242D+03

 The electronic state is 1-A.
 Alpha  occ. eigenvalues --  -20.61497 -20.61472 -20.61017 -20.61003 -15.86475
 Alpha  occ. eigenvalues --  -15.86051 -11.31552 -11.31202 -11.28155 -11.28062
 Alpha  occ. eigenvalues --  -11.27790 -11.27755 -11.27658 -11.27274 -11.27129
 Alpha  occ. eigenvalues --  -11.27012 -11.26737 -11.26554  -1.60544  -1.60097
 Alpha  occ. eigenvalues --   -1.40109  -1.39654  -1.19763  -1.19309  -1.09184
 Alpha  occ. eigenvalues --   -1.08760  -1.05111  -1.04689  -0.96056  -0.95640
 Alpha  occ. eigenvalues --   -0.86513  -0.86096  -0.82911  -0.82466  -0.77994
 Alpha  occ. eigenvalues --   -0.77556  -0.72731  -0.72273  -0.71920  -0.71427
 Alpha  occ. eigenvalues --   -0.70840  -0.70355  -0.65391  -0.65106  -0.64970
 Alpha  occ. eigenvalues --   -0.64660  -0.62463  -0.62042  -0.55598  -0.55146
 Alpha  occ. eigenvalues --   -0.54422  -0.53193  -0.52757  -0.52057  -0.49508
 Alpha  occ. eigenvalues --   -0.49461  -0.49043  -0.49007  -0.45578  -0.45106
 Alpha  occ. eigenvalues --   -0.38398  -0.37257  -0.36287  -0.35951
 Alpha virt. eigenvalues --    0.04320   0.05043   0.10907   0.11394   0.15997
 Alpha virt. eigenvalues --    0.16523   0.20920   0.21816   0.26795   0.27591
 Alpha virt. eigenvalues --    0.27866   0.28711   0.30608   0.31331   0.32257

 Mulliken charges:
               1
     1  C   -0.187873
     2  C   -0.215407
     3  C   -0.176236
     4  C    0.157515
     5  C   -0.169909
     6  C   -0.210136
     7  H    0.237147
     8  H    0.235346
     9  H    0.275804
    10  H    0.270118
    11  H    0.219364
    12  N    0.486556
    13  O   -0.464460
    14  O   -0.460340
    15  C   -0.171486
    16  C   -0.219741
    17  C   -0.167002
    18  C    0.164136
    19  C   -0.175288
    20  C   -0.221901
    21  H    0.229586
    22  H    0.231338
    23  H    0.276266
    24  H    0.271316
    25  H    0.222154
    26  N    0.488969
    27  O   -0.465975
    28  O   -0.459861
 Sum of Mulliken charges =  -0.00000

 Dipole moment (field-independent basis, Debye):
    X=             -1.9468    Y=              2.2885    Z=              2.8855  Tot=              4.1657
 Quadrupole moment (field-independent basis, Debye-Ang):
   XX=           -132.0687   YY=            -96.8804   ZZ=            -99.0638
   XY=            -12.9953   XZ=             -1.1408   YZ=             -0.2271

 Normal termination of Gaussian 16 at Fri May  7 11:12:22 2021.
