 Gaussian 16, Revision A.03,
 Gaussian 16:  EM64L-G16RevA.03 25-Dec-2016

 -------------
 #p 6-31g* mp2
 -------------

 ------------------------------------------------------
 Input file generated by CHIRIPA (05-May-2021 14:53:14)
 ------------------------------------------------------
 Symbolic Z-matrix:
 Charge =  0 Multiplicity = 1

                         Standard orientation:
 ---------------------------------------------------------------------
 Center     Atomic      Atomic             Coordinates (Angstroms)
 Number     Number       Type             X           Y           Z
 ---------------------------------------------------------------------
      1          6           0       -3.439114    0.766728    0.162135
      2          6           0       -4.513843    1.792143    0.524716
      3          6           0       -3.928374    3.151038    0.909975
      4          1           0       -2.755425    0.644980    1.013424
      5          1           0       -2.836180    1.156404   -0.669742
      6          1           0       -5.115445    1.400052    1.354750
      7          1           0       -5.195164    1.911322   -0.327466
      8          1           0       -3.344212    3.567300    0.082883
      9          1           0       -3.264040    3.053125    1.774657
     10          1           0       -4.714093    3.868866    1.165377
     11          6           0       -4.008822   -0.596754   -0.225265
     12          6           0       -2.934093   -1.622169   -0.587847
     13          6           0       -3.519562   -2.981064   -0.973106
     14          1           0       -4.611756   -0.986430    0.606611
     15          1           0       -4.692511   -0.475006   -1.076554
     16          1           0       -2.252772   -1.741347    0.264335
     17          1           0       -2.332491   -1.230078   -1.417880
     18          1           0       -4.183896   -2.883151   -1.837787
     19          1           0       -4.103724   -3.397325   -0.146014
     20          1           0       -2.733843   -3.698891   -1.228507
     21          6           0        1.894930   -2.193515    0.925906
     22          6           0        3.216436   -1.860124    1.240543
     23          6           0        3.788817   -0.684064    0.746772
     24          6           0        3.007420    0.139246   -0.062469
     25          6           0        1.688073   -0.165465   -0.393774
     26          6           0        1.136304   -1.346614    0.111188
     27          1           0        1.458297   -3.109083    1.313827
     28          1           0        3.807959   -2.515945    1.873035
     29          1           0        4.809500   -0.401740    0.974625
     30          1           0        1.123321    0.508247   -1.026694
     31          1           0        0.109756   -1.602990   -0.134812
     32          7           0        3.602464    1.386982   -0.591126
     33          8           0        2.893023    2.095469   -1.302025
     34          8           0        4.767032    1.632843   -0.284579
 ---------------------------------------------------------------------

 SCF Done:  E(RHF) =  -669.535579843     A.U. after   15 cycles
 E2 =    -0.2091360825D+01 EUMP2 =    -0.67162694066781D+03

 The electronic state is 1-A.
 Alpha  occ. eigenvalues --  -20.60705 -20.60700 -15.85757 -11.31104 -11.27673
 Alpha  occ. eigenvalues --  -11.27650 -11.27402 -11.26692 -11.26595 -11.22689
 Alpha  occ. eigenvalues --  -11.22115 -11.21998 -11.21959 -11.21933 -11.21288
 Alpha  occ. eigenvalues --   -1.59781  -1.39335  -1.19269  -1.09117  -1.08670
 Alpha  occ. eigenvalues --   -1.04667  -1.04183  -0.96586  -0.95510  -0.87608
 Alpha  occ. eigenvalues --   -0.86070  -0.82344  -0.80319  -0.78909  -0.77380
 Alpha  occ. eigenvalues --   -0.71976  -0.71103  -0.70386  -0.65747  -0.64919
 Alpha  occ. eigenvalues --   -0.64676  -0.62044  -0.61561  -0.59991  -0.58207
 Alpha  occ. eigenvalues --   -0.55847  -0.55177  -0.53314  -0.53030  -0.53002
 Alpha  occ. eigenvalues --   -0.52737  -0.50526  -0.48771  -0.48732  -0.48527
 Alpha  occ. eigenvalues --   -0.47342  -0.46419  -0.46328  -0.44744  -0.44426
 Alpha  occ. eigenvalues --   -0.37257  -0.36267
 Alpha virt. eigenvalues --    0.05137   0.11351   0.16617   0.20232   0.22582
 Alpha virt. eigenvalues --    0.23738   0.25452   0.25633   0.27198   0.28425
 Alpha virt. eigenvalues --    0.29284   0.30224   0.30767   0.31359   0.32082

 Mulliken charges:
               1
     1  C   -0.300069
     2  C   -0.300183
     3  C   -0.476558
     4  H    0.149257
     5  H    0.149627
     6  H    0.152364
     7  H    0.153331
     8  H    0.158005
     9  H    0.156045
    10  H    0.161874
    11  C   -0.296986
    12  C   -0.307691
    13  C   -0.475744
    14  H    0.151803
    15  H    0.153382
    16  H    0.146520
    17  H    0.150839
    18  H    0.160257
    19  H    0.157954
    20  H    0.158272
    21  C   -0.173401
    22  C   -0.218362
    23  C   -0.171526
    24  C    0.158875
    25  C   -0.173721
    26  C   -0.227443
    27  H    0.225190
    28  H    0.222909
    29  H    0.275210
    30  H    0.275445
    31  H    0.237871
    32  N    0.488089
    33  O   -0.460663
    34  O   -0.460775
 Sum of Mulliken charges =  -0.00000

 Dipole moment (field-independent basis, Debye):
    X=             -2.3464    Y=             -4.3451    Z=              1.8505  Tot=              5.2735
 Quadrupole moment (field-independent basis, Debye-Ang):
   XX=           -103.1433   YY=            -97.1913   ZZ=            -93.6717
   XY=            -14.9790   XZ=              8.1784   YZ=             -0.6256

 Normal termination of Gaussian 16 at Wed May  5 23:27:20 2021.
