 Gaussian 16, Revision A.03,
 Gaussian 16:  EM64L-G16RevA.03 25-Dec-2016

 -------------
 #p 6-31g* mp2
 -------------

 ------------------------------------------------------
 Input file generated by CHIRIPA (05-May-2021 14:53:13)
 ------------------------------------------------------
 Symbolic Z-matrix:
 Charge =  0 Multiplicity = 1

                         Standard orientation:
 ---------------------------------------------------------------------
 Center     Atomic      Atomic             Coordinates (Angstroms)
 Number     Number       Type             X           Y           Z
 ---------------------------------------------------------------------
      1          6           0       -4.907412   -0.252900    0.345208
      2          6           0       -5.701410    0.661597   -0.588198
      3          6           0       -7.047300    1.083729    0.001871
      4          1           0       -5.506730   -1.145613    0.570656
      5          1           0       -4.743903    0.263436    1.301271
      6          1           0       -5.862178    0.144222   -1.542710
      7          1           0       -5.100055    1.552147   -0.811603
      8          1           0       -6.902922    1.622772    0.943778
      9          1           0       -7.669375    0.206848    0.208517
     10          1           0       -7.598251    1.737024   -0.681883
     11          6           0       -3.559572   -0.683426   -0.230728
     12          6           0       -2.765574   -1.597924    0.702678
     13          6           0       -1.419685   -2.020056    0.112609
     14          1           0       -3.723081   -1.199762   -1.186792
     15          1           0       -2.960254    0.209286   -0.456176
     16          1           0       -3.366929   -2.488473    0.926083
     17          1           0       -2.604806   -1.080549    1.657189
     18          1           0       -0.797609   -1.143174   -0.094037
     19          1           0       -1.564063   -2.559099   -0.829298
     20          1           0       -0.868733   -2.673350    0.796363
     21          6           0        4.833370   -1.641420   -0.137698
     22          6           0        3.461779   -1.793680   -0.365899
     23          6           0        2.606874   -0.688563   -0.316898
     24          6           0        3.159892    0.559799   -0.035730
     25          6           0        4.522130    0.743747    0.196131
     26          6           0        5.358243   -0.375425    0.142096
     27          1           0        5.490180   -2.505361   -0.177718
     28          1           0        3.051374   -2.775668   -0.583413
     29          1           0        1.541230   -0.777982   -0.489595
     30          1           0        4.901933    1.735292    0.410618
     31          1           0        6.423039   -0.254195    0.319736
     32          7           0        2.264790    1.737177    0.018811
     33          8           0        2.776744    2.826303    0.268497
     34          8           0        1.068204    1.548584   -0.189160
 ---------------------------------------------------------------------

 SCF Done:  E(RHF) =  -669.535993037     A.U. after   15 cycles
 E2 =    -0.2091135587D+01 EUMP2 =    -0.67162712862406D+03

 The electronic state is 1-A.
 Alpha  occ. eigenvalues --  -20.60824 -20.60818 -15.85868 -11.31172 -11.27749
 Alpha  occ. eigenvalues --  -11.27704 -11.27487 -11.26756 -11.26732 -11.21443
 Alpha  occ. eigenvalues --  -11.21228 -11.21164 -11.21046 -11.20982 -11.20742
 Alpha  occ. eigenvalues --   -1.59892  -1.39448  -1.19347  -1.08755  -1.08123
 Alpha  occ. eigenvalues --   -1.04741  -1.03301  -0.95780  -0.95594  -0.86812
 Alpha  occ. eigenvalues --   -0.86142  -0.82430  -0.79378  -0.77919  -0.77480
 Alpha  occ. eigenvalues --   -0.72091  -0.71209  -0.70465  -0.65002  -0.64802
 Alpha  occ. eigenvalues --   -0.64693  -0.62117  -0.60674  -0.59146  -0.57373
 Alpha  occ. eigenvalues --   -0.55294  -0.55019  -0.53077  -0.52878  -0.52490
 Alpha  occ. eigenvalues --   -0.52173  -0.49700  -0.48844  -0.48838  -0.47684
 Alpha  occ. eigenvalues --   -0.46364  -0.45471  -0.45357  -0.44862  -0.43542
 Alpha  occ. eigenvalues --   -0.37333  -0.36340
 Alpha virt. eigenvalues --    0.05042   0.11304   0.16544   0.20913   0.23214
 Alpha virt. eigenvalues --    0.24313   0.25816   0.27096   0.27682   0.28057
 Alpha virt. eigenvalues --    0.29335   0.30161   0.31556   0.31813   0.32187

 Mulliken charges:
               1
     1  C   -0.298460
     2  C   -0.300164
     3  C   -0.475666
     4  H    0.147330
     5  H    0.151064
     6  H    0.150586
     7  H    0.155647
     8  H    0.155760
     9  H    0.153676
    10  H    0.159909
    11  C   -0.301497
    12  C   -0.296823
    13  C   -0.490069
    14  H    0.147004
    15  H    0.160672
    16  H    0.150186
    17  H    0.155526
    18  H    0.167399
    19  H    0.153088
    20  H    0.155253
    21  C   -0.170343
    22  C   -0.222875
    23  C   -0.175772
    24  C    0.155783
    25  C   -0.169981
    26  C   -0.219153
    27  H    0.225560
    28  H    0.224552
    29  H    0.289059
    30  H    0.275426
    31  H    0.223318
    32  N    0.487979
    33  O   -0.459743
    34  O   -0.464229
 Sum of Mulliken charges =  -0.00000

 Dipole moment (field-independent basis, Debye):
    X=              3.1512    Y=             -4.0447    Z=             -0.1844  Tot=              5.1306
 Quadrupole moment (field-independent basis, Debye-Ang):
   XX=            -72.8831   YY=            -97.8837   ZZ=            -95.3422
   XY=             -8.4442   XZ=              0.6726   YZ=              1.0229

 Normal termination of Gaussian 16 at Thu May  6 02:34:27 2021.
