 Gaussian 16, Revision A.03,
 Gaussian 16:  EM64L-G16RevA.03 25-Dec-2016

 -------------
 #p 6-31g* mp2
 -------------

 ------------------------------------------------------
 Input file generated by CHIRIPA (05-May-2021 14:53:12)
 ------------------------------------------------------
 Symbolic Z-matrix:
 Charge =  0 Multiplicity = 1

                         Standard orientation:
 ---------------------------------------------------------------------
 Center     Atomic      Atomic             Coordinates (Angstroms)
 Number     Number       Type             X           Y           Z
 ---------------------------------------------------------------------
      1          6           0       -4.899409   -0.519811    0.076048
      2          6           0       -6.249408    0.103622    0.432163
      3          6           0       -7.322911   -0.942809    0.732773
      4          1           0       -5.025076   -1.178676   -0.794039
      5          1           0       -4.567865   -1.158482    0.906453
      6          1           0       -6.577650    0.742019   -0.398091
      7          1           0       -6.120475    0.761228    1.301386
      8          1           0       -7.020930   -1.573487    1.575183
      9          1           0       -7.480703   -1.592805   -0.133950
     10          1           0       -8.279840   -0.475290    0.984912
     11          6           0       -3.815968    0.513626   -0.227089
     12          6           0       -2.465969   -0.109808   -0.583204
     13          6           0       -1.392467    0.936623   -0.883814
     14          1           0       -4.147513    1.152297   -1.057494
     15          1           0       -3.690302    1.172490    0.642998
     16          1           0       -2.594902   -0.767414   -1.452426
     17          1           0       -2.137727   -0.748205    0.247051
     18          1           0       -1.234675    1.586619   -0.017091
     19          1           0       -1.694447    1.567301   -1.726224
     20          1           0       -0.435538    0.469104   -1.135952
     21          6           0        2.649230    2.408903    0.125309
     22          6           0        2.184165    1.556788   -0.881735
     23          6           0        2.595933    0.221562   -0.928271
     24          6           0        3.477456   -0.230234    0.052590
     25          6           0        3.958484    0.594141    1.068615
     26          6           0        3.533347    1.925712    1.095559
     27          1           0        2.324166    3.444719    0.153849
     28          1           0        1.497488    1.929301   -1.636555
     29          1           0        2.251490   -0.459831   -1.696699
     30          1           0        4.642360    0.193936    1.807240
     31          1           0        3.896157    2.585200    1.878814
     32          7           0        3.920453   -1.641843    0.013694
     33          8           0        4.697614   -2.015505    0.889500
     34          8           0        3.482125   -2.347871   -0.891861
 ---------------------------------------------------------------------

 SCF Done:  E(RHF) =  -669.534470329     A.U. after   15 cycles
 E2 =    -0.2092133526D+01 EUMP2 =    -0.67162660385525D+03

 The electronic state is 1-A.
 Alpha  occ. eigenvalues --  -20.60762 -20.60757 -15.85814 -11.31187 -11.27726
 Alpha  occ. eigenvalues --  -11.27722 -11.27454 -11.26768 -11.26714 -11.21967
 Alpha  occ. eigenvalues --  -11.21789 -11.21700 -11.21664 -11.21578 -11.21205
 Alpha  occ. eigenvalues --   -1.59837  -1.39390  -1.19348  -1.08746  -1.08707
 Alpha  occ. eigenvalues --   -1.04763  -1.03841  -0.96323  -0.95577  -0.87365
 Alpha  occ. eigenvalues --   -0.86136  -0.82417  -0.79920  -0.78509  -0.77459
 Alpha  occ. eigenvalues --   -0.72032  -0.71160  -0.70449  -0.65339  -0.65004
 Alpha  occ. eigenvalues --   -0.64760  -0.62151  -0.61238  -0.59682  -0.57918
 Alpha  occ. eigenvalues --   -0.55608  -0.55243  -0.53447  -0.52944  -0.52728
 Alpha  occ. eigenvalues --   -0.52550  -0.50252  -0.48791  -0.48787  -0.48230
 Alpha  occ. eigenvalues --   -0.46928  -0.46059  -0.45967  -0.44795  -0.44105
 Alpha  occ. eigenvalues --   -0.37316  -0.36275
 Alpha virt. eigenvalues --    0.05037   0.11265   0.16458   0.21029   0.22637
 Alpha virt. eigenvalues --    0.24037   0.26283   0.26467   0.27056   0.27990
 Alpha virt. eigenvalues --    0.28557   0.30266   0.31177   0.31361   0.32091

 Mulliken charges:
               1
     1  C   -0.298745
     2  C   -0.299766
     3  C   -0.475902
     4  H    0.150739
     5  H    0.151057
     6  H    0.151600
     7  H    0.151627
     8  H    0.155976
     9  H    0.155809
    10  H    0.160513
    11  C   -0.298897
    12  C   -0.299728
    13  C   -0.479428
    14  H    0.148767
    15  H    0.149033
    16  H    0.153817
    17  H    0.155989
    18  H    0.154842
    19  H    0.151296
    20  H    0.158763
    21  C   -0.173481
    22  C   -0.213783
    23  C   -0.172782
    24  C    0.158269
    25  C   -0.171769
    26  C   -0.218198
    27  H    0.225631
    28  H    0.227613
    29  H    0.275144
    30  H    0.275418
    31  H    0.223332
    32  N    0.488094
    33  O   -0.460402
    34  O   -0.460450
 Sum of Mulliken charges =  -0.00000

 Dipole moment (field-independent basis, Debye):
    X=             -1.6227    Y=              4.9566    Z=              0.1752  Tot=              5.2184
 Quadrupole moment (field-independent basis, Debye-Ang):
   XX=           -105.1703   YY=            -97.9942   ZZ=            -90.8338
   XY=             17.9579   XZ=              3.4661   YZ=              1.1711

 Normal termination of Gaussian 16 at Wed May  5 23:22:40 2021.
