 Gaussian 16, Revision A.03,
 Gaussian 16:  EM64L-G16RevA.03 25-Dec-2016

 -------------
 #p 6-31g* mp2
 -------------

 ------------------------------------------------------
 Input file generated by CHIRIPA (05-May-2021 14:57:25)
 ------------------------------------------------------
 Symbolic Z-matrix:
 Charge =  0 Multiplicity = 1

                         Standard orientation:
 ---------------------------------------------------------------------
 Center     Atomic      Atomic             Coordinates (Angstroms)
 Number     Number       Type             X           Y           Z
 ---------------------------------------------------------------------
      1          6           0       -2.492029    2.281090    1.363139
      2          6           0       -3.653531    2.093478    0.606677
      3          6           0       -3.877287    0.887055   -0.063416
      4          6           0       -2.914213   -0.114940    0.045150
      5          6           0       -1.746990    0.041681    0.791038
      6          6           0       -1.544136    1.256399    1.452747
      7          1           0       -2.326328    3.221490    1.880427
      8          1           0       -4.391403    2.887515    0.535302
      9          1           0       -4.767668    0.715075   -0.655921
     10          1           0       -1.029632   -0.768304    0.843391
     11          1           0       -0.641174    1.399298    2.039505
     12          7           0       -3.140029   -1.396516   -0.659809
     13          8           0       -2.276203   -2.263699   -0.548293
     14          8           0       -4.176575   -1.509567   -1.310525
     15          6           0        2.626028   -2.303727    1.034539
     16          6           0        1.691159   -1.921624    0.066790
     17          6           0        1.820263   -0.700793   -0.602129
     18          6           0        2.901259    0.117128   -0.276949
     19          6           0        3.849165   -0.235570    0.682410
     20          6           0        3.700153   -1.460965    1.338724
     21          1           0        2.518004   -3.253870    1.549276
     22          1           0        0.855979   -2.574113   -0.171490
     23          1           0        1.111054   -0.380277   -1.355594
     24          1           0        4.671172    0.436053    0.898387
     25          1           0        4.427709   -1.755120    2.089844
     26          7           0        3.048473    1.411983   -0.978431
     27          8           0        4.009732    2.114684   -0.673753
     28          8           0        2.199812    1.699671   -1.819649
 ---------------------------------------------------------------------

 SCF Done:  E(RHF) =  -868.339742012     A.U. after   16 cycles
 E2 =    -0.2600664761D+01 EUMP2 =    -0.87094040677335D+03

 The electronic state is 1-A.
 Alpha  occ. eigenvalues --  -20.61324 -20.61256 -20.60995 -20.60984 -15.86327
 Alpha  occ. eigenvalues --  -15.86042 -11.31412 -11.31389 -11.27971 -11.27941
 Alpha  occ. eigenvalues --  -11.27926 -11.27885 -11.27627 -11.27606 -11.26956
 Alpha  occ. eigenvalues --  -11.26894 -11.26881 -11.26761  -1.60352  -1.60073
 Alpha  occ. eigenvalues --   -1.39921  -1.39623  -1.19569  -1.19539  -1.08992
 Alpha  occ. eigenvalues --   -1.08936  -1.04978  -1.04865  -0.95881  -0.95774
 Alpha  occ. eigenvalues --   -0.86338  -0.86297  -0.82729  -0.82589  -0.77870
 Alpha  occ. eigenvalues --   -0.77596  -0.72561  -0.72253  -0.71660  -0.71407
 Alpha  occ. eigenvalues --   -0.70689  -0.70587  -0.65217  -0.65185  -0.64936
 Alpha  occ. eigenvalues --   -0.64815  -0.62417  -0.62086  -0.55426  -0.55380
 Alpha  occ. eigenvalues --   -0.53397  -0.53230  -0.52966  -0.52888  -0.49328
 Alpha  occ. eigenvalues --   -0.49265  -0.49014  -0.49007  -0.45385  -0.45031
 Alpha  occ. eigenvalues --   -0.37544  -0.37502  -0.36733  -0.36303
 Alpha virt. eigenvalues --    0.04572   0.04933   0.10932   0.11214   0.16191
 Alpha virt. eigenvalues --    0.16276   0.21003   0.21773   0.26577   0.27471
 Alpha virt. eigenvalues --    0.28243   0.28627   0.30479   0.31425   0.32189

 Mulliken charges:
               1
     1  C   -0.168222
     2  C   -0.217908
     3  C   -0.169562
     4  C    0.157645
     5  C   -0.175990
     6  C   -0.218746
     7  H    0.228377
     8  H    0.225177
     9  H    0.275980
    10  H    0.273912
    11  H    0.225631
    12  N    0.490652
    13  O   -0.473940
    14  O   -0.455383
    15  C   -0.172949
    16  C   -0.235722
    17  C   -0.176919
    18  C    0.156635
    19  C   -0.172677
    20  C   -0.219236
    21  H    0.228946
    22  H    0.247673
    23  H    0.280224
    24  H    0.275329
    25  H    0.223872
    26  N    0.487528
    27  O   -0.461344
    28  O   -0.458983
 Sum of Mulliken charges =  -0.00000

 Dipole moment (field-independent basis, Debye):
    X=              0.1659    Y=              0.0202    Z=              4.9311  Tot=              4.9339
 Quadrupole moment (field-independent basis, Debye-Ang):
   XX=           -105.2478   YY=           -106.8519   ZZ=           -105.1317
   XY=            -28.2508   XZ=              4.3932   YZ=              1.5473

 Normal termination of Gaussian 16 at Fri May  7 05:02:59 2021.
