 Gaussian 16, Revision A.03,
 Gaussian 16:  EM64L-G16RevA.03 25-Dec-2016

 -------------
 #p 6-31g* mp2
 -------------

 ------------------------------------------------------
 Input file generated by CHIRIPA (05-May-2021 14:53:13)
 ------------------------------------------------------
 Symbolic Z-matrix:
 Charge =  0 Multiplicity = 1

                         Standard orientation:
 ---------------------------------------------------------------------
 Center     Atomic      Atomic             Coordinates (Angstroms)
 Number     Number       Type             X           Y           Z
 ---------------------------------------------------------------------
      1          6           0        5.163823    0.235663    0.338554
      2          6           0        6.373473   -0.156032   -0.510743
      3          6           0        7.678258    0.454358    0.001853
      4          1           0        5.075753    1.330584    0.356864
      5          1           0        5.335181   -0.081533    1.376542
      6          1           0        6.199288    0.160576   -1.547100
      7          1           0        6.458561   -1.250155   -0.527191
      8          1           0        7.879000    0.128773    1.027668
      9          1           0        7.618254    1.547519    0.001964
     10          1           0        8.530009    0.161404   -0.619885
     11          6           0        3.852003   -0.366820   -0.161315
     12          6           0        2.642353    0.024875    0.687982
     13          6           0        1.337568   -0.585516    0.175386
     14          1           0        3.680645   -0.049624   -1.199303
     15          1           0        3.940073   -1.461742   -0.179625
     16          1           0        2.557265    1.118998    0.704430
     17          1           0        2.816538   -0.291733    1.724339
     18          1           0        1.397572   -1.678677    0.175275
     19          1           0        1.136826   -0.259930   -0.850429
     20          1           0        0.485818   -0.292561    0.797124
     21          6           0       -3.439114   -2.470448   -0.054794
     22          6           0       -2.280454   -1.733591   -0.321385
     23          6           0       -2.314565   -0.335995   -0.331988
     24          6           0       -3.529802    0.295020   -0.070630
     25          6           0       -4.701186   -0.411223    0.198386
     26          6           0       -4.643658   -1.808080    0.203785
     27          1           0       -3.403520   -3.555847   -0.048579
     28          1           0       -1.343590   -2.245320   -0.522546
     29          1           0       -1.432555    0.259077   -0.535370
     30          1           0       -5.620362    0.127076    0.395277
     31          1           0       -5.545058   -2.377752    0.411138
     32          7           0       -3.578308    1.774201   -0.079100
     33          8           0       -4.661374    2.306333    0.154225
     34          8           0       -2.532344    2.373441   -0.318905
 ---------------------------------------------------------------------

 SCF Done:  E(RHF) =  -669.535017331     A.U. after   15 cycles
 E2 =    -0.2091920288D+01 EUMP2 =    -0.67162693761869D+03

 The electronic state is 1-A.
 Alpha  occ. eigenvalues --  -20.60702 -20.60697 -15.85752 -11.31075 -11.27663
 Alpha  occ. eigenvalues --  -11.27565 -11.27397 -11.26681 -11.26617 -11.22048
 Alpha  occ. eigenvalues --  -11.21899 -11.21778 -11.21724 -11.21585 -11.21191
 Alpha  occ. eigenvalues --   -1.59778  -1.39332  -1.19255  -1.08746  -1.08660
 Alpha  occ. eigenvalues --   -1.04660  -1.03897  -0.96401  -0.95497  -0.87442
 Alpha  occ. eigenvalues --   -0.86051  -0.82332  -0.79990  -0.78530  -0.77364
 Alpha  occ. eigenvalues --   -0.71974  -0.71101  -0.70378  -0.65375  -0.64908
 Alpha  occ. eigenvalues --   -0.64662  -0.62074  -0.61283  -0.59717  -0.57973
 Alpha  occ. eigenvalues --   -0.55701  -0.55168  -0.53235  -0.52885  -0.52884
 Alpha  occ. eigenvalues --   -0.52600  -0.50311  -0.48728  -0.48727  -0.48284
 Alpha  occ. eigenvalues --   -0.46970  -0.46083  -0.45978  -0.44746  -0.44136
 Alpha  occ. eigenvalues --   -0.37248  -0.36231
 Alpha virt. eigenvalues --    0.05115   0.11368   0.16583   0.20706   0.22656
 Alpha virt. eigenvalues --    0.23966   0.25681   0.26214   0.27329   0.28074
 Alpha virt. eigenvalues --    0.29477   0.29916   0.31120   0.31486   0.32146

 Mulliken charges:
               1
     1  C   -0.298971
     2  C   -0.299891
     3  C   -0.475964
     4  H    0.152170
     5  H    0.149945
     6  H    0.152589
     7  H    0.151249
     8  H    0.155317
     9  H    0.156389
    10  H    0.160692
    11  C   -0.299416
    12  C   -0.299981
    13  C   -0.486688
    14  H    0.150837
    15  H    0.148133
    16  H    0.159363
    17  H    0.154133
    18  H    0.150992
    19  H    0.154971
    20  H    0.165302
    21  C   -0.171153
    22  C   -0.221476
    23  C   -0.176373
    24  C    0.158653
    25  C   -0.171033
    26  C   -0.218744
    27  H    0.225096
    28  H    0.227896
    29  H    0.281552
    30  H    0.275099
    31  H    0.222955
    32  N    0.488067
    33  O   -0.460771
    34  O   -0.460939
 Sum of Mulliken charges =  -0.00000

 Dipole moment (field-independent basis, Debye):
    X=              0.3618    Y=             -5.1561    Z=              0.0637  Tot=              5.1692
 Quadrupole moment (field-independent basis, Debye-Ang):
   XX=            -91.8994   YY=            -97.9983   ZZ=            -95.0942
   XY=             18.5394   XZ=             -1.4218   YZ=             -0.2274

 Normal termination of Gaussian 16 at Thu May  6 20:17:27 2021.
