 Gaussian 16, Revision A.03,
 Gaussian 16:  EM64L-G16RevA.03 25-Dec-2016

 -------------
 #p 6-31g* mp2
 -------------

 ------------------------------------------------------
 Input file generated by CHIRIPA (05-May-2021 14:53:16)
 ------------------------------------------------------
 Symbolic Z-matrix:
 Charge =  0 Multiplicity = 1

                         Standard orientation:
 ---------------------------------------------------------------------
 Center     Atomic      Atomic             Coordinates (Angstroms)
 Number     Number       Type             X           Y           Z
 ---------------------------------------------------------------------
      1          6           0       -5.423258   -0.030293   -0.402659
      2          6           0       -6.758008    0.042637    0.339708
      3          6           0       -7.952896    0.178965   -0.604459
      4          1           0       -5.304182    0.871116   -1.019285
      5          1           0       -5.443230   -0.882720   -1.095742
      6          1           0       -6.735011    0.893847    1.032188
      7          1           0       -6.873833   -0.858961    0.954786
      8          1           0       -8.003974   -0.675479   -1.287041
      9          1           0       -7.864364    1.087288   -1.209200
     10          1           0       -8.896798    0.229359   -0.052763
     11          6           0       -4.219273   -0.166731    0.527680
     12          6           0       -2.884523   -0.239661   -0.214688
     13          6           0       -1.689635   -0.375988    0.729480
     14          1           0       -4.199301    0.685697    1.220763
     15          1           0       -4.338349   -1.068140    1.144306
     16          1           0       -2.768698    0.661938   -0.829766
     17          1           0       -2.907520   -1.090871   -0.907167
     18          1           0       -1.778168   -1.284312    1.334220
     19          1           0       -1.638557    0.478455    1.412061
     20          1           0       -0.745733   -0.426383    0.177784
     21          6           0        4.165698   -2.413601   -0.110077
     22          6           0        2.864912   -1.916101    0.020199
     23          6           0        2.631993   -0.538034    0.055255
     24          6           0        3.728032    0.317741   -0.042916
     25          6           0        5.035707   -0.147241   -0.173562
     26          6           0        5.245040   -1.529142   -0.206373
     27          1           0        4.337474   -3.485606   -0.136438
     28          1           0        2.024769   -2.600631    0.095189
     29          1           0        1.635265   -0.125808    0.155361
     30          1           0        5.853066    0.559918   -0.246144
     31          1           0        6.256327   -1.912669   -0.307626
     32          7           0        3.493935    1.778668   -0.006992
     33          8           0        4.476547    2.511682   -0.095314
     34          8           0        2.332270    2.163066    0.108806
 ---------------------------------------------------------------------

 SCF Done:  E(RHF) =  -669.535542530     A.U. after   15 cycles
 E2 =    -0.2090809460D+01 EUMP2 =    -0.67162635198957D+03

 The electronic state is 1-A.
 Alpha  occ. eigenvalues --  -20.60731 -20.60725 -15.85782 -11.31139 -11.27717
 Alpha  occ. eigenvalues --  -11.27688 -11.27463 -11.26735 -11.26717 -11.21795
 Alpha  occ. eigenvalues --  -11.21638 -11.21507 -11.21484 -11.21425 -11.21088
 Alpha  occ. eigenvalues --   -1.59806  -1.39359  -1.19316  -1.08715  -1.08539
 Alpha  occ. eigenvalues --   -1.04720  -1.03673  -0.96142  -0.95549  -0.87166
 Alpha  occ. eigenvalues --   -0.86118  -0.82381  -0.79735  -0.78336  -0.77428
 Alpha  occ. eigenvalues --   -0.72003  -0.71128  -0.70438  -0.65161  -0.64970
 Alpha  occ. eigenvalues --   -0.64732  -0.62111  -0.61056  -0.59515  -0.57744
 Alpha  occ. eigenvalues --   -0.55409  -0.55231  -0.53051  -0.53041  -0.52669
 Alpha  occ. eigenvalues --   -0.52518  -0.50060  -0.48761  -0.48756  -0.48053
 Alpha  occ. eigenvalues --   -0.46743  -0.45885  -0.45793  -0.44766  -0.43936
 Alpha  occ. eigenvalues --   -0.37302  -0.36322
 Alpha virt. eigenvalues --    0.05104   0.11328   0.16596   0.20306   0.22844
 Alpha virt. eigenvalues --    0.23894   0.25888   0.26579   0.27428   0.27928
 Alpha virt. eigenvalues --    0.28852   0.30731   0.31334   0.31558   0.31871

 Mulliken charges:
               1
     1  C   -0.298561
     2  C   -0.299825
     3  C   -0.475825
     4  H    0.151498
     5  H    0.148755
     6  H    0.153000
     7  H    0.151335
     8  H    0.154741
     9  H    0.156028
    10  H    0.160494
    11  C   -0.299349
    12  C   -0.299010
    13  C   -0.479604
    14  H    0.152119
    15  H    0.148471
    16  H    0.157713
    17  H    0.149791
    18  H    0.152712
    19  H    0.164633
    20  H    0.151915
    21  C   -0.170734
    22  C   -0.221890
    23  C   -0.181685
    24  C    0.159690
    25  C   -0.170147
    26  C   -0.219047
    27  H    0.225412
    28  H    0.223609
    29  H    0.288846
    30  H    0.275466
    31  H    0.223297
    32  N    0.486912
    33  O   -0.460626
    34  O   -0.460137
 Sum of Mulliken charges =  -0.00000

 Dipole moment (field-independent basis, Debye):
    X=              0.7015    Y=             -5.0820    Z=             -0.1076  Tot=              5.1313
 Quadrupole moment (field-independent basis, Debye-Ang):
   XX=            -84.3570   YY=            -97.5241   ZZ=            -95.9108
   XY=            -18.3089   XZ=             -1.6004   YZ=              0.2330

 Normal termination of Gaussian 16 at Thu May  6 17:12:39 2021.
