 Gaussian 16, Revision A.03,
 Gaussian 16:  EM64L-G16RevA.03 25-Dec-2016

 -------------
 #p 6-31g* mp2
 -------------

 ------------------------------------------------------
 Input file generated by CHIRIPA (05-May-2021 14:53:18)
 ------------------------------------------------------
 Symbolic Z-matrix:
 Charge =  0 Multiplicity = 1

                         Standard orientation:
 ---------------------------------------------------------------------
 Center     Atomic      Atomic             Coordinates (Angstroms)
 Number     Number       Type             X           Y           Z
 ---------------------------------------------------------------------
      1          6           0        3.385243    0.738007   -0.285534
      2          6           0        3.737248    2.169381    0.120971
      3          6           0        2.594228    3.153329   -0.130317
      4          1           0        3.113263    0.722232   -1.349829
      5          1           0        2.493657    0.415301    0.269740
      6          1           0        4.628721    2.488799   -0.433883
      7          1           0        4.008608    2.181718    1.184375
      8          1           0        1.703508    2.861753    0.435547
      9          1           0        2.327146    3.170580   -1.191906
     10          1           0        2.867369    4.170500    0.167369
     11          6           0        4.517917   -0.257319   -0.040369
     12          6           0        4.165912   -1.688692   -0.446875
     13          6           0        5.308932   -2.672641   -0.195586
     14          1           0        5.409503    0.065387   -0.595644
     15          1           0        4.789898   -0.241544    1.023925
     16          1           0        3.894553   -1.701029   -1.510279
     17          1           0        3.274439   -2.008111    0.107979
     18          1           0        5.576015   -2.689891    0.866002
     19          1           0        6.199652   -2.381065   -0.761451
     20          1           0        5.035791   -3.689812   -0.493272
     21          6           0       -0.670468   -0.236782    0.850536
     22          6           0       -1.390567   -1.430249    0.733860
     23          6           0       -2.730119   -1.415053    0.333961
     24          6           0       -3.320810   -0.183030    0.057388
     25          6           0       -2.629912    1.023000    0.164345
     26          6           0       -1.291344    0.983882    0.565908
     27          1           0        0.369746   -0.257878    1.161834
     28          1           0       -0.910967   -2.379699    0.954258
     29          1           0       -3.311026   -2.324040    0.235438
     30          1           0       -3.135195    1.954016   -0.062188
     31          1           0       -0.734562    1.912312    0.655661
     32          7           0       -4.738413   -0.154281   -0.366849
     33          8           0       -5.235855    0.944170   -0.604745
     34          8           0       -5.325245   -1.230741   -0.453436
 ---------------------------------------------------------------------

 SCF Done:  E(RHF) =  -669.535203189     A.U. after   15 cycles
 E2 =    -0.2091908361D+01 EUMP2 =    -0.67162711154944D+03

 The electronic state is 1-A.
 Alpha  occ. eigenvalues --  -20.60724 -20.60719 -15.85777 -11.31136 -11.27705
 Alpha  occ. eigenvalues --  -11.27699 -11.27430 -11.26721 -11.26702 -11.22600
 Alpha  occ. eigenvalues --  -11.22485 -11.22476 -11.22278 -11.22174 -11.21779
 Alpha  occ. eigenvalues --   -1.59799  -1.39353  -1.19308  -1.09409  -1.08704
 Alpha  occ. eigenvalues --   -1.04710  -1.04461  -0.96917  -0.95542  -0.87930
 Alpha  occ. eigenvalues --   -0.86110  -0.82376  -0.80529  -0.79228  -0.77420
 Alpha  occ. eigenvalues --   -0.71995  -0.71122  -0.70445  -0.66053  -0.64960
 Alpha  occ. eigenvalues --   -0.64718  -0.62099  -0.61824  -0.60274  -0.58528
 Alpha  occ. eigenvalues --   -0.56271  -0.55209  -0.53579  -0.53348  -0.53038
 Alpha  occ. eigenvalues --   -0.52782  -0.50852  -0.48844  -0.48751  -0.48744
 Alpha  occ. eigenvalues --   -0.47567  -0.46753  -0.46670  -0.44760  -0.44724
 Alpha  occ. eigenvalues --   -0.37278  -0.36312
 Alpha virt. eigenvalues --    0.05100   0.11325   0.16531   0.18465   0.22327
 Alpha virt. eigenvalues --    0.23264   0.24804   0.25322   0.26303   0.28059
 Alpha virt. eigenvalues --    0.29510   0.30710   0.30946   0.31093   0.31504

 Mulliken charges:
               1
     1  C   -0.301864
     2  C   -0.300463
     3  C   -0.477762
     4  H    0.154727
     5  H    0.140133
     6  H    0.157000
     7  H    0.153170
     8  H    0.145440
     9  H    0.159743
    10  H    0.165541
    11  C   -0.298950
    12  C   -0.298707
    13  C   -0.476279
    14  H    0.153616
    15  H    0.150236
    16  H    0.155064
    17  H    0.144543
    18  H    0.155802
    19  H    0.157790
    20  H    0.162092
    21  C   -0.174194
    22  C   -0.219681
    23  C   -0.171049
    24  C    0.158753
    25  C   -0.171659
    26  C   -0.224254
    27  H    0.230840
    28  H    0.223360
    29  H    0.275376
    30  H    0.275906
    31  H    0.228856
    32  N    0.487962
    33  O   -0.460488
    34  O   -0.460604
 Sum of Mulliken charges =  -0.00000

 Dipole moment (field-independent basis, Debye):
    X=              5.2628    Y=             -0.0608    Z=              1.3906  Tot=              5.4438
 Quadrupole moment (field-independent basis, Debye-Ang):
   XX=           -127.8960   YY=            -90.0318   ZZ=            -94.5125
   XY=              0.4868   XZ=             -5.4498   YZ=             -0.8325

 Normal termination of Gaussian 16 at Thu May  6 19:00:32 2021.
