 Gaussian 16, Revision A.03,
 Gaussian 16:  EM64L-G16RevA.03 25-Dec-2016

 -------------
 #p 6-31g* mp2
 -------------

 ------------------------------------------------------
 Input file generated by CHIRIPA (05-May-2021 14:53:15)
 ------------------------------------------------------
 Symbolic Z-matrix:
 Charge =  0 Multiplicity = 1

                         Standard orientation:
 ---------------------------------------------------------------------
 Center     Atomic      Atomic             Coordinates (Angstroms)
 Number     Number       Type             X           Y           Z
 ---------------------------------------------------------------------
      1          6           0       -4.472156   -0.073143    0.293404
      2          6           0       -3.522985    1.090883    0.006870
      3          6           0       -2.132221    0.880943    0.606449
      4          1           0       -4.556670   -0.210036    1.380171
      5          1           0       -4.035966   -0.999501   -0.105337
      6          1           0       -3.961480    2.014993    0.404813
      7          1           0       -3.440870    1.225143   -1.079338
      8          1           0       -1.670782   -0.025375    0.201157
      9          1           0       -2.194349    0.768963    1.693740
     10          1           0       -1.469974    1.724903    0.389605
     11          6           0       -5.866441    0.122039   -0.299556
     12          6           0       -6.815613   -1.041988   -0.013023
     13          6           0       -8.206377   -0.832048   -0.612602
     14          1           0       -6.302631    1.048396    0.099185
     15          1           0       -5.781927    0.258931   -1.386323
     16          1           0       -6.897727   -1.176248    1.073185
     17          1           0       -6.377118   -1.966098   -0.410966
     18          1           0       -8.144249   -0.720067   -1.699893
     19          1           0       -8.667816    0.074270   -0.207309
     20          1           0       -8.868624   -1.676007   -0.395758
     21          6           0        1.860980    1.193537    0.394550
     22          6           0        1.992045   -0.148187    0.767539
     23          6           0        3.193897   -0.830052    0.555030
     24          6           0        4.249031   -0.136333   -0.035508
     25          6           0        4.149409    1.200453   -0.418089
     26          6           0        2.938181    1.862395   -0.196033
     27          1           0        0.923711    1.715488    0.563340
     28          1           0        1.157151   -0.670158    1.226389
     29          1           0        3.322681   -1.868775    0.834113
     30          1           0        4.999319    1.694155   -0.873422
     31          1           0        2.839258    2.904394   -0.486716
     32          7           0        5.526340   -0.847647   -0.265535
     33          8           0        6.441015   -0.214002   -0.787550
     34          8           0        5.588634   -2.025353    0.080540
 ---------------------------------------------------------------------

 SCF Done:  E(RHF) =  -669.535521615     A.U. after   15 cycles
 E2 =    -0.2090963484D+01 EUMP2 =    -0.67162648509947D+03

 The electronic state is 1-A.
 Alpha  occ. eigenvalues --  -20.60697 -20.60692 -15.85750 -11.31093 -11.27668
 Alpha  occ. eigenvalues --  -11.27661 -11.27347 -11.26665 -11.26644 -11.22567
 Alpha  occ. eigenvalues --  -11.22425 -11.22141 -11.22087 -11.21961 -11.21470
 Alpha  occ. eigenvalues --   -1.59773  -1.39327  -1.19263  -1.09150  -1.08654
 Alpha  occ. eigenvalues --   -1.04666  -1.04300  -0.96784  -0.95494  -0.87814
 Alpha  occ. eigenvalues --   -0.86057  -0.82333  -0.80380  -0.78912  -0.77386
 Alpha  occ. eigenvalues --   -0.71968  -0.71097  -0.70377  -0.65770  -0.64911
 Alpha  occ. eigenvalues --   -0.64669  -0.62020  -0.61680  -0.60223  -0.58369
 Alpha  occ. eigenvalues --   -0.56055  -0.55222  -0.53429  -0.53198  -0.52989
 Alpha  occ. eigenvalues --   -0.52745  -0.50705  -0.48745  -0.48725  -0.48665
 Alpha  occ. eigenvalues --   -0.47376  -0.46469  -0.46356  -0.44738  -0.44540
 Alpha  occ. eigenvalues --   -0.37229  -0.36276
 Alpha virt. eigenvalues --    0.05148   0.11356   0.16635   0.20099   0.22327
 Alpha virt. eigenvalues --    0.23804   0.25610   0.25975   0.26164   0.27320
 Alpha virt. eigenvalues --    0.28643   0.29671   0.30799   0.31498   0.32193

 Mulliken charges:
               1
     1  C   -0.299677
     2  C   -0.299025
     3  C   -0.482637
     4  H    0.150523
     5  H    0.150586
     6  H    0.154624
     7  H    0.155045
     8  H    0.156330
     9  H    0.157739
    10  H    0.153552
    11  C   -0.298953
    12  C   -0.300196
    13  C   -0.476103
    14  H    0.150459
    15  H    0.150904
    16  H    0.152467
    17  H    0.152742
    18  H    0.155920
    19  H    0.155683
    20  H    0.161771
    21  C   -0.173995
    22  C   -0.222708
    23  C   -0.171058
    24  C    0.158203
    25  C   -0.170819
    26  C   -0.220267
    27  H    0.233659
    28  H    0.225217
    29  H    0.275183
    30  H    0.275165
    31  H    0.223118
    32  N    0.488049
    33  O   -0.460742
    34  O   -0.460758
 Sum of Mulliken charges =  -0.00000

 Dipole moment (field-independent basis, Debye):
    X=             -4.7965    Y=              2.4904    Z=              0.7950  Tot=              5.4626
 Quadrupole moment (field-independent basis, Debye-Ang):
   XX=           -132.9928   YY=            -92.0373   ZZ=            -94.1606
   XY=             13.0903   XZ=              2.1307   YZ=             -1.7477

 Normal termination of Gaussian 16 at Thu May  6 02:41:08 2021.
