 Gaussian 16, Revision A.03,
 Gaussian 16:  EM64L-G16RevA.03 25-Dec-2016

 -------------
 #p 6-31g* mp2
 -------------

 ------------------------------------------------------
 Input file generated by CHIRIPA (05-May-2021 14:51:12)
 ------------------------------------------------------
 Symbolic Z-matrix:
 Charge =  0 Multiplicity = 1

                         Standard orientation:
 ---------------------------------------------------------------------
 Center     Atomic      Atomic             Coordinates (Angstroms)
 Number     Number       Type             X           Y           Z
 ---------------------------------------------------------------------
      1          6           0        3.221320   -0.139340    0.609606
      2          6           0        1.876595    0.192373   -0.038210
      3          6           0        0.714404    0.143931    0.954141
      4          1           0        3.166054   -1.138387    1.063254
      5          1           0        3.409109    0.566685    1.430373
      6          1           0        1.692041   -0.513205   -0.858402
      7          1           0        1.935129    1.190668   -0.490534
      8          1           0        0.871890    0.860096    1.767102
      9          1           0        0.627421   -0.853457    1.397144
     10          1           0       -0.237245    0.384246    0.469915
     11          6           0        4.392904   -0.095042   -0.369760
     12          6           0        5.737629   -0.426755    0.278056
     13          6           0        6.899820   -0.378314   -0.714294
     14          1           0        4.205114   -0.801067   -1.190527
     15          1           0        4.448170    0.904005   -0.823407
     16          1           0        5.679095   -1.425050    0.730381
     17          1           0        5.922183    0.278822    1.098249
     18          1           0        6.986803    0.619075   -1.157297
     19          1           0        6.742333   -1.094479   -1.527256
     20          1           0        7.851468   -0.618628   -0.230068
     21          6           0       -3.551088    0.737133    0.245530
     22          6           0       -3.372173    1.949434   -0.668964
     23          6           0       -2.859423    3.181856    0.076702
     24          1           0       -4.249128    0.995275    1.053645
     25          1           0       -2.590458    0.503376    0.725053
     26          1           0       -4.332533    2.179986   -1.147681
     27          1           0       -2.674626    1.688317   -1.475104
     28          1           0       -1.889484    2.975539    0.540655
     29          1           0       -3.556811    3.470001    0.869938
     30          1           0       -2.738752    4.036723   -0.595980
     31          6           0       -4.063136   -0.502750   -0.485376
     32          6           0       -4.242051   -1.715052    0.429117
     33          6           0       -4.754801   -2.947474   -0.316548
     34          1           0       -5.023766   -0.268993   -0.964899
     35          1           0       -3.365096   -0.760892   -1.293491
     36          1           0       -4.939598   -1.453934    1.235257
     37          1           0       -3.281691   -1.945603    0.907834
     38          1           0       -4.057413   -3.235620   -1.109784
     39          1           0       -5.724741   -2.741157   -0.780501
     40          1           0       -4.875472   -3.802341    0.356134
 ---------------------------------------------------------------------

 SCF Done:  E(RHF) =  -470.733300342     A.U. after   11 cycles
 E2 =    -0.1582704407D+01 EUMP2 =    -0.47231600474977D+03

 The electronic state is 1-A.
 Alpha  occ. eigenvalues --  -11.21671 -11.21627 -11.21587 -11.21572 -11.21447
 Alpha  occ. eigenvalues --  -11.21386 -11.21369 -11.21302 -11.21158 -11.21091
 Alpha  occ. eigenvalues --  -11.21053 -11.21047  -1.08476  -1.08405  -1.03584
 Alpha  occ. eigenvalues --   -1.03505  -0.96037  -0.95953  -0.87060  -0.86966
 Alpha  occ. eigenvalues --   -0.79655  -0.79560  -0.78289  -0.78213  -0.65103
 Alpha  occ. eigenvalues --   -0.65069  -0.60987  -0.60921  -0.59426  -0.59292
 Alpha  occ. eigenvalues --   -0.57649  -0.57557  -0.55334  -0.55231  -0.52772
 Alpha  occ. eigenvalues --   -0.52648  -0.52465  -0.52358  -0.49978  -0.49888
 Alpha  occ. eigenvalues --   -0.47985  -0.47867  -0.46678  -0.46594  -0.45828
 Alpha  occ. eigenvalues --   -0.45759  -0.45750  -0.45694  -0.43780  -0.43745
 Alpha virt. eigenvalues --    0.20607   0.23020   0.23944   0.24944   0.26109
 Alpha virt. eigenvalues --    0.26602   0.27172   0.27557   0.27905   0.28956
 Alpha virt. eigenvalues --    0.30820   0.31483   0.31703   0.31825   0.32026

 Mulliken charges:
               1
     1  C   -0.298703
     2  C   -0.299265
     3  C   -0.483261
     4  H    0.149750
     5  H    0.149745
     6  H    0.151883
     7  H    0.152308
     8  H    0.155858
     9  H    0.155406
    10  H    0.166691
    11  C   -0.298280
    12  C   -0.299671
    13  C   -0.475732
    14  H    0.149549
    15  H    0.149781
    16  H    0.151987
    17  H    0.152023
    18  H    0.155243
    19  H    0.155207
    20  H    0.160355
    21  C   -0.305804
    22  C   -0.299691
    23  C   -0.477028
    24  H    0.149920
    25  H    0.156498
    26  H    0.152067
    27  H    0.151492
    28  H    0.156438
    29  H    0.155242
    30  H    0.160046
    31  C   -0.297941
    32  C   -0.299810
    33  C   -0.475690
    34  H    0.149476
    35  H    0.149251
    36  H    0.151933
    37  H    0.152423
    38  H    0.155041
    39  H    0.155113
    40  H    0.160153
 Sum of Mulliken charges =  -0.00000

 Dipole moment (field-independent basis, Debye):
    X=              0.0287    Y=             -0.0021    Z=              0.0136  Tot=              0.0318
 Quadrupole moment (field-independent basis, Debye-Ang):
   XX=            -84.8670   YY=            -84.6840   ZZ=            -85.2321
   XY=             -0.4821   XZ=              0.2225   YZ=             -0.1108

 Normal termination of Gaussian 16 at Thu May  6 02:20:43 2021.
