 Gaussian 16, Revision A.03,
 Gaussian 16:  EM64L-G16RevA.03 25-Dec-2016

 -------------
 #p 6-31g* mp2
 -------------

 ------------------------------------------------------
 Input file generated by CHIRIPA (05-May-2021 14:53:14)
 ------------------------------------------------------
 Symbolic Z-matrix:
 Charge =  0 Multiplicity = 1

                         Standard orientation:
 ---------------------------------------------------------------------
 Center     Atomic      Atomic             Coordinates (Angstroms)
 Number     Number       Type             X           Y           Z
 ---------------------------------------------------------------------
      1          6           0       -3.980954   -0.358928   -0.496795
      2          6           0       -4.526954   -1.545004    0.298876
      3          6           0       -5.187016   -2.599532   -0.589989
      4          1           0       -4.800220    0.100478   -1.066615
      5          1           0       -3.253797   -0.725002   -1.234785
      6          1           0       -5.251838   -1.176644    1.036081
      7          1           0       -3.706330   -2.001522    0.867017
      8          1           0       -4.469630   -2.994813   -1.316425
      9          1           0       -6.023919   -2.165249   -1.146400
     10          1           0       -5.570290   -3.438416   -0.000723
     11          6           0       -3.318103    0.703724    0.377920
     12          6           0       -2.772103    1.889800   -0.417752
     13          6           0       -2.112040    2.944328    0.471113
     14          1           0       -4.045259    1.069799    1.115909
     15          1           0       -2.498836    0.244318    0.947739
     16          1           0       -3.592727    2.346318   -0.985892
     17          1           0       -2.047219    1.521441   -1.154957
     18          1           0       -1.275138    2.510045    1.027525
     19          1           0       -2.829427    3.339610    1.197550
     20          1           0       -1.728766    3.783212   -0.118152
     21          6           0        3.557334   -2.552002    0.200954
     22          6           0        2.576834   -2.052597    1.064512
     23          6           0        2.177796   -0.714896    0.987878
     24          6           0        2.782927    0.099011    0.031498
     25          6           0        3.762527   -0.368996   -0.842941
     26          6           0        4.146014   -1.710091   -0.748343
     27          1           0        3.861276   -3.592478    0.267462
     28          1           0        2.117935   -2.704131    1.802727
     29          1           0        1.421109   -0.302189    1.644015
     30          1           0        4.201838    0.304762   -1.568526
     31          1           0        4.907734   -2.095201   -1.420294
     32          7           0        2.368715    1.516972   -0.059141
     33          8           0        2.917152    2.213530   -0.910412
     34          8           0        1.503463    1.904964    0.722805
 ---------------------------------------------------------------------

 SCF Done:  E(RHF) =  -669.535907870     A.U. after   15 cycles
 E2 =    -0.2091012528D+01 EUMP2 =    -0.67162692039802D+03

 The electronic state is 1-A.
 Alpha  occ. eigenvalues --  -20.60925 -20.60919 -15.85965 -11.31300 -11.27869
 Alpha  occ. eigenvalues --  -11.27859 -11.27601 -11.26875 -11.26865 -11.21457
 Alpha  occ. eigenvalues --  -11.21073 -11.20993 -11.20889 -11.20769 -11.19759
 Alpha  occ. eigenvalues --   -1.59988  -1.39545  -1.19469  -1.08870  -1.07988
 Alpha  occ. eigenvalues --   -1.04868  -1.02978  -0.95713  -0.95401  -0.86421
 Alpha  occ. eigenvalues --   -0.86267  -0.82545  -0.79087  -0.77768  -0.77591
 Alpha  occ. eigenvalues --   -0.72192  -0.71306  -0.70578  -0.65127  -0.64870
 Alpha  occ. eigenvalues --   -0.64626  -0.62216  -0.60368  -0.58849  -0.57008
 Alpha  occ. eigenvalues --   -0.55370  -0.54680  -0.53198  -0.52960  -0.52074
 Alpha  occ. eigenvalues --   -0.51833  -0.49383  -0.48945  -0.48904  -0.47379
 Alpha  occ. eigenvalues --   -0.46144  -0.45315  -0.45229  -0.44879  -0.43247
 Alpha  occ. eigenvalues --   -0.37447  -0.36471
 Alpha virt. eigenvalues --    0.04918   0.11182   0.16395   0.21190   0.23193
 Alpha virt. eigenvalues --    0.24789   0.26611   0.27350   0.27723   0.28339
 Alpha virt. eigenvalues --    0.28841   0.30755   0.31762   0.32128   0.32506

 Mulliken charges:
               1
     1  C   -0.297734
     2  C   -0.298471
     3  C   -0.475298
     4  H    0.149808
     5  H    0.147964
     6  H    0.152089
     7  H    0.147971
     8  H    0.153874
     9  H    0.155859
    10  H    0.158578
    11  C   -0.296653
    12  C   -0.298951
    13  C   -0.480335
    14  H    0.148403
    15  H    0.145283
    16  H    0.148205
    17  H    0.151538
    18  H    0.175050
    19  H    0.146746
    20  H    0.163286
    21  C   -0.170671
    22  C   -0.218494
    23  C   -0.170952
    24  C    0.157928
    25  C   -0.170791
    26  C   -0.218516
    27  H    0.226062
    28  H    0.223896
    29  H    0.275131
    30  H    0.275923
    31  H    0.223876
    32  N    0.491880
    33  O   -0.458992
    34  O   -0.463490
 Sum of Mulliken charges =  -0.00000

 Dipole moment (field-independent basis, Debye):
    X=              1.6919    Y=             -4.9245    Z=              0.3197  Tot=              5.2169
 Quadrupole moment (field-independent basis, Debye-Ang):
   XX=            -85.0307   YY=            -96.7372   ZZ=            -92.6376
   XY=            -14.3549   XZ=             -2.2681   YZ=             -1.1511

 Normal termination of Gaussian 16 at Thu May  6 04:11:26 2021.
