 Gaussian 16, Revision A.03,
 Gaussian 16:  EM64L-G16RevA.03 25-Dec-2016

 -------------
 #p 6-31g* mp2
 -------------

 ------------------------------------------------------
 Input file generated by CHIRIPA (05-May-2021 14:57:22)
 ------------------------------------------------------
 Symbolic Z-matrix:
 Charge =  0 Multiplicity = 1

                         Standard orientation:
 ---------------------------------------------------------------------
 Center     Atomic      Atomic             Coordinates (Angstroms)
 Number     Number       Type             X           Y           Z
 ---------------------------------------------------------------------
      1          6           0       -2.095871   -1.954866    0.256508
      2          6           0       -3.334618   -2.201846    0.857364
      3          6           0       -4.384219   -1.288328    0.721825
      4          6           0       -4.159243   -0.132898   -0.024939
      5          6           0       -2.936511    0.141508   -0.635607
      6          6           0       -1.901114   -0.786038   -0.486750
      7          1           0       -1.286032   -2.669958    0.366971
      8          1           0       -3.488729   -3.108731    1.435164
      9          1           0       -5.353330   -1.454530    1.176380
     10          1           0       -2.813033    1.054407   -1.205508
     11          1           0       -0.940147   -0.591610   -0.954494
     12          7           0       -5.262891    0.841628   -0.175478
     13          8           0       -5.039233    1.852075   -0.838510
     14          8           0       -6.330689    0.576562    0.372413
     15          6           0        2.485594    2.300952    0.332950
     16          6           0        3.811553    2.332836    0.777176
     17          6           0        4.647150    1.226378    0.598082
     18          6           0        4.121566    0.099439   -0.032048
     19          6           0        2.804898    0.037057   -0.485680
     20          6           0        1.987377    1.155185   -0.295951
     21          1           0        1.843502    3.165009    0.476206
     22          1           0        4.201176    3.221302    1.265917
     23          1           0        5.677561    1.224045    0.932247
     24          1           0        2.444958   -0.862857   -0.969432
     25          1           0        0.958028    1.127592   -0.641964
     26          7           0        4.996608   -1.078095   -0.227276
     27          8           0        4.509544   -2.058900   -0.785332
     28          8           0        6.152960   -0.997946    0.181457
 ---------------------------------------------------------------------

 SCF Done:  E(RHF) =  -868.336987672     A.U. after   16 cycles
 E2 =    -0.2599485660D+01 EUMP2 =    -0.87093647333158D+03

 The electronic state is 1-A.
 Alpha  occ. eigenvalues --  -20.61341 -20.61323 -20.61250 -20.61237 -15.86393
 Alpha  occ. eigenvalues --  -15.86306 -11.31814 -11.31740 -11.28476 -11.28404
 Alpha  occ. eigenvalues --  -11.28344 -11.28292 -11.28107 -11.28065 -11.27503
 Alpha  occ. eigenvalues --  -11.27473 -11.27340 -11.27277  -1.60409  -1.60321
 Alpha  occ. eigenvalues --   -1.39962  -1.39873  -1.19991  -1.19931  -1.09363
 Alpha  occ. eigenvalues --   -1.09301  -1.05431  -1.05357  -0.96191  -0.96122
 Alpha  occ. eigenvalues --   -0.86825  -0.86737  -0.83056  -0.82956  -0.78123
 Alpha  occ. eigenvalues --   -0.77982  -0.72608  -0.72521  -0.71733  -0.71647
 Alpha  occ. eigenvalues --   -0.71079  -0.71010  -0.65661  -0.65602  -0.65576
 Alpha  occ. eigenvalues --   -0.65254  -0.62915  -0.62579  -0.55885  -0.55806
 Alpha  occ. eigenvalues --   -0.53735  -0.53686  -0.53617  -0.53331  -0.49373
 Alpha  occ. eigenvalues --   -0.49360  -0.49285  -0.49272  -0.45356  -0.45264
 Alpha  occ. eigenvalues --   -0.37944  -0.37884  -0.37047  -0.36944
 Alpha virt. eigenvalues --    0.04474   0.04548   0.10560   0.10740   0.15883
 Alpha virt. eigenvalues --    0.16011   0.18019   0.22022   0.24530   0.26933
 Alpha virt. eigenvalues --    0.28057   0.28848   0.29779   0.31441   0.32265

 Mulliken charges:
               1
     1  C   -0.169954
     2  C   -0.218467
     3  C   -0.169597
     4  C    0.158798
     5  C   -0.171904
     6  C   -0.220476
     7  H    0.230005
     8  H    0.226751
     9  H    0.277720
    10  H    0.273042
    11  H    0.216066
    12  N    0.488154
    13  O   -0.461076
    14  O   -0.458310
    15  C   -0.170224
    16  C   -0.218170
    17  C   -0.169967
    18  C    0.159070
    19  C   -0.172159
    20  C   -0.218753
    21  H    0.229594
    22  H    0.226487
    23  H    0.277688
    24  H    0.269768
    25  H    0.217527
    26  N    0.488217
    27  O   -0.461950
    28  O   -0.457882
 Sum of Mulliken charges =  -0.00000

 Dipole moment (field-independent basis, Debye):
    X=              0.8099    Y=              0.7157    Z=              1.3867  Tot=              1.7581
 Quadrupole moment (field-independent basis, Debye-Ang):
   XX=           -157.2645   YY=           -100.5362   ZZ=           -103.6851
   XY=             35.5205   XZ=              0.6772   YZ=             -0.6948

 Normal termination of Gaussian 16 at Thu May  6 22:41:28 2021.
