 Gaussian 16, Revision A.03,
 Gaussian 16:  EM64L-G16RevA.03 25-Dec-2016

 -------------
 #p 6-31g* mp2
 -------------

 ------------------------------------------------------
 Input file generated by CHIRIPA (05-May-2021 14:51:11)
 ------------------------------------------------------
 Symbolic Z-matrix:
 Charge =  0 Multiplicity = 1

                         Standard orientation:
 ---------------------------------------------------------------------
 Center     Atomic      Atomic             Coordinates (Angstroms)
 Number     Number       Type             X           Y           Z
 ---------------------------------------------------------------------
      1          6           0       -2.471210    1.343254    0.140273
      2          6           0       -1.395572    1.836732    1.108503
      3          6           0       -1.516023    3.329857    1.414872
      4          1           0       -2.405600    1.917214   -0.794184
      5          1           0       -3.462167    1.552265    0.566551
      6          1           0       -0.406931    1.625603    0.681152
      7          1           0       -1.463627    1.261400    2.040693
      8          1           0       -2.488911    3.553640    1.864330
      9          1           0       -1.426211    3.919912    0.497065
     10          1           0       -0.737371    3.661376    2.108886
     11          6           0       -2.363995   -0.147506   -0.175750
     12          6           0       -3.439632   -0.640984   -1.143979
     13          6           0       -3.319181   -2.134109   -1.450348
     14          1           0       -1.373038   -0.356517   -0.602027
     15          1           0       -2.429605   -0.721466    0.758708
     16          1           0       -3.371578   -0.065652   -2.076169
     17          1           0       -4.428273   -0.429855   -0.716629
     18          1           0       -3.408993   -2.724164   -0.532541
     19          1           0       -2.346293   -2.357892   -1.899806
     20          1           0       -4.097834   -2.465628   -2.144362
     21          6           0        2.474850   -0.166055   -0.609707
     22          6           0        3.502327    0.958860   -0.479940
     23          6           0        3.605366    1.814002   -1.743234
     24          1           0        2.743237   -0.802417   -1.464083
     25          1           0        1.492480    0.268871   -0.840326
     26          1           0        4.482188    0.522035   -0.248269
     27          1           0        3.231569    1.592506    0.374343
     28          1           0        2.640584    2.276703   -1.974974
     29          1           0        3.898309    1.200151   -2.601122
     30          1           0        4.345535    2.612036   -1.628561
     31          6           0        2.360355   -1.029693    0.645183
     32          6           0        1.332878   -2.154608    0.515416
     33          6           0        1.229837   -3.009750    1.778710
     34          1           0        3.342724   -1.464619    0.875802
     35          1           0        2.091967   -0.393331    1.499560
     36          1           0        1.603635   -2.788254   -0.338866
     37          1           0        0.353016   -1.717783    0.283745
     38          1           0        0.936895   -2.395898    2.636598
     39          1           0        2.194620   -3.472451    2.010450
     40          1           0        0.489669   -3.807784    1.664038
 ---------------------------------------------------------------------

 SCF Done:  E(RHF) =  -470.733110347     A.U. after   11 cycles
 E2 =    -0.1584232702D+01 EUMP2 =    -0.47231734304941D+03

 The electronic state is 1-A.
 Alpha  occ. eigenvalues --  -11.21698 -11.21650 -11.21619 -11.21483 -11.21478
 Alpha  occ. eigenvalues --  -11.21418 -11.21410 -11.21322 -11.21144 -11.21096
 Alpha  occ. eigenvalues --  -11.21095 -11.21012  -1.08523  -1.08401  -1.03596
 Alpha  occ. eigenvalues --   -1.03501  -0.96042  -0.95961  -0.87060  -0.86974
 Alpha  occ. eigenvalues --   -0.79688  -0.79550  -0.78447  -0.78122  -0.65293
 Alpha  occ. eigenvalues --   -0.64903  -0.61025  -0.60877  -0.59423  -0.59317
 Alpha  occ. eigenvalues --   -0.57656  -0.57569  -0.55329  -0.55253  -0.52735
 Alpha  occ. eigenvalues --   -0.52653  -0.52486  -0.52371  -0.50013  -0.49881
 Alpha  occ. eigenvalues --   -0.48063  -0.47841  -0.46785  -0.46612  -0.46321
 Alpha  occ. eigenvalues --   -0.45810  -0.45735  -0.45042  -0.43850  -0.43758
 Alpha virt. eigenvalues --    0.19565   0.23005   0.23724   0.24507   0.24998
 Alpha virt. eigenvalues --    0.26641   0.27245   0.27734   0.28056   0.30151
 Alpha virt. eigenvalues --    0.31254   0.31580   0.31632   0.31948   0.32160

 Mulliken charges:
               1
     1  C   -0.297347
     2  C   -0.304366
     3  C   -0.475544
     4  H    0.149598
     5  H    0.150039
     6  H    0.155012
     7  H    0.152058
     8  H    0.155650
     9  H    0.155372
    10  H    0.160362
    11  C   -0.306595
    12  C   -0.298960
    13  C   -0.476487
    14  H    0.156776
    15  H    0.150167
    16  H    0.152007
    17  H    0.152119
    18  H    0.155250
    19  H    0.156048
    20  H    0.160533
    21  C   -0.302983
    22  C   -0.299895
    23  C   -0.475585
    24  H    0.149756
    25  H    0.151886
    26  H    0.152351
    27  H    0.152186
    28  H    0.154603
    29  H    0.155217
    30  H    0.160461
    31  C   -0.298013
    32  C   -0.308673
    33  C   -0.475187
    34  H    0.149353
    35  H    0.150329
    36  H    0.150792
    37  H    0.162124
    38  H    0.154812
    39  H    0.154749
    40  H    0.160025
 Sum of Mulliken charges =  -0.00000

 Dipole moment (field-independent basis, Debye):
    X=             -0.0446    Y=              0.0141    Z=             -0.0058  Tot=              0.0472
 Quadrupole moment (field-independent basis, Debye-Ang):
   XX=            -83.8696   YY=            -86.0291   ZZ=            -84.8298
   XY=             -0.4616   XZ=             -0.6159   YZ=              0.3600

 Normal termination of Gaussian 16 at Wed May  5 16:43:32 2021.
