 Gaussian 16, Revision A.03,
 Gaussian 16:  EM64L-G16RevA.03 25-Dec-2016

 -------------
 #p 6-31g* mp2
 -------------

 ------------------------------------------------------
 Input file generated by CHIRIPA (05-May-2021 14:55:21)
 ------------------------------------------------------
 Symbolic Z-matrix:
 Charge =  0 Multiplicity = 1

                         Standard orientation:
 ---------------------------------------------------------------------
 Center     Atomic      Atomic             Coordinates (Angstroms)
 Number     Number       Type             X           Y           Z
 ---------------------------------------------------------------------
      1          6           0       -1.327860    2.392846   -0.283460
      2          6           0       -0.998200    1.384006   -1.194551
      3          6           0       -1.731814    0.194517   -1.232935
      4          6           0       -2.793609    0.046688   -0.341851
      5          6           0       -3.146631    1.033358    0.577467
      6          6           0       -2.399135    2.214617    0.598087
      7          1           0       -0.752579    3.313673   -0.260543
      8          1           0       -0.166747    1.519671   -1.880354
      9          1           0       -1.498286   -0.602784   -1.928057
     10          1           0       -3.980867    0.869132    1.248658
     11          1           0       -2.657426    2.996388    1.306723
     12          7           0       -3.577601   -1.208215   -0.373083
     13          8           0       -4.508482   -1.313978    0.422474
     14          8           0       -3.246369   -2.062282   -1.192529
     15          6           0        3.813937   -0.286236   -0.216436
     16          6           0        5.318254   -0.138911    0.014454
     17          6           0        6.112002   -0.063709   -1.290192
     18          1           0        3.627750   -1.189666   -0.813172
     19          1           0        3.457060    0.563041   -0.815405
     20          1           0        5.671935   -0.987494    0.613981
     21          1           0        5.500865    0.764169    0.610871
     22          1           0        5.787224    0.792720   -1.889900
     23          1           0        5.959266   -0.968896   -1.886773
     24          1           0        7.185000    0.041416   -1.101818
     25          6           0        3.006921   -0.362751    1.078399
     26          6           0        1.502603   -0.510076    0.847508
     27          6           0        0.708854   -0.585279    2.152155
     28          1           0        3.363797   -1.212027    1.677368
     29          1           0        3.193106    0.540679    1.675134
     30          1           0        1.319992   -1.413156    0.251091
     31          1           0        1.148922    0.338507    0.247982
     32          1           0        0.861590    0.319909    2.748736
     33          1           0        1.033633   -1.441707    2.751863
     34          1           0       -0.364144   -0.690404    1.963780
 ---------------------------------------------------------------------

 SCF Done:  E(RHF) =  -669.534669419     A.U. after   15 cycles
 E2 =    -0.2093729694D+01 EUMP2 =    -0.67162839911267D+03

 The electronic state is 1-A.
 Alpha  occ. eigenvalues --  -20.60823 -20.60818 -15.85878 -11.31276 -11.27822
 Alpha  occ. eigenvalues --  -11.27811 -11.27567 -11.26851 -11.26831 -11.21920
 Alpha  occ. eigenvalues --  -11.21761 -11.21709 -11.21607 -11.21383 -11.21151
 Alpha  occ. eigenvalues --   -1.59899  -1.39451  -1.19444  -1.08842  -1.08705
 Alpha  occ. eigenvalues --   -1.04848  -1.03757  -0.96215  -0.95661  -0.87231
 Alpha  occ. eigenvalues --   -0.86245  -0.82492  -0.79841  -0.78547  -0.77529
 Alpha  occ. eigenvalues --   -0.72094  -0.71226  -0.70536  -0.65367  -0.65091
 Alpha  occ. eigenvalues --   -0.64838  -0.62187  -0.61177  -0.59613  -0.57870
 Alpha  occ. eigenvalues --   -0.55529  -0.55340  -0.53293  -0.52936  -0.52746
 Alpha  occ. eigenvalues --   -0.52569  -0.50165  -0.48857  -0.48847  -0.48168
 Alpha  occ. eigenvalues --   -0.46884  -0.46083  -0.46015  -0.44848  -0.44035
 Alpha  occ. eigenvalues --   -0.37386  -0.36334
 Alpha virt. eigenvalues --    0.04993   0.11110   0.16465   0.20962   0.22694
 Alpha virt. eigenvalues --    0.24015   0.25861   0.26574   0.27482   0.28246
 Alpha virt. eigenvalues --    0.28441   0.30728   0.31217   0.31388   0.31880

 Mulliken charges:
               1
     1  C   -0.170550
     2  C   -0.219010
     3  C   -0.167579
     4  C    0.158668
     5  C   -0.172108
     6  C   -0.216797
     7  H    0.225838
     8  H    0.224698
     9  H    0.276256
    10  H    0.276069
    11  H    0.223938
    12  N    0.487690
    13  O   -0.460080
    14  O   -0.460054
    15  C   -0.297160
    16  C   -0.299586
    17  C   -0.475733
    18  H    0.150952
    19  H    0.142268
    20  H    0.153975
    21  H    0.151370
    22  H    0.153157
    23  H    0.156174
    24  H    0.161406
    25  C   -0.297959
    26  C   -0.303945
    27  C   -0.475691
    28  H    0.151403
    29  H    0.147505
    30  H    0.152014
    31  H    0.151981
    32  H    0.151254
    33  H    0.156807
    34  H    0.162827
 Sum of Mulliken charges =  -0.00000

 Dipole moment (field-independent basis, Debye):
    X=              2.6880    Y=              4.4101    Z=              0.0962  Tot=              5.1656
 Quadrupole moment (field-independent basis, Debye-Ang):
   XX=           -109.5240   YY=            -93.2168   ZZ=            -93.2476
   XY=            -13.7900   XZ=             -3.1150   YZ=              0.0042

 Normal termination of Gaussian 16 at Thu May  6 03:01:25 2021.
