 Gaussian 16, Revision A.03,
 Gaussian 16:  EM64L-G16RevA.03 25-Dec-2016

 -------------
 #p 6-31g* mp2
 -------------

 ------------------------------------------------------
 Input file generated by CHIRIPA (05-May-2021 14:51:09)
 ------------------------------------------------------
 Symbolic Z-matrix:
 Charge =  0 Multiplicity = 1

                         Standard orientation:
 ---------------------------------------------------------------------
 Center     Atomic      Atomic             Coordinates (Angstroms)
 Number     Number       Type             X           Y           Z
 ---------------------------------------------------------------------
      1          6           0        4.341518   -0.358768   -0.093277
      2          6           0        5.826099   -0.535028    0.227561
      3          6           0        6.309828   -1.970268    0.018073
      4          1           0        3.753447   -1.040926    0.535832
      5          1           0        4.160346   -0.659451   -1.134507
      6          1           0        6.004662   -0.232791    1.267458
      7          1           0        6.410691    0.147766   -0.402248
      8          1           0        6.160438   -2.279274   -1.021541
      9          1           0        5.752102   -2.661993    0.657651
     10          1           0        7.373722   -2.073704    0.253210
     11          6           0        3.843063    1.070712    0.111317
     12          6           0        2.358482    1.246972   -0.209521
     13          6           0        1.874753    2.682213   -0.000033
     14          1           0        4.024235    1.371395    1.152548
     15          1           0        4.431134    1.752870   -0.517791
     16          1           0        1.773890    0.564178    0.420289
     17          1           0        2.179918    0.944735   -1.249417
     18          1           0        2.432479    3.373938   -0.639611
     19          1           0        2.024143    2.991218    1.039582
     20          1           0        0.810858    2.785649   -0.235169
     21          6           0       -4.792102   -0.661988   -0.001984
     22          6           0       -5.908050    0.378747    0.095570
     23          6           0       -7.302221   -0.248878    0.108574
     24          1           0       -4.935275   -1.259539   -0.912687
     25          1           0       -4.874114   -1.357777    0.844508
     26          1           0       -5.823121    1.073191   -0.750096
     27          1           0       -5.762095    0.974015    1.006047
     28          1           0       -7.411422   -0.927134    0.961008
     29          1           0       -7.472795   -0.827395   -0.805113
     30          1           0       -8.084830    0.512995    0.178795
     31          6           0       -3.392478   -0.049956   -0.016057
     32          6           0       -2.276531   -1.090691   -0.113611
     33          6           0       -0.882360   -0.463067   -0.126614
     34          1           0       -3.310467    0.645833   -0.862548
     35          1           0       -3.249305    0.547594    0.894646
     36          1           0       -2.422486   -1.685959   -1.024087
     37          1           0       -2.361460   -1.785135    0.732055
     38          1           0       -0.711786    0.115450    0.787073
     39          1           0       -0.773160    0.215189   -0.979049
     40          1           0       -0.099751   -1.224940   -0.196836
 ---------------------------------------------------------------------

 SCF Done:  E(RHF) =  -470.732725326     A.U. after   11 cycles
 E2 =    -0.1583009700D+01 EUMP2 =    -0.47231573502606D+03

 The electronic state is 1-A.
 Alpha  occ. eigenvalues --  -11.21603 -11.21581 -11.21560 -11.21408 -11.21403
 Alpha  occ. eigenvalues --  -11.21348 -11.21333 -11.21256 -11.21073 -11.21055
 Alpha  occ. eigenvalues --  -11.21043 -11.20967  -1.08435  -1.08344  -1.03557
 Alpha  occ. eigenvalues --   -1.03421  -0.96014  -0.95878  -0.87023  -0.86909
 Alpha  occ. eigenvalues --   -0.79731  -0.79396  -0.78277  -0.78107  -0.65073
 Alpha  occ. eigenvalues --   -0.64974  -0.60984  -0.60801  -0.59386  -0.59252
 Alpha  occ. eigenvalues --   -0.57691  -0.57421  -0.55308  -0.55165  -0.52735
 Alpha  occ. eigenvalues --   -0.52597  -0.52410  -0.52277  -0.49967  -0.49814
 Alpha  occ. eigenvalues --   -0.47955  -0.47773  -0.46716  -0.46455  -0.45860
 Alpha  occ. eigenvalues --   -0.45727  -0.45644  -0.45554  -0.43774  -0.43655
 Alpha virt. eigenvalues --    0.21961   0.23035   0.23548   0.24872   0.26229
 Alpha virt. eigenvalues --    0.26508   0.26900   0.27195   0.27925   0.29262
 Alpha virt. eigenvalues --    0.30362   0.31186   0.31633   0.31791   0.32441

 Mulliken charges:
               1
     1  C   -0.298174
     2  C   -0.299488
     3  C   -0.475654
     4  H    0.149099
     5  H    0.149268
     6  H    0.151805
     7  H    0.151906
     8  H    0.155066
     9  H    0.155004
    10  H    0.160113
    11  C   -0.297823
    12  C   -0.303300
    13  C   -0.477350
    14  H    0.148776
    15  H    0.148872
    16  H    0.160717
    17  H    0.150841
    18  H    0.154487
    19  H    0.154227
    20  H    0.161227
    21  C   -0.298230
    22  C   -0.299624
    23  C   -0.475703
    24  H    0.149666
    25  H    0.149505
    26  H    0.151918
    27  H    0.151935
    28  H    0.155171
    29  H    0.155179
    30  H    0.160269
    31  C   -0.298450
    32  C   -0.301157
    33  C   -0.475560
    34  H    0.149307
    35  H    0.149576
    36  H    0.151800
    37  H    0.151613
    38  H    0.155166
    39  H    0.157040
    40  H    0.160962
 Sum of Mulliken charges =  -0.00000

 Dipole moment (field-independent basis, Debye):
    X=             -0.0345    Y=             -0.0177    Z=             -0.0003  Tot=              0.0388
 Quadrupole moment (field-independent basis, Debye-Ang):
   XX=            -86.4426   YY=            -85.9361   ZZ=            -82.7788
   XY=              0.1535   XZ=             -0.1130   YZ=             -0.3756

 Normal termination of Gaussian 16 at Thu May  6 03:45:33 2021.
