 Gaussian 16, Revision A.03,
 Gaussian 16:  EM64L-G16RevA.03 25-Dec-2016

 -------------
 #p 6-31g* mp2
 -------------

 ------------------------------------------------------
 Input file generated by CHIRIPA (05-May-2021 14:55:21)
 ------------------------------------------------------
 Symbolic Z-matrix:
 Charge =  0 Multiplicity = 1

                         Standard orientation:
 ---------------------------------------------------------------------
 Center     Atomic      Atomic             Coordinates (Angstroms)
 Number     Number       Type             X           Y           Z
 ---------------------------------------------------------------------
      1          6           0       -5.304923   -0.234353   -0.583377
      2          6           0       -4.947083    0.110068    0.724234
      3          6           0       -3.603128    0.139237    1.108266
      4          6           0       -2.638680   -0.183121    0.154737
      5          6           0       -2.963511   -0.530252   -1.155711
      6          6           0       -4.313742   -0.552853   -1.517529
      7          1           0       -6.351378   -0.254461   -0.873074
      8          1           0       -5.714712    0.357884    1.451818
      9          1           0       -3.298134    0.402368    2.113830
     10          1           0       -2.175798   -0.772386   -1.858773
     11          1           0       -4.588714   -0.820702   -2.533744
     12          7           0       -1.212573   -0.155717    0.549537
     13          8           0       -0.381892   -0.443853   -0.309291
     14          8           0       -0.952474    0.153378    1.710332
     15          6           0        3.282795    0.830142    0.166110
     16          6           0        3.332022    2.072166   -0.724360
     17          6           0        2.535973    3.243960   -0.149034
     18          1           0        2.235634    0.529546    0.307680
     19          1           0        3.671989    1.085482    1.161461
     20          1           0        2.944139    1.814209   -1.718151
     21          1           0        4.379198    2.369727   -0.863983
     22          1           0        2.926197    3.529456    0.833218
     23          1           0        1.482984    2.970781   -0.025804
     24          1           0        2.584735    4.121295   -0.801543
     25          6           0        4.073929   -0.349792   -0.395665
     26          6           0        4.024702   -1.591816    0.494805
     27          6           0        4.820750   -2.763610   -0.080519
     28          1           0        3.684735   -0.605132   -1.391016
     29          1           0        5.121089   -0.049196   -0.537235
     30          1           0        2.977525   -1.889377    0.634429
     31          1           0        4.412585   -1.333859    1.488597
     32          1           0        5.873740   -2.490432   -0.203750
     33          1           0        4.430526   -3.049105   -1.062772
     34          1           0        4.771988   -3.640944    0.571988
 ---------------------------------------------------------------------

 SCF Done:  E(RHF) =  -669.536945613     A.U. after   15 cycles
 E2 =    -0.2091554377D+01 EUMP2 =    -0.67162849998938D+03

 The electronic state is 1-A.
 Alpha  occ. eigenvalues --  -20.61165 -20.61151 -15.86158 -11.31413 -11.27963
 Alpha  occ. eigenvalues --  -11.27958 -11.27687 -11.26952 -11.26942 -11.20271
 Alpha  occ. eigenvalues --  -11.20240 -11.20034 -11.19964 -11.19899 -11.19542
 Alpha  occ. eigenvalues --   -1.60199  -1.39756  -1.19570  -1.08989  -1.06964
 Alpha  occ. eigenvalues --   -1.04954  -1.02239  -0.95841  -0.94688  -0.86358
 Alpha  occ. eigenvalues --   -0.85718  -0.82676  -0.78294  -0.77739  -0.76740
 Alpha  occ. eigenvalues --   -0.72369  -0.71503  -0.70678  -0.65226  -0.64958
 Alpha  occ. eigenvalues --   -0.63575  -0.62301  -0.59639  -0.58071  -0.56306
 Alpha  occ. eigenvalues --   -0.55463  -0.53974  -0.53290  -0.53044  -0.51461
 Alpha  occ. eigenvalues --   -0.51133  -0.49220  -0.49128  -0.48590  -0.46623
 Alpha  occ. eigenvalues --   -0.45323  -0.45166  -0.44326  -0.44042  -0.42430
 Alpha  occ. eigenvalues --   -0.37545  -0.36551
 Alpha virt. eigenvalues --    0.04778   0.11106   0.16292   0.21244   0.24302
 Alpha virt. eigenvalues --    0.25507   0.27174   0.27971   0.28242   0.28945
 Alpha virt. eigenvalues --    0.29356   0.30851   0.32373   0.32565   0.32950

 Mulliken charges:
               1
     1  C   -0.170286
     2  C   -0.218604
     3  C   -0.170523
     4  C    0.158093
     5  C   -0.170582
     6  C   -0.218554
     7  H    0.226469
     8  H    0.224292
     9  H    0.276228
    10  H    0.275886
    11  H    0.224260
    12  N    0.488604
    13  O   -0.460288
    14  O   -0.457664
    15  C   -0.312316
    16  C   -0.297246
    17  C   -0.474815
    18  H    0.183457
    19  H    0.143163
    20  H    0.149326
    21  H    0.145265
    22  H    0.153096
    23  H    0.158790
    24  H    0.152977
    25  C   -0.295472
    26  C   -0.301163
    27  C   -0.474853
    28  H    0.147755
    29  H    0.142228
    30  H    0.162912
    31  H    0.148701
    32  H    0.151436
    33  H    0.152931
    34  H    0.156499
 Sum of Mulliken charges =  -0.00000

 Dipole moment (field-independent basis, Debye):
    X=             -5.5417    Y=             -0.1884    Z=             -1.3064  Tot=              5.6967
 Quadrupole moment (field-independent basis, Debye-Ang):
   XX=            -69.6578   YY=            -96.8764   ZZ=            -90.8859
   XY=              1.4023   XZ=              2.3754   YZ=              1.7812

 Normal termination of Gaussian 16 at Thu May  6 09:19:02 2021.
