 Gaussian 16, Revision A.03,
 Gaussian 16:  EM64L-G16RevA.03 25-Dec-2016

 -------------
 #p 6-31g* mp2
 -------------

 ------------------------------------------------------
 Input file generated by CHIRIPA (05-May-2021 14:51:10)
 ------------------------------------------------------
 Symbolic Z-matrix:
 Charge =  0 Multiplicity = 1

                         Standard orientation:
 ---------------------------------------------------------------------
 Center     Atomic      Atomic             Coordinates (Angstroms)
 Number     Number       Type             X           Y           Z
 ---------------------------------------------------------------------
      1          6           0        3.801953    0.078859    0.004539
      2          6           0        5.265067   -0.274539   -0.264518
      3          6           0        6.144325    0.960246   -0.464532
      4          1           0        3.415073    0.674355   -0.833705
      5          1           0        3.744559    0.719238    0.895615
      6          1           0        5.319557   -0.915196   -1.154016
      7          1           0        5.648453   -0.869426    0.574375
      8          1           0        6.119705    1.598795    0.424429
      9          1           0        5.788941    1.552764   -1.313782
     10          1           0        7.186152    0.684577   -0.655481
     11          6           0        2.910376   -1.145064    0.206609
     12          6           0        1.447262   -0.791666    0.475667
     13          6           0        0.568004   -2.026452    0.675680
     14          1           0        2.967770   -1.785443   -0.684466
     15          1           0        3.297256   -1.740560    1.044854
     16          1           0        1.063876   -0.196780   -0.363226
     17          1           0        1.392772   -0.151009    1.365164
     18          1           0        0.923388   -2.618970    1.524931
     19          1           0        0.592624   -2.665000   -0.213280
     20          1           0       -0.473823   -1.750782    0.866630
     21          6           0       -3.318627   -0.189196   -0.351151
     22          6           0       -4.566622   -1.008040   -0.019504
     23          6           0       -4.476460   -2.450923   -0.517249
     24          1           0       -3.162752   -0.194365   -1.438635
     25          1           0       -2.439836   -0.676989    0.092896
     26          1           0       -5.442976   -0.518101   -0.462877
     27          1           0       -4.719653   -1.000760    1.067301
     28          1           0       -3.619976   -2.961549   -0.065258
     29          1           0       -4.347408   -2.476147   -1.604130
     30          1           0       -5.379059   -3.018203   -0.269522
     31          6           0       -3.393702    1.255401    0.140002
     32          6           0       -2.145708    2.074244   -0.191645
     33          6           0       -2.235869    3.517129    0.306101
     34          1           0       -4.272493    1.743194   -0.304046
     35          1           0       -3.549577    1.260571    1.227486
     36          1           0       -1.992676    2.066966   -1.278449
     37          1           0       -1.269353    1.584305    0.251729
     38          1           0       -2.364922    3.542352    1.392982
     39          1           0       -3.092354    4.027755   -0.145891
     40          1           0       -1.333271    4.084409    0.058373
 ---------------------------------------------------------------------

 SCF Done:  E(RHF) =  -470.733318005     A.U. after   11 cycles
 E2 =    -0.1583113965D+01 EUMP2 =    -0.47231643197033D+03

 The electronic state is 1-A.
 Alpha  occ. eigenvalues --  -11.21634 -11.21612 -11.21588 -11.21574 -11.21424
 Alpha  occ. eigenvalues --  -11.21386 -11.21364 -11.21326 -11.21107 -11.21078
 Alpha  occ. eigenvalues --  -11.21055 -11.21049  -1.08456  -1.08412  -1.03554
 Alpha  occ. eigenvalues --   -1.03511  -0.96012  -0.95955  -0.87034  -0.86966
 Alpha  occ. eigenvalues --   -0.79653  -0.79537  -0.78283  -0.78214  -0.65096
 Alpha  occ. eigenvalues --   -0.65050  -0.60946  -0.60911  -0.59395  -0.59325
 Alpha  occ. eigenvalues --   -0.57670  -0.57531  -0.55291  -0.55248  -0.52755
 Alpha  occ. eigenvalues --   -0.52646  -0.52474  -0.52324  -0.49946  -0.49899
 Alpha  occ. eigenvalues --   -0.48045  -0.47795  -0.46668  -0.46580  -0.45842
 Alpha  occ. eigenvalues --   -0.45753  -0.45719  -0.45634  -0.43782  -0.43756
 Alpha virt. eigenvalues --    0.20621   0.23063   0.23961   0.24050   0.26003
 Alpha virt. eigenvalues --    0.26559   0.26985   0.27552   0.27967   0.29322
 Alpha virt. eigenvalues --    0.30173   0.31329   0.31666   0.31942   0.32495

 Mulliken charges:
               1
     1  C   -0.298348
     2  C   -0.299677
     3  C   -0.475722
     4  H    0.149861
     5  H    0.149502
     6  H    0.151985
     7  H    0.151946
     8  H    0.155193
     9  H    0.155225
    10  H    0.160293
    11  C   -0.298465
    12  C   -0.301495
    13  C   -0.481950
    14  H    0.149757
    15  H    0.149723
    16  H    0.154676
    17  H    0.151452
    18  H    0.155330
    19  H    0.155940
    20  H    0.164810
    21  C   -0.307411
    22  C   -0.299065
    23  C   -0.476118
    24  H    0.149530
    25  H    0.158028
    26  H    0.151942
    27  H    0.151664
    28  H    0.155744
    29  H    0.155107
    30  H    0.160189
    31  C   -0.297547
    32  C   -0.303242
    33  C   -0.475592
    34  H    0.149544
    35  H    0.149311
    36  H    0.151447
    37  H    0.155993
    38  H    0.155063
    39  H    0.155089
    40  H    0.160288
 Sum of Mulliken charges =  -0.00000

 Dipole moment (field-independent basis, Debye):
    X=              0.0216    Y=             -0.0073    Z=             -0.0069  Tot=              0.0239
 Quadrupole moment (field-independent basis, Debye-Ang):
   XX=            -85.2281   YY=            -86.5141   ZZ=            -83.0709
   XY=             -0.7939   XZ=              0.6621   YZ=             -0.4019

 Normal termination of Gaussian 16 at Thu May  6 00:37:29 2021.
