 Gaussian 16, Revision A.03,
 Gaussian 16:  EM64L-G16RevA.03 25-Dec-2016

 -------------
 #p 6-31g* mp2
 -------------

 ------------------------------------------------------
 Input file generated by CHIRIPA (05-May-2021 14:57:23)
 ------------------------------------------------------
 Symbolic Z-matrix:
 Charge =  0 Multiplicity = 1

                         Standard orientation:
 ---------------------------------------------------------------------
 Center     Atomic      Atomic             Coordinates (Angstroms)
 Number     Number       Type             X           Y           Z
 ---------------------------------------------------------------------
      1          6           0       -3.276565    2.470398    0.816559
      2          6           0       -4.566334    2.079012    0.442616
      3          6           0       -4.803793    0.790784   -0.045882
      4          6           0       -3.723478   -0.084335   -0.147754
      5          6           0       -2.427056    0.275904    0.216673
      6          6           0       -2.212917    1.569183    0.702596
      7          1           0       -3.101159    3.473086    1.195036
      8          1           0       -5.394280    2.776799    0.530042
      9          1           0       -5.792236    0.461571   -0.342560
     10          1           0       -1.621771   -0.441890    0.118147
     11          1           0       -1.210212    1.870391    0.992252
     12          7           0       -3.962521   -1.450798   -0.663542
     13          8           0       -2.993832   -2.203032   -0.743687
     14          8           0       -5.114045   -1.743723   -0.977905
     15          6           0        5.278595    1.487983   -1.019044
     16          6           0        5.747767    0.257425   -0.547741
     17          6           0        4.873302   -0.652817    0.053359
     18          6           0        3.529930   -0.298347    0.167330
     19          6           0        3.032135    0.919914   -0.292377
     20          6           0        3.924664    1.814724   -0.890084
     21          1           0        5.964916    2.189087   -1.484674
     22          1           0        6.798731    0.000998   -0.646549
     23          1           0        5.209740   -1.612335    0.426928
     24          1           0        1.979040    1.147339   -0.179735
     25          1           0        3.557493    2.769673   -1.255192
     26          7           0        2.594611   -1.253811    0.801891
     27          8           0        1.415690   -0.917719    0.890358
     28          8           0        3.058139   -2.320704    1.198779
 ---------------------------------------------------------------------

 SCF Done:  E(RHF) =  -868.338396631     A.U. after   16 cycles
 E2 =    -0.2599114097D+01 EUMP2 =    -0.87093751072863D+03

 The electronic state is 1-A.
 Alpha  occ. eigenvalues --  -20.61296 -20.61237 -20.60111 -20.60074 -15.86322
 Alpha  occ. eigenvalues --  -15.85149 -11.31627 -11.30540 -11.28252 -11.28142
 Alpha  occ. eigenvalues --  -11.27893 -11.27208 -11.27205 -11.27147 -11.26999
 Alpha  occ. eigenvalues --  -11.26988 -11.26239 -11.26166  -1.60319  -1.59175
 Alpha  occ. eigenvalues --   -1.39885  -1.38722  -1.19785  -1.18753  -1.09182
 Alpha  occ. eigenvalues --   -1.08164  -1.05187  -1.04149  -0.96034  -0.94973
 Alpha  occ. eigenvalues --   -0.86587  -0.85559  -0.82880  -0.81795  -0.77942
 Alpha  occ. eigenvalues --   -0.76811  -0.72550  -0.71628  -0.71366  -0.70899
 Alpha  occ. eigenvalues --   -0.70502  -0.69866  -0.65446  -0.65190  -0.64406
 Alpha  occ. eigenvalues --   -0.64170  -0.62549  -0.61460  -0.55675  -0.54708
 Alpha  occ. eigenvalues --   -0.53506  -0.53284  -0.52507  -0.52238  -0.49304
 Alpha  occ. eigenvalues --   -0.49260  -0.48144  -0.48106  -0.45298  -0.44121
 Alpha  occ. eigenvalues --   -0.37746  -0.36788  -0.36784  -0.35762
 Alpha virt. eigenvalues --    0.04603   0.05701   0.10872   0.11878   0.16105
 Alpha virt. eigenvalues --    0.17144   0.20084   0.21990   0.25344   0.27245
 Alpha virt. eigenvalues --    0.28653   0.29064   0.30717   0.31275   0.33027

 Mulliken charges:
               1
     1  C   -0.171174
     2  C   -0.219613
     3  C   -0.171004
     4  C    0.157299
     5  C   -0.175717
     6  C   -0.222383
     7  H    0.221750
     8  H    0.220648
     9  H    0.273853
    10  H    0.295215
    11  H    0.221375
    12  N    0.487317
    13  O   -0.455162
    14  O   -0.464262
    15  C   -0.170346
    16  C   -0.218142
    17  C   -0.170008
    18  C    0.159635
    19  C   -0.169842
    20  C   -0.217988
    21  H    0.227034
    22  H    0.225379
    23  H    0.277551
    24  H    0.267697
    25  H    0.223078
    26  N    0.493038
    27  O   -0.471721
    28  O   -0.453508
 Sum of Mulliken charges =  -0.00000

 Dipole moment (field-independent basis, Debye):
    X=              4.5522    Y=              7.9596    Z=             -0.4204  Tot=              9.1791
 Quadrupole moment (field-independent basis, Debye-Ang):
   XX=            -80.3397   YY=           -106.4715   ZZ=           -107.6448
   XY=            -10.8873   XZ=            -13.3038   YZ=             -0.4975

 Normal termination of Gaussian 16 at Wed May  5 19:25:06 2021.
