 Gaussian 16, Revision A.03,
 Gaussian 16:  EM64L-G16RevA.03 25-Dec-2016

 -------------
 #p 6-31g* mp2
 -------------

 ------------------------------------------------------
 Input file generated by CHIRIPA (05-May-2021 14:51:12)
 ------------------------------------------------------
 Symbolic Z-matrix:
 Charge =  0 Multiplicity = 1

                         Standard orientation:
 ---------------------------------------------------------------------
 Center     Atomic      Atomic             Coordinates (Angstroms)
 Number     Number       Type             X           Y           Z
 ---------------------------------------------------------------------
      1          6           0       -4.172120   -0.329547   -0.321337
      2          6           0       -4.350577   -1.594758    0.518532
      3          6           0       -5.145231   -2.679855   -0.208713
      4          1           0       -5.160710    0.061449   -0.598391
      5          1           0       -3.664513   -0.589825   -1.260477
      6          1           0       -4.856460   -1.331940    1.456415
      7          1           0       -3.361451   -1.982679    0.793779
      8          1           0       -4.640887   -2.970610   -1.135913
      9          1           0       -6.144390   -2.316173   -0.469511
     10          1           0       -5.260889   -3.575371    0.409781
     11          6           0       -3.379711    0.764434    0.392121
     12          6           0       -3.201254    2.029645   -0.447748
     13          6           0       -2.406601    3.114742    0.279496
     14          1           0       -3.887319    1.024712    1.331261
     15          1           0       -2.391122    0.373438    0.669175
     16          1           0       -4.190381    2.417566   -0.722995
     17          1           0       -2.695372    1.766827   -1.385632
     18          1           0       -1.407441    2.751060    0.540295
     19          1           0       -2.910945    3.405497    1.206697
     20          1           0       -2.290943    4.010258   -0.338998
     21          6           0        4.420830   -0.609542    0.081976
     22          6           0        5.684310    0.230105   -0.109328
     23          6           0        6.966349   -0.568265    0.128945
     24          1           0        4.413398   -1.022605    1.099949
     25          1           0        4.452112   -1.467844   -0.603395
     26          1           0        5.650002    1.087325    0.575225
     27          1           0        5.688640    0.641373   -1.126901
     28          1           0        7.027471   -1.414423   -0.563066
     29          1           0        6.988613   -0.965937    1.148731
     30          1           0        7.857345    0.051250   -0.013140
     31          6           0        3.131001    0.174656   -0.152760
     32          6           0        1.867522   -0.664992    0.038544
     33          6           0        0.585482    0.133378   -0.199729
     34          1           0        3.099720    1.032957    0.532611
     35          1           0        3.138434    0.587718   -1.170734
     36          1           0        1.863191   -1.076260    1.056118
     37          1           0        1.901830   -1.522213   -0.646009
     38          1           0        0.563218    0.531050   -1.219514
     39          1           0        0.524360    0.979536    0.492283
     40          1           0       -0.305512   -0.486138   -0.057643
 ---------------------------------------------------------------------

 SCF Done:  E(RHF) =  -470.732845624     A.U. after   11 cycles
 E2 =    -0.1583329319D+01 EUMP2 =    -0.47231617494296D+03

 The electronic state is 1-A.
 Alpha  occ. eigenvalues --  -11.21686 -11.21633 -11.21577 -11.21494 -11.21458
 Alpha  occ. eigenvalues --  -11.21396 -11.21322 -11.21218 -11.21193 -11.21095
 Alpha  occ. eigenvalues --  -11.21050 -11.20960  -1.08490  -1.08350  -1.03604
 Alpha  occ. eigenvalues --   -1.03453  -0.96055  -0.95908  -0.87080  -0.86924
 Alpha  occ. eigenvalues --   -0.79686  -0.79510  -0.78303  -0.78156  -0.65123
 Alpha  occ. eigenvalues --   -0.65001  -0.61021  -0.60844  -0.59435  -0.59270
 Alpha  occ. eigenvalues --   -0.57715  -0.57486  -0.55360  -0.55187  -0.52788
 Alpha  occ. eigenvalues --   -0.52605  -0.52519  -0.52268  -0.50035  -0.49816
 Alpha  occ. eigenvalues --   -0.47992  -0.47812  -0.46760  -0.46496  -0.45854
 Alpha  occ. eigenvalues --   -0.45783  -0.45684  -0.45594  -0.43775  -0.43701
 Alpha virt. eigenvalues --    0.20889   0.22964   0.23534   0.24556   0.26053
 Alpha virt. eigenvalues --    0.26279   0.26849   0.27408   0.27832   0.29194
 Alpha virt. eigenvalues --    0.30265   0.31104   0.31829   0.32096   0.32464

 Mulliken charges:
               1
     1  C   -0.298477
     2  C   -0.299587
     3  C   -0.475612
     4  H    0.149489
     5  H    0.149284
     6  H    0.152042
     7  H    0.150874
     8  H    0.155068
     9  H    0.155245
    10  H    0.160088
    11  C   -0.304937
    12  C   -0.298507
    13  C   -0.479771
    14  H    0.148710
    15  H    0.157346
    16  H    0.151250
    17  H    0.152278
    18  H    0.159539
    19  H    0.154400
    20  H    0.159610
    21  C   -0.298333
    22  C   -0.299690
    23  C   -0.475740
    24  H    0.149783
    25  H    0.149604
    26  H    0.152068
    27  H    0.152014
    28  H    0.155214
    29  H    0.155244
    30  H    0.160390
    31  C   -0.298772
    32  C   -0.299936
    33  C   -0.481220
    34  H    0.149789
    35  H    0.149825
    36  H    0.152363
    37  H    0.152146
    38  H    0.156000
    39  H    0.157441
    40  H    0.163482
 Sum of Mulliken charges =  -0.00000

 Dipole moment (field-independent basis, Debye):
    X=              0.0668    Y=             -0.0113    Z=             -0.0029  Tot=              0.0678
 Quadrupole moment (field-independent basis, Debye-Ang):
   XX=            -85.5129   YY=            -85.6655   ZZ=            -83.8214
   XY=             -0.3275   XZ=             -0.7062   YZ=              0.1186

 Normal termination of Gaussian 16 at Wed May  5 18:18:04 2021.
