 Gaussian 16, Revision A.03,
 Gaussian 16:  EM64L-G16RevA.03 25-Dec-2016

 -------------
 #p 6-31g* mp2
 -------------

 ------------------------------------------------------
 Input file generated by CHIRIPA (05-May-2021 14:51:09)
 ------------------------------------------------------
 Symbolic Z-matrix:
 Charge =  0 Multiplicity = 1

                         Standard orientation:
 ---------------------------------------------------------------------
 Center     Atomic      Atomic             Coordinates (Angstroms)
 Number     Number       Type             X           Y           Z
 ---------------------------------------------------------------------
      1          6           0        3.155666   -0.111746    0.815995
      2          6           0        2.153307    1.031502    0.653993
      3          6           0        1.042653    0.997187    1.704261
      4          1           0        2.621925   -1.070121    0.756120
      5          1           0        3.598092   -0.062601    1.820603
      6          1           0        1.713921    0.981037   -0.350502
      7          1           0        2.689523    1.987263    0.714068
      8          1           0        1.463317    1.070753    2.712344
      9          1           0        0.482172    0.058810    1.641724
     10          1           0        0.337351    1.823228    1.569850
     11          6           0        4.271990   -0.090990   -0.226655
     12          6           0        5.274349   -1.234238   -0.064653
     13          6           0        6.385003   -1.199924   -1.114922
     14          1           0        3.829564   -0.140135   -1.231264
     15          1           0        4.805730    0.867384   -0.166780
     16          1           0        4.738132   -2.189999   -0.124729
     17          1           0        5.713734   -1.183773    0.939842
     18          1           0        6.945484   -0.261546   -1.052385
     19          1           0        5.964339   -1.273490   -2.123004
     20          1           0        7.090305   -2.025964   -0.980511
     21          6           0       -3.470990    0.750759   -0.615221
     22          6           0       -2.013922    1.080153   -0.288970
     23          6           0       -1.542717    2.382179   -0.937421
     24          1           0       -3.589744    0.683095   -1.705296
     25          1           0       -4.110519    1.579829   -0.281994
     26          1           0       -1.377472    0.250096   -0.621464
     27          1           0       -1.898580    1.146851    0.800462
     28          1           0       -2.153159    3.224923   -0.597208
     29          1           0       -1.629089    2.323072   -2.027213
     30          1           0       -0.498480    2.598395   -0.691088
     31          6           0       -3.956667   -0.548023    0.025881
     32          6           0       -5.413734   -0.877417   -0.300369
     33          6           0       -5.884938   -2.179443    0.348082
     34          1           0       -3.317136   -1.377093   -0.307345
     35          1           0       -3.837911   -0.480360    1.115956
     36          1           0       -5.529075   -0.944115   -1.389802
     37          1           0       -6.050183   -0.047359    0.032125
     38          1           0       -5.798567   -2.120337    1.437874
     39          1           0       -5.274498   -3.022187    0.007868
     40          1           0       -6.929175   -2.395659    0.101749
 ---------------------------------------------------------------------

 SCF Done:  E(RHF) =  -470.732151917     A.U. after   11 cycles
 E2 =    -0.1583771844D+01 EUMP2 =    -0.47231592376073D+03

 The electronic state is 1-A.
 Alpha  occ. eigenvalues --  -11.21601 -11.21592 -11.21591 -11.21518 -11.21403
 Alpha  occ. eigenvalues --  -11.21380 -11.21343 -11.21315 -11.21071 -11.21065
 Alpha  occ. eigenvalues --  -11.21037 -11.20968  -1.08448  -1.08385  -1.03607
 Alpha  occ. eigenvalues --   -1.03427  -0.96067  -0.95866  -0.86990  -0.86977
 Alpha  occ. eigenvalues --   -0.79698  -0.79470  -0.78254  -0.78202  -0.65066
 Alpha  occ. eigenvalues --   -0.65038  -0.60975  -0.60936  -0.59748  -0.59032
 Alpha  occ. eigenvalues --   -0.57858  -0.57202  -0.55256  -0.55216  -0.52783
 Alpha  occ. eigenvalues --   -0.52560  -0.52498  -0.52187  -0.49948  -0.49886
 Alpha  occ. eigenvalues --   -0.47921  -0.47870  -0.46686  -0.46530  -0.45810
 Alpha  occ. eigenvalues --   -0.45753  -0.45691  -0.45624  -0.43791  -0.43700
 Alpha virt. eigenvalues --    0.21193   0.23092   0.23387   0.25321   0.26291
 Alpha virt. eigenvalues --    0.26557   0.26796   0.27254   0.27903   0.29265
 Alpha virt. eigenvalues --    0.30188   0.30943   0.31186   0.31567   0.32271

 Mulliken charges:
               1
     1  C   -0.298383
     2  C   -0.302881
     3  C   -0.478434
     4  H    0.149642
     5  H    0.149692
     6  H    0.153848
     7  H    0.151593
     8  H    0.154114
     9  H    0.156979
    10  H    0.164231
    11  C   -0.298324
    12  C   -0.299640
    13  C   -0.475697
    14  H    0.149429
    15  H    0.149674
    16  H    0.151882
    17  H    0.151961
    18  H    0.155202
    19  H    0.155147
    20  H    0.160246
    21  C   -0.298070
    22  C   -0.300576
    23  C   -0.481830
    24  H    0.149086
    25  H    0.149276
    26  H    0.151392
    27  H    0.155754
    28  H    0.154839
    29  H    0.155145
    30  H    0.165193
    31  C   -0.298256
    32  C   -0.299566
    33  C   -0.475692
    34  H    0.148983
    35  H    0.149732
    36  H    0.151888
    37  H    0.151953
    38  H    0.155206
    39  H    0.155043
    40  H    0.160221
 Sum of Mulliken charges =  -0.00000

 Dipole moment (field-independent basis, Debye):
    X=              0.0033    Y=              0.0032    Z=              0.0164  Tot=              0.0170
 Quadrupole moment (field-independent basis, Debye-Ang):
   XX=            -85.5187   YY=            -85.0517   ZZ=            -84.3930
   XY=             -0.1841   XZ=              0.8111   YZ=              1.1264

 Normal termination of Gaussian 16 at Wed May  5 15:06:48 2021.
