 Gaussian 16, Revision A.03,
 Gaussian 16:  EM64L-G16RevA.03 25-Dec-2016

 -------------
 #p 6-31g* mp2
 -------------

 ------------------------------------------------------
 Input file generated by CHIRIPA (05-May-2021 14:51:08)
 ------------------------------------------------------
 Symbolic Z-matrix:
 Charge =  0 Multiplicity = 1

                         Standard orientation:
 ---------------------------------------------------------------------
 Center     Atomic      Atomic             Coordinates (Angstroms)
 Number     Number       Type             X           Y           Z
 ---------------------------------------------------------------------
      1          6           0        3.979143   -0.458266    0.088265
      2          6           0        5.146395   -1.184089   -0.581576
      3          6           0        5.278324   -2.637664   -0.126044
      4          1           0        4.111815   -0.491801    1.178319
      5          1           0        3.047160   -0.997893   -0.129925
      6          1           0        6.075720   -0.642479   -0.363337
      7          1           0        5.011027   -1.148657   -1.670169
      8          1           0        4.367190   -3.198408   -0.358427
      9          1           0        5.437933   -2.689354    0.955831
     10          1           0        6.118937   -3.137602   -0.617260
     11          6           0        3.834281    0.995875   -0.356950
     12          6           0        2.667028    1.721698    0.312891
     13          6           0        2.535099    3.175273   -0.142641
     14          1           0        4.766264    1.535502   -0.138761
     15          1           0        3.701608    1.029410   -1.447005
     16          1           0        2.802396    1.686265    1.401484
     17          1           0        1.737703    1.180087    0.094651
     18          1           0        2.375491    3.226962   -1.224517
     19          1           0        3.446234    3.736016    0.089741
     20          1           0        1.694487    3.675211    0.348574
     21          6           0       -3.234247    0.084830    0.212869
     22          6           0       -2.127118   -0.828036    0.741005
     23          6           0       -0.787837   -0.106159    0.892709
     24          1           0       -2.927468    0.499181   -0.757257
     25          1           0       -3.352040    0.938744    0.894301
     26          1           0       -2.012394   -1.680695    0.059515
     27          1           0       -2.436652   -1.240413    1.709897
     28          1           0       -0.879659    0.733867    1.588788
     29          1           0       -0.452992    0.291084   -0.070970
     30          1           0       -0.010684   -0.777271    1.271525
     31          6           0       -4.579176   -0.622437    0.055816
     32          6           0       -5.686306    0.290427   -0.472320
     33          6           0       -7.025586   -0.431450   -0.624023
     34          1           0       -4.461383   -1.476352   -0.625616
     35          1           0       -4.885956   -1.036788    1.025942
     36          1           0       -5.376773    0.702804   -1.441212
     37          1           0       -5.801029    1.143086    0.209170
     38          1           0       -7.360432   -0.828692    0.339656
     39          1           0       -6.933766   -1.271476   -1.320103
     40          1           0       -7.802740    0.239662   -1.002839
 ---------------------------------------------------------------------

 SCF Done:  E(RHF) =  -470.732941628     A.U. after   11 cycles
 E2 =    -0.1582809679D+01 EUMP2 =    -0.47231575130717D+03

 The electronic state is 1-A.
 Alpha  occ. eigenvalues --  -11.21622 -11.21617 -11.21566 -11.21427 -11.21413
 Alpha  occ. eigenvalues --  -11.21367 -11.21339 -11.21270 -11.21107 -11.21083
 Alpha  occ. eigenvalues --  -11.21048 -11.20981  -1.08455  -1.08354  -1.03564
 Alpha  occ. eigenvalues --   -1.03446  -0.96014  -0.95910  -0.87049  -0.86915
 Alpha  occ. eigenvalues --   -0.79706  -0.79447  -0.78286  -0.78136  -0.65101
 Alpha  occ. eigenvalues --   -0.64979  -0.61013  -0.60811  -0.59384  -0.59272
 Alpha  occ. eigenvalues --   -0.57653  -0.57485  -0.55318  -0.55192  -0.52751
 Alpha  occ. eigenvalues --   -0.52581  -0.52456  -0.52318  -0.50017  -0.49814
 Alpha  occ. eigenvalues --   -0.48057  -0.47736  -0.46751  -0.46450  -0.45881
 Alpha  occ. eigenvalues --   -0.45740  -0.45689  -0.45472  -0.43786  -0.43696
 Alpha virt. eigenvalues --    0.22003   0.23013   0.23915   0.24544   0.25888
 Alpha virt. eigenvalues --    0.26643   0.27012   0.27364   0.27973   0.29270
 Alpha virt. eigenvalues --    0.30387   0.31297   0.31712   0.31854   0.32202

 Mulliken charges:
               1
     1  C   -0.298908
     2  C   -0.299532
     3  C   -0.475661
     4  H    0.149434
     5  H    0.149842
     6  H    0.151933
     7  H    0.151750
     8  H    0.154980
     9  H    0.155091
    10  H    0.160126
    11  C   -0.297524
    12  C   -0.309481
    13  C   -0.475224
    14  H    0.148985
    15  H    0.148747
    16  H    0.150960
    17  H    0.165336
    18  H    0.154184
    19  H    0.154644
    20  H    0.159926
    21  C   -0.298449
    22  C   -0.300238
    23  C   -0.477434
    24  H    0.149602
    25  H    0.149618
    26  H    0.151747
    27  H    0.152077
    28  H    0.156248
    29  H    0.154966
    30  H    0.162032
    31  C   -0.298276
    32  C   -0.299652
    33  C   -0.475720
    34  H    0.149504
    35  H    0.149740
    36  H    0.151935
    37  H    0.151980
    38  H    0.155215
    39  H    0.155182
    40  H    0.160313
 Sum of Mulliken charges =  -0.00000

 Dipole moment (field-independent basis, Debye):
    X=             -0.0490    Y=             -0.0134    Z=              0.0164  Tot=              0.0534
 Quadrupole moment (field-independent basis, Debye-Ang):
   XX=            -85.6874   YY=            -86.0527   ZZ=            -83.3376
   XY=             -0.1069   XZ=              0.0248   YZ=              0.6742

 Normal termination of Gaussian 16 at Wed May  5 16:35:02 2021.
