 Gaussian 16, Revision A.03,
 Gaussian 16:  EM64L-G16RevA.03 25-Dec-2016

 -------------
 #p 6-31g* mp2
 -------------

 ------------------------------------------------------
 Input file generated by CHIRIPA (05-May-2021 14:53:15)
 ------------------------------------------------------
 Symbolic Z-matrix:
 Charge =  0 Multiplicity = 1

                         Standard orientation:
 ---------------------------------------------------------------------
 Center     Atomic      Atomic             Coordinates (Angstroms)
 Number     Number       Type             X           Y           Z
 ---------------------------------------------------------------------
      1          6           0       -4.086698    0.592550    0.140518
      2          6           0       -3.434061    1.955680   -0.091708
      3          6           0       -4.419610    3.115504    0.054216
      4          1           0       -4.914606    0.463693   -0.570052
      5          1           0       -4.531198    0.573024    1.145223
      6          1           0       -2.989722    1.972141   -1.095156
      7          1           0       -2.607488    2.081227    0.619369
      8          1           0       -4.854479    3.127430    1.058879
      9          1           0       -5.238884    3.017725   -0.665388
     10          1           0       -3.932016    4.080480   -0.115883
     11          6           0       -3.114153   -0.576896   -0.001895
     12          6           0       -3.766790   -1.940025    0.230331
     13          6           0       -2.781241   -3.099850    0.084407
     14          1           0       -2.669653   -0.557369   -1.006601
     15          1           0       -2.286245   -0.448038    0.708674
     16          1           0       -4.593363   -2.065572   -0.480747
     17          1           0       -4.211129   -1.956487    1.233779
     18          1           0       -1.961967   -3.002070    0.804011
     19          1           0       -2.346372   -3.111775   -0.920256
     20          1           0       -3.268835   -4.064826    0.254506
     21          6           0        5.118874    0.976854    0.231977
     22          6           0        4.945394   -0.411089    0.225690
     23          6           0        3.672272   -0.966788    0.067877
     24          6           0        2.589893   -0.101145   -0.081811
     25          6           0        2.730418    1.285772   -0.079765
     26          6           0        4.012782    1.819370    0.079498
     27          1           0        6.111455    1.399951    0.355133
     28          1           0        5.802583   -1.067823    0.343901
     29          1           0        3.509455   -2.037692    0.059289
     30          1           0        1.856783    1.914880   -0.199777
     31          1           0        4.144519    2.897641    0.083990
     32          7           0        1.237203   -0.677740   -0.249648
     33          8           0        0.299792    0.106471   -0.379688
     34          8           0        1.139990   -1.902968   -0.247982
 ---------------------------------------------------------------------

 SCF Done:  E(RHF) =  -669.535680720     A.U. after   15 cycles
 E2 =    -0.2091962563D+01 EUMP2 =    -0.67162764328296D+03

 The electronic state is 1-A.
 Alpha  occ. eigenvalues --  -20.60978 -20.60969 -15.85999 -11.31322 -11.27884
 Alpha  occ. eigenvalues --  -11.27881 -11.27621 -11.26890 -11.26880 -11.20433
 Alpha  occ. eigenvalues --  -11.20229 -11.20033 -11.20027 -11.19416 -11.19336
 Alpha  occ. eigenvalues --   -1.60035  -1.39591  -1.19490  -1.08895  -1.06940
 Alpha  occ. eigenvalues --   -1.04885  -1.02152  -0.95736  -0.94584  -0.86286
 Alpha  occ. eigenvalues --   -0.85596  -0.82571  -0.78236  -0.77624  -0.76638
 Alpha  occ. eigenvalues --   -0.72201  -0.71352  -0.70597  -0.65144  -0.64886
 Alpha  occ. eigenvalues --   -0.63598  -0.62231  -0.59572  -0.58004  -0.56172
 Alpha  occ. eigenvalues --   -0.55389  -0.53881  -0.53218  -0.52976  -0.51361
 Alpha  occ. eigenvalues --   -0.50993  -0.49042  -0.48955  -0.48510  -0.46516
 Alpha  occ. eigenvalues --   -0.45296  -0.45045  -0.44116  -0.44015  -0.42358
 Alpha  occ. eigenvalues --   -0.37469  -0.36486
 Alpha virt. eigenvalues --    0.04882   0.11169   0.16372   0.21297   0.24188
 Alpha virt. eigenvalues --    0.25625   0.27219   0.27980   0.28200   0.29064
 Alpha virt. eigenvalues --    0.29300   0.30938   0.32391   0.32735   0.32832

 Mulliken charges:
               1
     1  C   -0.298941
     2  C   -0.296520
     3  C   -0.474761
     4  H    0.143946
     5  H    0.143423
     6  H    0.153185
     7  H    0.152560
     8  H    0.152389
     9  H    0.152988
    10  H    0.154854
    11  C   -0.293744
    12  C   -0.300772
    13  C   -0.471954
    14  H    0.156789
    15  H    0.161364
    16  H    0.144512
    17  H    0.144249
    18  H    0.162304
    19  H    0.159304
    20  H    0.149668
    21  C   -0.170572
    22  C   -0.218584
    23  C   -0.170738
    24  C    0.157748
    25  C   -0.171050
    26  C   -0.218553
    27  H    0.226092
    28  H    0.223915
    29  H    0.275955
    30  H    0.275987
    31  H    0.223948
    32  N    0.488649
    33  O   -0.458563
    34  O   -0.459075
 Sum of Mulliken charges =  -0.00000

 Dipole moment (field-independent basis, Debye):
    X=              5.2436    Y=              1.9904    Z=              0.5301  Tot=              5.6337
 Quadrupole moment (field-independent basis, Debye-Ang):
   XX=            -72.1641   YY=            -92.7644   ZZ=            -94.8151
   XY=              3.4275   XZ=              1.8328   YZ=             -0.4893

 Normal termination of Gaussian 16 at Thu May  6 13:51:06 2021.
