 Gaussian 16, Revision A.03,
 Gaussian 16:  EM64L-G16RevA.03 25-Dec-2016

 -------------
 #p 6-31g* mp2
 -------------

 ------------------------------------------------------
 Input file generated by CHIRIPA (05-May-2021 14:55:23)
 ------------------------------------------------------
 Symbolic Z-matrix:
 Charge =  0 Multiplicity = 1

                         Standard orientation:
 ---------------------------------------------------------------------
 Center     Atomic      Atomic             Coordinates (Angstroms)
 Number     Number       Type             X           Y           Z
 ---------------------------------------------------------------------
      1          6           0       -1.371418    1.988294    1.130242
      2          6           0       -0.800833    0.723511    1.307102
      3          6           0       -1.422263   -0.415005    0.785419
      4          6           0       -2.618767   -0.251429    0.089064
      5          6           0       -3.212108    0.995179   -0.103824
      6          6           0       -2.573116    2.119859    0.426584
      7          1           0       -0.881855    2.867346    1.538886
      8          1           0        0.132349    0.618331    1.853136
      9          1           0       -1.002465   -1.406092    0.907623
     10          1           0       -4.143108    1.068361   -0.652733
     11          1           0       -3.018538    3.100855    0.287690
     12          7           0       -3.285944   -1.449401   -0.467837
     13          8           0       -4.339426   -1.278554   -1.077447
     14          8           0       -2.742762   -2.536535   -0.284181
     15          6           0        2.675434    0.613170   -0.248766
     16          6           0        3.191756    1.956579   -0.765144
     17          6           0        2.108129    3.034875   -0.793824
     18          1           0        1.841524    0.280238   -0.881772
     19          1           0        2.265762    0.749578    0.761659
     20          1           0        3.601589    1.817404   -1.773749
     21          1           0        4.024658    2.286259   -0.130950
     22          1           0        1.705133    3.202841    0.210159
     23          1           0        1.279660    2.731322   -1.441973
     24          1           0        2.498928    3.986965   -1.166194
     25          6           0        3.747117   -0.474960   -0.214203
     26          6           0        3.230794   -1.818369    0.302174
     27          6           0        4.314421   -2.896665    0.330854
     28          1           0        4.156788   -0.611367   -1.224629
     29          1           0        4.581026   -0.142028    0.418802
     30          1           0        2.397892   -2.148050   -0.332020
     31          1           0        2.820960   -1.679194    1.310779
     32          1           0        5.142890   -2.593111    0.979003
     33          1           0        4.717416   -3.064631   -0.673130
     34          1           0        3.923622   -3.848756    0.703223
 ---------------------------------------------------------------------

 SCF Done:  E(RHF) =  -669.535009559     A.U. after   15 cycles
 E2 =    -0.2092810806D+01 EUMP2 =    -0.67162782036456D+03

 The electronic state is 1-A.
 Alpha  occ. eigenvalues --  -20.60735 -20.60730 -15.85788 -11.31137 -11.27696
 Alpha  occ. eigenvalues --  -11.27680 -11.27428 -11.26718 -11.26678 -11.22246
 Alpha  occ. eigenvalues --  -11.22114 -11.22061 -11.21893 -11.21811 -11.21403
 Alpha  occ. eigenvalues --   -1.59811  -1.39365  -1.19305  -1.09033  -1.08699
 Alpha  occ. eigenvalues --   -1.04703  -1.04091  -0.96544  -0.95539  -0.87561
 Alpha  occ. eigenvalues --   -0.86106  -0.82374  -0.80170  -0.78876  -0.77408
 Alpha  occ. eigenvalues --   -0.72006  -0.71135  -0.70410  -0.65698  -0.64954
 Alpha  occ. eigenvalues --   -0.64689  -0.62064  -0.61479  -0.59909  -0.58159
 Alpha  occ. eigenvalues --   -0.55865  -0.55187  -0.53233  -0.53048  -0.53039
 Alpha  occ. eigenvalues --   -0.52718  -0.50481  -0.48767  -0.48762  -0.48471
 Alpha  occ. eigenvalues --   -0.47200  -0.46373  -0.46291  -0.44774  -0.44352
 Alpha  occ. eigenvalues --   -0.37256  -0.36268
 Alpha virt. eigenvalues --    0.05084   0.11282   0.16518   0.19617   0.22798
 Alpha virt. eigenvalues --    0.23425   0.24868   0.25886   0.26543   0.28590
 Alpha virt. eigenvalues --    0.29346   0.30664   0.31342   0.31450   0.31714

 Mulliken charges:
               1
     1  C   -0.170668
     2  C   -0.214429
     3  C   -0.173732
     4  C    0.158325
     5  C   -0.171471
     6  C   -0.219226
     7  H    0.225662
     8  H    0.225285
     9  H    0.276085
    10  H    0.275262
    11  H    0.223355
    12  N    0.488040
    13  O   -0.460645
    14  O   -0.460649
    15  C   -0.299558
    16  C   -0.300113
    17  C   -0.475232
    18  H    0.155571
    19  H    0.138752
    20  H    0.155815
    21  H    0.152430
    22  H    0.144454
    23  H    0.160121
    24  H    0.162189
    25  C   -0.298353
    26  C   -0.301132
    27  C   -0.475918
    28  H    0.152965
    29  H    0.149979
    30  H    0.155744
    31  H    0.145158
    32  H    0.155218
    33  H    0.157605
    34  H    0.163112
 Sum of Mulliken charges =  -0.00000

 Dipole moment (field-independent basis, Debye):
    X=              2.4701    Y=              4.1719    Z=              1.8327  Tot=              5.1832
 Quadrupole moment (field-independent basis, Debye-Ang):
   XX=           -104.8662   YY=            -96.2616   ZZ=            -93.5133
   XY=            -13.7658   XZ=             -3.5947   YZ=             -1.0585

 Normal termination of Gaussian 16 at Wed May  5 17:33:32 2021.
