 Gaussian 16, Revision A.03,
 Gaussian 16:  EM64L-G16RevA.03 25-Dec-2016

 -------------
 #p 6-31g* mp2
 -------------

 ------------------------------------------------------
 Input file generated by CHIRIPA (05-May-2021 14:51:08)
 ------------------------------------------------------
 Symbolic Z-matrix:
 Charge =  0 Multiplicity = 1

                         Standard orientation:
 ---------------------------------------------------------------------
 Center     Atomic      Atomic             Coordinates (Angstroms)
 Number     Number       Type             X           Y           Z
 ---------------------------------------------------------------------
      1          6           0       -3.042331   -0.654066    0.748126
      2          6           0       -1.600207   -0.989879    0.366694
      3          6           0       -0.842557   -1.701518    1.488001
      4          1           0       -3.039624   -0.023989    1.648093
      5          1           0       -3.568418   -1.580584    1.016816
      6          1           0       -1.077388   -0.063167    0.097472
      7          1           0       -1.606340   -1.619073   -0.532581
      8          1           0       -1.338715   -2.640966    1.752323
      9          1           0       -0.806757   -1.076220    2.385955
     10          1           0        0.186134   -1.932173    1.193973
     11          6           0       -3.812717    0.057622   -0.362609
     12          6           0       -5.254842    0.393434    0.018823
     13          6           0       -6.012491    1.105074   -1.102484
     14          1           0       -3.286631    0.984139   -0.631298
     15          1           0       -3.815425   -0.572456   -1.262576
     16          1           0       -5.248708    1.022628    0.918098
     17          1           0       -5.777661   -0.533278    0.288045
     18          1           0       -6.048291    0.479775   -2.000438
     19          1           0       -5.516333    2.044521   -1.366806
     20          1           0       -7.041183    1.335728   -0.808456
     21          6           0        3.019599    0.924290   -0.034426
     22          6           0        3.871681    2.187800    0.090007
     23          6           0        3.041340    3.431937    0.406946
     24          1           0        2.266022    1.073769   -0.819743
     25          1           0        2.467644    0.768883    0.902905
     26          1           0        4.422925    2.340011   -0.846783
     27          1           0        4.623441    2.035224    0.874988
     28          1           0        2.503111    3.305439    1.351883
     29          1           0        2.301456    3.611959   -0.379670
     30          1           0        3.670364    4.323583    0.491528
     31          6           0        3.835449   -0.327844   -0.351092
     32          6           0        2.983368   -1.591354   -0.475525
     33          6           0        3.813709   -2.835492   -0.792462
     34          1           0        4.387405   -0.172439   -1.288422
     35          1           0        4.589026   -0.477324    0.434226
     36          1           0        2.231608   -1.438779   -1.260505
     37          1           0        2.432124   -1.743566    0.461267
     38          1           0        4.553593   -3.015514   -0.005846
     39          1           0        4.351938   -2.708995   -1.737401
     40          1           0        3.184684   -3.727138   -0.877045
 ---------------------------------------------------------------------

 SCF Done:  E(RHF) =  -470.733339961     A.U. after   11 cycles
 E2 =    -0.1582754765D+01 EUMP2 =    -0.47231609472604D+03

 The electronic state is 1-A.
 Alpha  occ. eigenvalues --  -11.21622 -11.21620 -11.21584 -11.21550 -11.21425
 Alpha  occ. eigenvalues --  -11.21377 -11.21365 -11.21317 -11.21093 -11.21090
 Alpha  occ. eigenvalues --  -11.21059 -11.20994  -1.08455  -1.08396  -1.03559
 Alpha  occ. eigenvalues --   -1.03488  -0.96000  -0.95946  -0.87025  -0.86957
 Alpha  occ. eigenvalues --   -0.79639  -0.79540  -0.78274  -0.78207  -0.65088
 Alpha  occ. eigenvalues --   -0.65027  -0.60966  -0.60890  -0.59485  -0.59217
 Alpha  occ. eigenvalues --   -0.57652  -0.57513  -0.55285  -0.55233  -0.52749
 Alpha  occ. eigenvalues --   -0.52630  -0.52439  -0.52344  -0.49938  -0.49888
 Alpha  occ. eigenvalues --   -0.48029  -0.47784  -0.46639  -0.46593  -0.45816
 Alpha  occ. eigenvalues --   -0.45765  -0.45703  -0.45662  -0.43816  -0.43698
 Alpha virt. eigenvalues --    0.21499   0.23151   0.23641   0.24513   0.26119
 Alpha virt. eigenvalues --    0.26355   0.26817   0.27731   0.27976   0.29241
 Alpha virt. eigenvalues --    0.30075   0.31315   0.31569   0.31847   0.32051

 Mulliken charges:
               1
     1  C   -0.298383
     2  C   -0.299172
     3  C   -0.483157
     4  H    0.149532
     5  H    0.149377
     6  H    0.152799
     7  H    0.151530
     8  H    0.154675
     9  H    0.154234
    10  H    0.167715
    11  C   -0.298217
    12  C   -0.299611
    13  C   -0.475689
    14  H    0.149485
    15  H    0.149481
    16  H    0.151940
    17  H    0.151881
    18  H    0.155102
    19  H    0.155155
    20  H    0.160202
    21  C   -0.299230
    22  C   -0.299649
    23  C   -0.475733
    24  H    0.149839
    25  H    0.150225
    26  H    0.152042
    27  H    0.152058
    28  H    0.155109
    29  H    0.155042
    30  H    0.160370
    31  C   -0.297692
    32  C   -0.306711
    33  C   -0.475325
    34  H    0.149669
    35  H    0.149663
    36  H    0.152711
    37  H    0.157801
    38  H    0.155237
    39  H    0.155334
    40  H    0.160361
 Sum of Mulliken charges =  -0.00000

 Dipole moment (field-independent basis, Debye):
    X=              0.0368    Y=             -0.0002    Z=             -0.0099  Tot=              0.0381
 Quadrupole moment (field-independent basis, Debye-Ang):
   XX=            -85.3705   YY=            -85.1804   ZZ=            -84.2250
   XY=              1.0413   XZ=             -0.1212   YZ=              0.3248

 Normal termination of Gaussian 16 at Thu May  6 02:04:56 2021.
