 Gaussian 16, Revision A.03,
 Gaussian 16:  EM64L-G16RevA.03 25-Dec-2016

 -------------
 #p 6-31g* mp2
 -------------

 ------------------------------------------------------
 Input file generated by CHIRIPA (05-May-2021 14:53:16)
 ------------------------------------------------------
 Symbolic Z-matrix:
 Charge =  0 Multiplicity = 1

                         Standard orientation:
 ---------------------------------------------------------------------
 Center     Atomic      Atomic             Coordinates (Angstroms)
 Number     Number       Type             X           Y           Z
 ---------------------------------------------------------------------
      1          6           0       -2.898303    1.044233   -0.579607
      2          6           0       -1.435177    1.172955   -0.154543
      3          6           0       -0.800958    2.487784   -0.609277
      4          1           0       -2.964349    1.125920   -1.673184
      5          1           0       -3.468092    1.888859   -0.168096
      6          1           0       -0.868587    0.327592   -0.565582
      7          1           0       -1.372585    1.090760    0.938134
      8          1           0       -1.340848    3.341923   -0.187891
      9          1           0       -0.833986    2.574419   -1.700150
     10          1           0        0.244946    2.558895   -0.294813
     11          6           0       -3.546177   -0.264936   -0.132323
     12          6           0       -5.009303   -0.393658   -0.557388
     13          6           0       -5.643522   -1.708488   -0.102654
     14          1           0       -2.976388   -1.109563   -0.543834
     15          1           0       -3.480131   -0.346623    0.961254
     16          1           0       -5.071895   -0.311464   -1.650064
     17          1           0       -5.575893    0.451705   -0.146349
     18          1           0       -5.610494   -1.795123    0.988220
     19          1           0       -5.103632   -2.562627   -0.524040
     20          1           0       -6.689427   -1.779599   -0.417118
     21          6           0        1.114277    0.119816    2.331697
     22          6           0        1.291032   -1.185869    1.862160
     23          6           0        2.066363   -1.432700    0.725284
     24          6           0        2.653021   -0.345426    0.079564
     25          6           0        2.495611    0.966820    0.522875
     26          6           0        1.716070    1.190107    1.661737
     27          1           0        0.510347    0.302416    3.215620
     28          1           0        0.824867   -2.019005    2.380445
     29          1           0        2.219697   -2.433496    0.340167
     30          1           0        2.972901    1.776944   -0.015000
     31          1           0        1.580528    2.205169    2.024119
     32          7           0        3.476057   -0.594272   -1.125047
     33          8           0        3.982274    0.380829   -1.676010
     34          8           0        3.599353   -1.759707   -1.495448
 ---------------------------------------------------------------------

 SCF Done:  E(RHF) =  -669.533249226     A.U. after   15 cycles
 E2 =    -0.2095058583D+01 EUMP2 =    -0.67162830780886D+03

 The electronic state is 1-A.
 Alpha  occ. eigenvalues --  -20.60808 -20.60802 -15.85862 -11.31246 -11.27802
 Alpha  occ. eigenvalues --  -11.27796 -11.27529 -11.26811 -11.26796 -11.21863
 Alpha  occ. eigenvalues --  -11.21809 -11.21702 -11.21607 -11.21339 -11.21286
 Alpha  occ. eigenvalues --   -1.59884  -1.39436  -1.19424  -1.08834  -1.08678
 Alpha  occ. eigenvalues --   -1.04846  -1.03780  -0.96254  -0.95645  -0.87275
 Alpha  occ. eigenvalues --   -0.86221  -0.82484  -0.79855  -0.78520  -0.77524
 Alpha  occ. eigenvalues --   -0.72080  -0.71209  -0.70531  -0.65340  -0.65075
 Alpha  occ. eigenvalues --   -0.64827  -0.62199  -0.61189  -0.59708  -0.57966
 Alpha  occ. eigenvalues --   -0.55540  -0.55324  -0.53383  -0.52921  -0.52768
 Alpha  occ. eigenvalues --   -0.52465  -0.50191  -0.48840  -0.48833  -0.48181
 Alpha  occ. eigenvalues --   -0.46899  -0.46060  -0.45985  -0.44838  -0.44071
 Alpha  occ. eigenvalues --   -0.37313  -0.36318
 Alpha virt. eigenvalues --    0.04975   0.11172   0.16364   0.20807   0.22739
 Alpha virt. eigenvalues --    0.24236   0.26223   0.26553   0.27044   0.28157
 Alpha virt. eigenvalues --    0.28399   0.30705   0.31131   0.31734   0.32087

 Mulliken charges:
               1
     1  C   -0.298911
     2  C   -0.296233
     3  C   -0.478539
     4  H    0.151955
     5  H    0.148207
     6  H    0.155837
     7  H    0.144162
     8  H    0.151626
     9  H    0.159351
    10  H    0.156530
    11  C   -0.297430
    12  C   -0.299754
    13  C   -0.475771
    14  H    0.150256
    15  H    0.144903
    16  H    0.153872
    17  H    0.151807
    18  H    0.153398
    19  H    0.155639
    20  H    0.161429
    21  C   -0.169140
    22  C   -0.217186
    23  C   -0.172381
    24  C    0.158647
    25  C   -0.170935
    26  C   -0.214641
    27  H    0.225514
    28  H    0.223818
    29  H    0.275728
    30  H    0.276130
    31  H    0.224679
    32  N    0.487974
    33  O   -0.460124
    34  O   -0.460419
 Sum of Mulliken charges =  -0.00000

 Dipole moment (field-independent basis, Debye):
    X=             -2.8524    Y=              0.8192    Z=              4.2325  Tot=              5.1693
 Quadrupole moment (field-independent basis, Debye-Ang):
   XX=           -111.1775   YY=            -91.4281   ZZ=            -93.9212
   XY=              3.7945   XZ=             11.1006   YZ=             -1.2437

 Normal termination of Gaussian 16 at Wed May  5 18:44:24 2021.
