 Gaussian 16, Revision A.03,
 Gaussian 16:  EM64L-G16RevA.03 25-Dec-2016

 -------------
 #p 6-31g* mp2
 -------------

 ------------------------------------------------------
 Input file generated by CHIRIPA (05-May-2021 14:55:25)
 ------------------------------------------------------
 Symbolic Z-matrix:
 Charge =  0 Multiplicity = 1

                         Standard orientation:
 ---------------------------------------------------------------------
 Center     Atomic      Atomic             Coordinates (Angstroms)
 Number     Number       Type             X           Y           Z
 ---------------------------------------------------------------------
      1          6           0        4.472464   -1.695372   -0.302999
      2          6           0        4.320134   -0.756508   -1.328597
      3          6           0        3.517439    0.373102   -1.143640
      4          6           0        2.878805    0.533059    0.085120
      5          6           0        3.010795   -0.384555    1.126203
      6          6           0        3.818461   -1.506731    0.918973
      7          1           0        5.097947   -2.569992   -0.455329
      8          1           0        4.826842   -0.900420   -2.278640
      9          1           0        3.382057    1.115644   -1.920635
     10          1           0        2.493048   -0.213818    2.062261
     11          1           0        3.934933   -2.234218    1.717247
     12          7           0        2.026397    1.724992    0.292715
     13          8           0        1.474427    1.842885    1.384534
     14          8           0        1.926388    2.518767   -0.640321
     15          6           0       -4.599346   -0.617506    0.029101
     16          6           0       -5.562571    0.519735   -0.312757
     17          6           0       -7.028599    0.131039   -0.119183
     18          1           0       -4.834687   -1.489372   -0.596526
     19          1           0       -4.763180   -0.926827    1.070673
     20          1           0       -5.396017    0.827752   -1.352949
     21          1           0       -5.324785    1.389059    0.313622
     22          1           0       -7.216913   -0.156410    0.920294
     23          1           0       -7.288549   -0.720908   -0.755746
     24          1           0       -7.699744    0.958626   -0.369231
     25          6           0       -3.130043   -0.244228   -0.159420
     26          6           0       -2.166818   -1.381469    0.182437
     27          6           0       -0.700789   -0.992773   -0.011137
     28          1           0       -2.966208    0.065094   -1.200993
     29          1           0       -2.894701    0.627638    0.466206
     30          1           0       -2.404603   -2.250793   -0.443941
     31          1           0       -2.333371   -1.689485    1.222630
     32          1           0       -0.440839   -0.140826    0.625428
     33          1           0       -0.512476   -0.705322   -1.050613
     34          1           0       -0.029645   -1.820360    0.238912
 ---------------------------------------------------------------------

 SCF Done:  E(RHF) =  -669.536204200     A.U. after   15 cycles
 E2 =    -0.2092193379D+01 EUMP2 =    -0.67162839757951D+03

 The electronic state is 1-A.
 Alpha  occ. eigenvalues --  -20.60871 -20.60854 -15.85878 -11.31182 -11.27758
 Alpha  occ. eigenvalues --  -11.27754 -11.27501 -11.26765 -11.26755 -11.21226
 Alpha  occ. eigenvalues --  -11.21198 -11.20984 -11.20860 -11.20744 -11.20626
 Alpha  occ. eigenvalues --   -1.59915  -1.39476  -1.19358  -1.08766  -1.08006
 Alpha  occ. eigenvalues --   -1.04759  -1.03139  -0.95624  -0.95581  -0.86622
 Alpha  occ. eigenvalues --   -0.86156  -0.82452  -0.79217  -0.77812  -0.77503
 Alpha  occ. eigenvalues --   -0.72115  -0.71222  -0.70478  -0.65022  -0.64769
 Alpha  occ. eigenvalues --   -0.64632  -0.62111  -0.60532  -0.58968  -0.57200
 Alpha  occ. eigenvalues --   -0.55272  -0.54868  -0.53151  -0.52855  -0.52236
 Alpha  occ. eigenvalues --   -0.52016  -0.49543  -0.48871  -0.48868  -0.47534
 Alpha  occ. eigenvalues --   -0.46267  -0.45381  -0.45296  -0.44740  -0.43394
 Alpha  occ. eigenvalues --   -0.37318  -0.36341
 Alpha virt. eigenvalues --    0.05004   0.11282   0.16484   0.21378   0.23303
 Alpha virt. eigenvalues --    0.24670   0.27068   0.27283   0.27777   0.28073
 Alpha virt. eigenvalues --    0.28627   0.30822   0.31746   0.32119   0.32153

 Mulliken charges:
               1
     1  C   -0.170388
     2  C   -0.218689
     3  C   -0.171037
     4  C    0.161832
     5  C   -0.168991
     6  C   -0.219624
     7  H    0.225552
     8  H    0.223320
     9  H    0.275419
    10  H    0.275496
    11  H    0.223382
    12  N    0.488936
    13  O   -0.460287
    14  O   -0.458521
    15  C   -0.298111
    16  C   -0.299706
    17  C   -0.475515
    18  H    0.147397
    19  H    0.148565
    20  H    0.151999
    21  H    0.154198
    22  H    0.154577
    23  H    0.153832
    24  H    0.159894
    25  C   -0.299556
    26  C   -0.298601
    27  C   -0.488563
    28  H    0.149784
    29  H    0.156933
    30  H    0.148619
    31  H    0.150265
    32  H    0.169927
    33  H    0.153872
    34  H    0.153789
 Sum of Mulliken charges =  -0.00000

 Dipole moment (field-independent basis, Debye):
    X=              3.1089    Y=             -4.0625    Z=             -0.7086  Tot=              5.1644
 Quadrupole moment (field-independent basis, Debye-Ang):
   XX=            -79.4267   YY=            -99.4938   ZZ=            -89.7446
   XY=            -10.7271   XZ=             -2.9639   YZ=             -2.1101

 Normal termination of Gaussian 16 at Wed May  5 16:09:32 2021.
