 Gaussian 16, Revision A.03,
 Gaussian 16:  EM64L-G16RevA.03 25-Dec-2016

 -------------
 #p 6-31g* mp2
 -------------

 ------------------------------------------------------
 Input file generated by CHIRIPA (05-May-2021 14:55:24)
 ------------------------------------------------------
 Symbolic Z-matrix:
 Charge =  0 Multiplicity = 1

                         Standard orientation:
 ---------------------------------------------------------------------
 Center     Atomic      Atomic             Coordinates (Angstroms)
 Number     Number       Type             X           Y           Z
 ---------------------------------------------------------------------
      1          6           0       -1.610904    0.859215   -0.687067
      2          6           0       -2.718916    1.703624   -0.561355
      3          6           0       -3.977325    1.181751   -0.247346
      4          6           0       -4.092199   -0.195501   -0.064940
      5          6           0       -3.007227   -1.062738   -0.183367
      6          6           0       -1.758336   -0.518842   -0.498005
      7          1           0       -0.637039    1.273172   -0.931241
      8          1           0       -2.607380    2.774235   -0.707632
      9          1           0       -4.851847    1.812584   -0.144005
     10          1           0       -3.149614   -2.125825   -0.031742
     11          1           0       -0.899594   -1.177020   -0.595003
     12          7           0       -5.419382   -0.759642    0.267820
     13          8           0       -5.494243   -1.976507    0.423615
     14          8           0       -6.359637    0.025731    0.366542
     15          6           0        5.721338    0.110924    0.172947
     16          6           0        6.302666   -1.242426   -0.237524
     17          6           0        7.830806   -1.267347   -0.193233
     18          1           0        6.121543    0.890800   -0.489303
     19          1           0        6.063726    0.356635    1.187732
     20          1           0        5.958162   -1.486154   -1.250702
     21          1           0        5.900882   -2.019198    0.425658
     22          1           0        8.190516   -1.049311    0.817543
     23          1           0        8.248121   -0.513238   -0.868341
     24          1           0        8.225176   -2.244105   -0.490345
     25          6           0        4.194728    0.151536    0.133698
     26          6           0        3.613398    1.504886    0.544168
     27          6           0        2.085258    1.529807    0.499877
     28          1           0        3.852339   -0.094175   -0.881089
     29          1           0        3.794522   -0.628340    0.795946
     30          1           0        4.015183    2.281658   -0.119014
     31          1           0        3.957903    1.748614    1.557346
     32          1           0        1.667944    0.775699    1.174985
     33          1           0        1.725550    1.311772   -0.510900
     34          1           0        1.690889    2.506565    0.796989
 ---------------------------------------------------------------------

 SCF Done:  E(RHF) =  -669.535529250     A.U. after   15 cycles
 E2 =    -0.2090917352D+01 EUMP2 =    -0.67162644660199D+03

 The electronic state is 1-A.
 Alpha  occ. eigenvalues --  -20.60694 -20.60689 -15.85748 -11.31089 -11.27664
 Alpha  occ. eigenvalues --  -11.27661 -11.27334 -11.26658 -11.26647 -11.22528
 Alpha  occ. eigenvalues --  -11.22339 -11.22194 -11.22141 -11.22002 -11.21512
 Alpha  occ. eigenvalues --   -1.59770  -1.39325  -1.19259  -1.09177  -1.08650
 Alpha  occ. eigenvalues --   -1.04663  -1.04306  -0.96786  -0.95489  -0.87811
 Alpha  occ. eigenvalues --   -0.86056  -0.82330  -0.80387  -0.78958  -0.77384
 Alpha  occ. eigenvalues --   -0.71965  -0.71094  -0.70363  -0.65802  -0.64908
 Alpha  occ. eigenvalues --   -0.64668  -0.62015  -0.61704  -0.60159  -0.58377
 Alpha  occ. eigenvalues --   -0.56142  -0.55154  -0.53454  -0.53187  -0.52963
 Alpha  occ. eigenvalues --   -0.52752  -0.50716  -0.48735  -0.48722  -0.48672
 Alpha  occ. eigenvalues --   -0.47395  -0.46507  -0.46404  -0.44736  -0.44542
 Alpha  occ. eigenvalues --   -0.37219  -0.36274
 Alpha virt. eigenvalues --    0.05147   0.11370   0.16625   0.20341   0.22293
 Alpha virt. eigenvalues --    0.23749   0.25507   0.26138   0.26906   0.27463
 Alpha virt. eigenvalues --    0.28896   0.30297   0.30844   0.31237   0.31992

 Mulliken charges:
               1
     1  C   -0.173712
     2  C   -0.220555
     3  C   -0.170801
     4  C    0.158090
     5  C   -0.171006
     6  C   -0.221555
     7  H    0.234969
     8  H    0.223263
     9  H    0.275133
    10  H    0.275151
    11  H    0.223232
    12  N    0.488072
    13  O   -0.460802
    14  O   -0.460753
    15  C   -0.298819
    16  C   -0.300171
    17  C   -0.476108
    18  H    0.150729
    19  H    0.151308
    20  H    0.151844
    21  H    0.152522
    22  H    0.156162
    23  H    0.155800
    24  H    0.161755
    25  C   -0.299165
    26  C   -0.299603
    27  C   -0.480705
    28  H    0.147864
    29  H    0.150127
    30  H    0.154133
    31  H    0.156273
    32  H    0.159418
    33  H    0.145065
    34  H    0.162845
 Sum of Mulliken charges =  -0.00000

 Dipole moment (field-independent basis, Debye):
    X=              4.9448    Y=              2.0113    Z=             -1.1085  Tot=              5.4521
 Quadrupole moment (field-independent basis, Debye-Ang):
   XX=           -133.2865   YY=            -91.2921   ZZ=            -94.5046
   XY=            -10.9818   XZ=              4.7341   YZ=             -0.2908

 Normal termination of Gaussian 16 at Thu May  6 06:21:09 2021.
