 Gaussian 16, Revision A.03,
 Gaussian 16:  EM64L-G16RevA.03 25-Dec-2016

 -------------
 #p 6-31g* mp2
 -------------

 ------------------------------------------------------
 Input file generated by CHIRIPA (05-May-2021 14:53:14)
 ------------------------------------------------------
 Symbolic Z-matrix:
 Charge =  0 Multiplicity = 1

                         Standard orientation:
 ---------------------------------------------------------------------
 Center     Atomic      Atomic             Coordinates (Angstroms)
 Number     Number       Type             X           Y           Z
 ---------------------------------------------------------------------
      1          6           0        3.064419   -0.212191   -0.175274
      2          6           0        4.468294   -0.778977   -0.389451
      3          6           0        4.532062   -2.292936   -0.185355
      4          1           0        2.726251   -0.461326    0.839871
      5          1           0        2.367758   -0.705998   -0.866804
      6          1           0        5.162352   -0.283261    0.301321
      7          1           0        4.803235   -0.528299   -1.404139
      8          1           0        3.862189   -2.804410   -0.884115
      9          1           0        4.223346   -2.557979    0.831035
     10          1           0        5.544657   -2.677040   -0.343388
     11          6           0        2.984580    1.300145   -0.375753
     12          6           0        1.580704    1.866931   -0.161576
     13          6           0        1.516937    3.380890   -0.365672
     14          1           0        3.681241    1.793952    0.315777
     15          1           0        3.322747    1.549280   -1.390898
     16          1           0        1.245763    1.616253    0.853112
     17          1           0        0.886647    1.371214   -0.852347
     18          1           0        1.825653    3.645933   -1.382061
     19          1           0        2.186810    3.892364    0.333088
     20          1           0        0.504341    3.764994   -0.207639
     21          6           0       -4.466565   -0.116946   -1.143279
     22          6           0       -4.334661    0.517419    0.096360
     23          6           0       -3.173523    0.353873    0.857646
     24          6           0       -2.159514   -0.454762    0.346582
     25          6           0       -2.261095   -1.100044   -0.884914
     26          6           0       -3.431187   -0.922233   -1.629103
     27          1           0       -5.372043    0.015641   -1.728024
     28          1           0       -5.137125    1.143398    0.476157
     29          1           0       -3.045078    0.833286    1.820498
     30          1           0       -1.444040   -1.717904   -1.237176
     31          1           0       -3.530865   -1.416114   -2.591491
     32          7           0       -0.925530   -0.635451    1.143471
     33          8           0       -0.046640   -1.353050    0.670987
     34          8           0       -0.860588   -0.056055    2.225470
 ---------------------------------------------------------------------

 SCF Done:  E(RHF) =  -669.536005845     A.U. after   15 cycles
 E2 =    -0.2093426426D+01 EUMP2 =    -0.67162943227111D+03

 The electronic state is 1-A.
 Alpha  occ. eigenvalues --  -20.61006 -20.60979 -15.85977 -11.31309 -11.27870
 Alpha  occ. eigenvalues --  -11.27861 -11.27601 -11.26872 -11.26862 -11.20629
 Alpha  occ. eigenvalues --  -11.20478 -11.20396 -11.20314 -11.20038 -11.19808
 Alpha  occ. eigenvalues --   -1.60030  -1.39591  -1.19471  -1.08878  -1.07276
 Alpha  occ. eigenvalues --   -1.04867  -1.02531  -0.95725  -0.94965  -0.86268
 Alpha  occ. eigenvalues --   -0.85992  -0.82566  -0.78614  -0.77632  -0.77028
 Alpha  occ. eigenvalues --   -0.72211  -0.71299  -0.70582  -0.65129  -0.64872
 Alpha  occ. eigenvalues --   -0.63919  -0.62215  -0.59942  -0.58354  -0.56576
 Alpha  occ. eigenvalues --   -0.55373  -0.54260  -0.53196  -0.52960  -0.51736
 Alpha  occ. eigenvalues --   -0.51391  -0.49047  -0.49015  -0.48873  -0.46924
 Alpha  occ. eigenvalues --   -0.45723  -0.45165  -0.44397  -0.44245  -0.42717
 Alpha  occ. eigenvalues --   -0.37440  -0.36466
 Alpha virt. eigenvalues --    0.04874   0.11170   0.16346   0.21281   0.23919
 Alpha virt. eigenvalues --    0.25202   0.27024   0.27584   0.28111   0.28684
 Alpha virt. eigenvalues --    0.29123   0.31094   0.32250   0.32332   0.32670

 Mulliken charges:
               1
     1  C   -0.297336
     2  C   -0.299862
     3  C   -0.473550
     4  H    0.168785
     5  H    0.150538
     6  H    0.148273
     7  H    0.145283
     8  H    0.153111
     9  H    0.159237
    10  H    0.154415
    11  C   -0.297890
    12  C   -0.306902
    13  C   -0.473923
    14  H    0.146765
    15  H    0.142756
    16  H    0.168204
    17  H    0.142970
    18  H    0.151260
    19  H    0.154994
    20  H    0.154855
    21  C   -0.170500
    22  C   -0.218561
    23  C   -0.170699
    24  C    0.159221
    25  C   -0.171345
    26  C   -0.218499
    27  H    0.226073
    28  H    0.223903
    29  H    0.275858
    30  H    0.275507
    31  H    0.223849
    32  N    0.490657
    33  O   -0.457037
    34  O   -0.460408
 Sum of Mulliken charges =  -0.00000

 Dipole moment (field-independent basis, Debye):
    X=             -4.6126    Y=              0.4568    Z=             -2.5934  Tot=              5.3114
 Quadrupole moment (field-independent basis, Debye-Ang):
   XX=            -76.8257   YY=            -95.9445   ZZ=            -93.6165
   XY=             -0.5919   XZ=              3.9880   YZ=              4.4100

 Normal termination of Gaussian 16 at Wed May  5 21:51:09 2021.
