 Gaussian 16, Revision A.03,
 Gaussian 16:  EM64L-G16RevA.03 25-Dec-2016

 -------------
 #p 6-31g* mp2
 -------------

 ------------------------------------------------------
 Input file generated by CHIRIPA (05-May-2021 14:51:08)
 ------------------------------------------------------
 Symbolic Z-matrix:
 Charge =  0 Multiplicity = 1

                         Standard orientation:
 ---------------------------------------------------------------------
 Center     Atomic      Atomic             Coordinates (Angstroms)
 Number     Number       Type             X           Y           Z
 ---------------------------------------------------------------------
      1          6           0        3.748976   -0.042488    0.084264
      2          6           0        4.490674   -0.860546   -0.973398
      3          6           0        5.718066   -0.136396   -1.527394
      4          1           0        3.443636    0.918383   -0.352130
      5          1           0        4.439115    0.192787    0.906303
      6          1           0        3.798966   -1.095387   -1.792548
      7          1           0        4.794116   -1.819660   -0.534492
      8          1           0        6.429836    0.084199   -0.725320
      9          1           0        5.429032    0.812588   -1.990524
     10          1           0        6.233222   -0.739091   -2.281869
     11          6           0        2.519599   -0.753123    0.647610
     12          6           0        1.777900    0.064935    1.705272
     13          6           0        0.550508   -0.659215    2.259268
     14          1           0        1.829459   -0.988398   -0.174429
     15          1           0        2.824938   -1.713994    1.084004
     16          1           0        1.474458    1.024049    1.266366
     17          1           0        2.469608    0.299776    2.524422
     18          1           0        0.839542   -1.608199    2.722398
     19          1           0       -0.161262   -0.879810    1.457194
     20          1           0        0.035352   -0.056520    3.013743
     21          6           0       -3.006683    1.128550   -0.183832
     22          6           0       -1.569795    1.578009   -0.450895
     23          6           0       -1.330086    3.042220   -0.081547
     24          1           0       -3.695875    1.768878   -0.751228
     25          1           0       -3.240157    1.282577    0.878788
     26          1           0       -1.338646    1.421889   -1.512409
     27          1           0       -0.883933    0.936415    0.117054
     28          1           0       -1.533573    3.209770    0.981054
     29          1           0       -1.990869    3.698003   -0.657667
     30          1           0       -0.296576    3.342436   -0.280510
     31          6           0       -3.261891   -0.332939   -0.548043
     32          6           0       -4.698779   -0.782398   -0.280979
     33          6           0       -4.938488   -2.246610   -0.650326
     34          1           0       -3.028417   -0.486966   -1.610663
     35          1           0       -2.572698   -0.973266    0.019354
     36          1           0       -5.384641   -0.140803   -0.848928
     37          1           0       -4.929928   -0.626277    0.780535
     38          1           0       -4.277705   -2.902392   -0.074206
     39          1           0       -4.735000   -2.414159   -1.712928
     40          1           0       -5.971999   -2.546824   -0.451363
 ---------------------------------------------------------------------

 SCF Done:  E(RHF) =  -470.732903570     A.U. after   11 cycles
 E2 =    -0.1583801354D+01 EUMP2 =    -0.47231670492401D+03

 The electronic state is 1-A.
 Alpha  occ. eigenvalues --  -11.21634 -11.21606 -11.21604 -11.21566 -11.21419
 Alpha  occ. eigenvalues --  -11.21415 -11.21359 -11.21352 -11.21136 -11.21093
 Alpha  occ. eigenvalues --  -11.21074 -11.21068  -1.08475  -1.08415  -1.03601
 Alpha  occ. eigenvalues --   -1.03497  -0.96018  -0.95983  -0.87040  -0.86992
 Alpha  occ. eigenvalues --   -0.79623  -0.79601  -0.78271  -0.78249  -0.65289
 Alpha  occ. eigenvalues --   -0.64910  -0.61243  -0.60677  -0.59380  -0.59336
 Alpha  occ. eigenvalues --   -0.57650  -0.57567  -0.55332  -0.55256  -0.52709
 Alpha  occ. eigenvalues --   -0.52680  -0.52437  -0.52409  -0.50015  -0.49888
 Alpha  occ. eigenvalues --   -0.48001  -0.47874  -0.46678  -0.46613  -0.45917
 Alpha  occ. eigenvalues --   -0.45759  -0.45723  -0.45511  -0.43809  -0.43788
 Alpha virt. eigenvalues --    0.20263   0.22876   0.23752   0.24362   0.25781
 Alpha virt. eigenvalues --    0.26342   0.26869   0.27769   0.28563   0.29077
 Alpha virt. eigenvalues --    0.31033   0.31504   0.31623   0.31851   0.32373

 Mulliken charges:
               1
     1  C   -0.298278
     2  C   -0.299718
     3  C   -0.475724
     4  H    0.149738
     5  H    0.149512
     6  H    0.152123
     7  H    0.151930
     8  H    0.155173
     9  H    0.155203
    10  H    0.160286
    11  C   -0.298734
    12  C   -0.303317
    13  C   -0.481513
    14  H    0.150181
    15  H    0.149739
    16  H    0.154950
    17  H    0.152750
    18  H    0.156309
    19  H    0.158481
    20  H    0.160299
    21  C   -0.297321
    22  C   -0.310167
    23  C   -0.475449
    24  H    0.149646
    25  H    0.149766
    26  H    0.151058
    27  H    0.163559
    28  H    0.155373
    29  H    0.155323
    30  H    0.159547
    31  C   -0.301878
    32  C   -0.299533
    33  C   -0.475824
    34  H    0.149397
    35  H    0.152041
    36  H    0.152034
    37  H    0.152239
    38  H    0.155419
    39  H    0.155073
    40  H    0.160308
 Sum of Mulliken charges =  -0.00000

 Dipole moment (field-independent basis, Debye):
    X=              0.0086    Y=             -0.0098    Z=              0.0136  Tot=              0.0188
 Quadrupole moment (field-independent basis, Debye-Ang):
   XX=            -85.2990   YY=            -85.8082   ZZ=            -83.6546
   XY=             -1.0199   XZ=              1.0415   YZ=             -0.5960

 Normal termination of Gaussian 16 at Thu May  6 14:52:53 2021.
