 Gaussian 16, Revision A.03,
 Gaussian 16:  EM64L-G16RevA.03 25-Dec-2016

 -------------
 #p 6-31g* mp2
 -------------

 ------------------------------------------------------
 Input file generated by CHIRIPA (05-May-2021 14:53:17)
 ------------------------------------------------------
 Symbolic Z-matrix:
 Charge =  0 Multiplicity = 1

                         Standard orientation:
 ---------------------------------------------------------------------
 Center     Atomic      Atomic             Coordinates (Angstroms)
 Number     Number       Type             X           Y           Z
 ---------------------------------------------------------------------
      1          6           0        2.350868    1.578032    0.182726
      2          6           0        0.854553    1.724844   -0.095611
      3          6           0        0.297031    3.072093    0.364698
      4          1           0        2.531035    1.702506    1.259291
      5          1           0        2.891902    2.391138   -0.320799
      6          1           0        0.316638    0.910906    0.407149
      7          1           0        0.677904    1.599816   -1.171613
      8          1           0        0.807502    3.895025   -0.145992
      9          1           0        0.444182    3.202201    1.441740
     10          1           0       -0.774111    3.155727    0.156084
     11          6           0        2.922851    0.236409   -0.271819
     12          6           0        4.419167    0.089598    0.006519
     13          6           0        4.976688   -1.257651   -0.453791
     14          1           0        2.381818   -0.576696    0.231706
     15          1           0        2.742685    0.111936   -1.348383
     16          1           0        4.595815    0.214626    1.082520
     17          1           0        4.957082    0.903535   -0.496242
     18          1           0        4.829537   -1.387759   -1.530833
     19          1           0        4.466218   -2.080583    0.056900
     20          1           0        6.047831   -1.341285   -0.245177
     21          6           0       -0.628391   -2.719669    0.556869
     22          6           0       -0.979869   -1.827283    1.575019
     23          6           0       -1.772675   -0.709757    1.297274
     24          6           0       -2.198454   -0.514360   -0.015670
     25          6           0       -1.865019   -1.385353   -1.051759
     26          6           0       -1.071307   -2.496250   -0.750965
     27          1           0       -0.012168   -3.585215    0.781581
     28          1           0       -0.637329   -1.998277    2.591619
     29          1           0       -2.059559   -0.002919    2.066361
     30          1           0       -2.221594   -1.188389   -2.055491
     31          1           0       -0.799893   -3.187614   -1.543679
     32          7           0       -3.038242    0.665206   -0.321907
     33          8           0       -3.400593    0.814971   -1.486771
     34          8           0       -3.318216    1.417649    0.608728
 ---------------------------------------------------------------------

 SCF Done:  E(RHF) =  -669.534977288     A.U. after   15 cycles
 E2 =    -0.2094669151D+01 EUMP2 =    -0.67162964643855D+03

 The electronic state is 1-A.
 Alpha  occ. eigenvalues --  -20.60901 -20.60889 -15.85927 -11.31250 -11.27842
 Alpha  occ. eigenvalues --  -11.27824 -11.27623 -11.26891 -11.26867 -11.21790
 Alpha  occ. eigenvalues --  -11.21485 -11.21388 -11.21323 -11.21250 -11.20541
 Alpha  occ. eigenvalues --   -1.59959  -1.39514  -1.19470  -1.08861  -1.08431
 Alpha  occ. eigenvalues --   -1.04872  -1.03485  -0.95930  -0.95695  -0.86936
 Alpha  occ. eigenvalues --   -0.86264  -0.82528  -0.79575  -0.78249  -0.77574
 Alpha  occ. eigenvalues --   -0.72152  -0.71283  -0.70573  -0.65127  -0.65078
 Alpha  occ. eigenvalues --   -0.64866  -0.62210  -0.60916  -0.59315  -0.57533
 Alpha  occ. eigenvalues --   -0.55372  -0.55239  -0.53305  -0.52954  -0.52559
 Alpha  occ. eigenvalues --   -0.52345  -0.49886  -0.48915  -0.48908  -0.47863
 Alpha  occ. eigenvalues --   -0.46629  -0.45755  -0.45651  -0.44905  -0.43700
 Alpha  occ. eigenvalues --   -0.37384  -0.36416
 Alpha virt. eigenvalues --    0.04917   0.11135   0.16411   0.21266   0.22827
 Alpha virt. eigenvalues --    0.24288   0.26545   0.27267   0.27337   0.27758
 Alpha virt. eigenvalues --    0.28381   0.30927   0.31465   0.31718   0.32230

 Mulliken charges:
               1
     1  C   -0.296427
     2  C   -0.310383
     3  C   -0.480568
     4  H    0.147136
     5  H    0.150136
     6  H    0.156773
     7  H    0.151251
     8  H    0.153890
     9  H    0.151351
    10  H    0.175214
    11  C   -0.298132
    12  C   -0.299472
    13  C   -0.474752
    14  H    0.145905
    15  H    0.148853
    16  H    0.151075
    17  H    0.153544
    18  H    0.155022
    19  H    0.150320
    20  H    0.160984
    21  C   -0.170768
    22  C   -0.215980
    23  C   -0.178875
    24  C    0.166011
    25  C   -0.170752
    26  C   -0.216842
    27  H    0.226377
    28  H    0.224097
    29  H    0.276243
    30  H    0.275892
    31  H    0.224237
    32  N    0.488378
    33  O   -0.459578
    34  O   -0.460158
 Sum of Mulliken charges =  -0.00000

 Dipole moment (field-independent basis, Debye):
    X=              2.7775    Y=             -4.1708    Z=              1.0423  Tot=              5.1182
 Quadrupole moment (field-independent basis, Debye-Ang):
   XX=           -109.0865   YY=            -91.2753   ZZ=            -89.4377
   XY=              8.2475   XZ=             -2.2956   YZ=              0.3503

 Normal termination of Gaussian 16 at Thu May  6 01:13:14 2021.
