 Gaussian 16, Revision A.03,
 Gaussian 16:  EM64L-G16RevA.03 25-Dec-2016

 -------------
 #p 6-31g* mp2
 -------------

 ------------------------------------------------------
 Input file generated by CHIRIPA (05-May-2021 14:57:26)
 ------------------------------------------------------
 Symbolic Z-matrix:
 Charge =  0 Multiplicity = 1

                         Standard orientation:
 ---------------------------------------------------------------------
 Center     Atomic      Atomic             Coordinates (Angstroms)
 Number     Number       Type             X           Y           Z
 ---------------------------------------------------------------------
      1          6           0        2.197739   -2.270021    0.653463
      2          6           0        2.386980   -1.315990    1.658716
      3          6           0        2.918586   -0.059372    1.353995
      4          6           0        3.251438    0.210746    0.027521
      5          6           0        3.074768   -0.718726   -0.996276
      6          6           0        2.541631   -1.968875   -0.668494
      7          1           0        1.784180   -3.243679    0.899134
      8          1           0        2.120814   -1.547097    2.686233
      9          1           0        3.075569    0.697782    2.112607
     10          1           0        3.349623   -0.459188   -2.011418
     11          1           0        2.395762   -2.707840   -1.451244
     12          7           0        3.815036    1.537646   -0.307280
     13          8           0        4.100237    1.751002   -1.483621
     14          8           0        3.960912    2.339191    0.612983
     15          6           0       -5.024088    1.681401    0.209251
     16          6           0       -3.691280    2.095740    0.301277
     17          6           0       -2.649536    1.177209    0.141226
     18          6           0       -2.978198   -0.153840   -0.110924
     19          6           0       -4.296162   -0.597447   -0.208253
     20          6           0       -5.321750    0.338497   -0.044773
     21          1           0       -5.827065    2.401701    0.334915
     22          1           0       -3.457144    3.138017    0.498468
     23          1           0       -1.608947    1.470809    0.207494
     24          1           0       -4.498283   -1.643183   -0.405737
     25          1           0       -6.355905    0.013867   -0.116763
     26          7           0       -1.883902   -1.135465   -0.282178
     27          8           0       -2.199858   -2.302428   -0.503551
     28          8           0       -0.730955   -0.719312   -0.191792
 ---------------------------------------------------------------------

 SCF Done:  E(RHF) =  -868.338540478     A.U. after   16 cycles
 E2 =    -0.2599948886D+01 EUMP2 =    -0.87093848936387D+03

 The electronic state is 1-A.
 Alpha  occ. eigenvalues --  -20.61266 -20.61231 -20.59907 -20.59893 -15.86276
 Alpha  occ. eigenvalues --  -15.84944 -11.31481 -11.29915 -11.28047 -11.28005
 Alpha  occ. eigenvalues --  -11.27741 -11.27020 -11.26980 -11.26519 -11.26440
 Alpha  occ. eigenvalues --  -11.26075 -11.25416 -11.25308  -1.60334  -1.58989
 Alpha  occ. eigenvalues --   -1.39886  -1.38554  -1.19641  -1.18034  -1.09070
 Alpha  occ. eigenvalues --   -1.07492  -1.05014  -1.03418  -0.95931  -0.94410
 Alpha  occ. eigenvalues --   -0.86420  -0.84847  -0.82762  -0.81288  -0.77831
 Alpha  occ. eigenvalues --   -0.76392  -0.72517  -0.71648  -0.71180  -0.70743
 Alpha  occ. eigenvalues --   -0.70307  -0.69180  -0.65293  -0.65012  -0.63721
 Alpha  occ. eigenvalues --   -0.63468  -0.62359  -0.60829  -0.55525  -0.53919
 Alpha  occ. eigenvalues --   -0.53359  -0.53102  -0.51743  -0.51559  -0.49285
 Alpha  occ. eigenvalues --   -0.49188  -0.47951  -0.47897  -0.45332  -0.44051
 Alpha  occ. eigenvalues --   -0.37618  -0.36612  -0.35841  -0.34965
 Alpha virt. eigenvalues --    0.04671   0.06166   0.11044   0.12684   0.16211
 Alpha virt. eigenvalues --    0.17790   0.21224   0.22654   0.27149   0.28099
 Alpha virt. eigenvalues --    0.28479   0.29541   0.30796   0.32182   0.32317

 Mulliken charges:
               1
     1  C   -0.152035
     2  C   -0.215922
     3  C   -0.172787
     4  C    0.157587
     5  C   -0.170284
     6  C   -0.206482
     7  H    0.224989
     8  H    0.216811
     9  H    0.268446
    10  H    0.270383
    11  H    0.221238
    12  N    0.487699
    13  O   -0.464145
    14  O   -0.466655
    15  C   -0.170302
    16  C   -0.218699
    17  C   -0.171227
    18  C    0.157198
    19  C   -0.171182
    20  C   -0.218651
    21  H    0.226997
    22  H    0.226351
    23  H    0.277950
    24  H    0.274676
    25  H    0.223972
    26  N    0.488337
    27  O   -0.465402
    28  O   -0.458862
 Sum of Mulliken charges =  -0.00000

 Dipole moment (field-independent basis, Debye):
    X=             -6.1882    Y=             -1.3872    Z=              1.7331  Tot=              6.5743
 Quadrupole moment (field-independent basis, Debye-Ang):
   XX=            -94.6866   YY=           -105.6132   ZZ=           -101.4121
   XY=            -23.8481   XZ=              2.3791   YZ=              1.7711

 Normal termination of Gaussian 16 at Thu May  6 16:26:55 2021.
