 Gaussian 16, Revision A.03,
 Gaussian 16:  EM64L-G16RevA.03 25-Dec-2016

 -------------
 #p 6-31g* mp2
 -------------

 ------------------------------------------------------
 Input file generated by CHIRIPA (05-May-2021 14:53:16)
 ------------------------------------------------------
 Symbolic Z-matrix:
 Charge =  0 Multiplicity = 1

                         Standard orientation:
 ---------------------------------------------------------------------
 Center     Atomic      Atomic             Coordinates (Angstroms)
 Number     Number       Type             X           Y           Z
 ---------------------------------------------------------------------
      1          6           0        3.748497    0.261710   -0.319317
      2          6           0        5.260361    0.412754   -0.490890
      3          6           0        5.644133    1.671562   -1.269294
      4          1           0        3.273730    0.241044   -1.309829
      5          1           0        3.354815    1.147844    0.197573
      6          1           0        5.651276   -0.474032   -1.006071
      7          1           0        5.731603    0.432869    0.500142
      8          1           0        5.281624    2.567746   -0.755444
      9          1           0        5.200841    1.655692   -2.270215
     10          1           0        6.729387    1.759720   -1.380252
     11          6           0        3.349135   -0.992005    0.456852
     12          6           0        1.837271   -1.143048    0.628424
     13          6           0        1.453499   -2.401857    1.406829
     14          1           0        3.742817   -1.878139   -0.060038
     15          1           0        3.823902   -0.971339    1.447364
     16          1           0        1.366029   -1.163164   -0.362607
     17          1           0        1.446356   -0.256262    1.143606
     18          1           0        1.896791   -2.385986    2.407749
     19          1           0        1.816008   -3.298041    0.892978
     20          1           0        0.368245   -2.490015    1.517786
     21          6           0       -2.259425    2.504217    1.032067
     22          6           0       -1.486466    1.379487    1.338723
     23          6           0       -1.761690    0.144958    0.743125
     24          6           0       -2.822116    0.070752   -0.158695
     25          6           0       -3.610450    1.173263   -0.484715
     26          6           0       -3.317085    2.397703    0.122930
     27          1           0       -2.038579    3.459310    1.499420
     28          1           0       -0.664458    1.459256    2.044403
     29          1           0       -1.179363   -0.741728    0.962447
     30          1           0       -4.423384    1.062642   -1.192046
     31          1           0       -3.919061    3.269510   -0.117119
     32          7           0       -3.123086   -1.230848   -0.795604
     33          8           0       -4.062796   -1.269964   -1.586837
     34          8           0       -2.413575   -2.187282   -0.491520
 ---------------------------------------------------------------------

 SCF Done:  E(RHF) =  -669.535223279     A.U. after   15 cycles
 E2 =    -0.2092468171D+01 EUMP2 =    -0.67162769144952D+03

 The electronic state is 1-A.
 Alpha  occ. eigenvalues --  -20.60762 -20.60757 -15.85809 -11.31133 -11.27722
 Alpha  occ. eigenvalues --  -11.27667 -11.27466 -11.26730 -11.26712 -11.21993
 Alpha  occ. eigenvalues --  -11.21817 -11.21682 -11.21620 -11.21294 -11.21274
 Alpha  occ. eigenvalues --   -1.59834  -1.39389  -1.19317  -1.08722  -1.08714
 Alpha  occ. eigenvalues --   -1.04723  -1.03806  -0.96240  -0.95556  -0.87241
 Alpha  occ. eigenvalues --   -0.86119  -0.82398  -0.79882  -0.78547  -0.77433
 Alpha  occ. eigenvalues --   -0.72032  -0.71155  -0.70442  -0.65349  -0.64967
 Alpha  occ. eigenvalues --   -0.64742  -0.62174  -0.61179  -0.59556  -0.57843
 Alpha  occ. eigenvalues --   -0.55499  -0.55213  -0.53054  -0.53016  -0.52824
 Alpha  occ. eigenvalues --   -0.52507  -0.50154  -0.48792  -0.48784  -0.48190
 Alpha  occ. eigenvalues --   -0.46908  -0.46068  -0.45987  -0.44800  -0.44054
 Alpha  occ. eigenvalues --   -0.37305  -0.36296
 Alpha virt. eigenvalues --    0.05074   0.11305   0.16521   0.20040   0.22812
 Alpha virt. eigenvalues --    0.23870   0.25461   0.26339   0.26919   0.28190
 Alpha virt. eigenvalues --    0.29272   0.29777   0.31421   0.31574   0.32200

 Mulliken charges:
               1
     1  C   -0.298009
     2  C   -0.299972
     3  C   -0.475746
     4  H    0.152127
     5  H    0.145582
     6  H    0.153736
     7  H    0.151568
     8  H    0.153654
     9  H    0.156243
    10  H    0.161091
    11  C   -0.298218
    12  C   -0.305957
    13  C   -0.482930
    14  H    0.153463
    15  H    0.149024
    16  H    0.161176
    17  H    0.139667
    18  H    0.153563
    19  H    0.163383
    20  H    0.166506
    21  C   -0.170416
    22  C   -0.224261
    23  C   -0.175254
    24  C    0.155489
    25  C   -0.169812
    26  C   -0.219292
    27  H    0.225400
    28  H    0.223843
    29  H    0.291229
    30  H    0.275407
    31  H    0.223234
    32  N    0.487192
    33  O   -0.460211
    34  O   -0.462500
 Sum of Mulliken charges =  -0.00000

 Dipole moment (field-independent basis, Debye):
    X=              1.1500    Y=              4.4671    Z=              2.1570  Tot=              5.0922
 Quadrupole moment (field-independent basis, Debye-Ang):
   XX=            -98.2549   YY=            -93.8701   ZZ=            -94.4627
   XY=            -15.4762   XZ=             -4.2594   YZ=             -0.7873

 Normal termination of Gaussian 16 at Wed May  5 17:10:38 2021.
