 Gaussian 16, Revision A.03,
 Gaussian 16:  EM64L-G16RevA.03 25-Dec-2016

 -------------
 #p 6-31g* mp2
 -------------

 ------------------------------------------------------
 Input file generated by CHIRIPA (05-May-2021 14:57:21)
 ------------------------------------------------------
 Symbolic Z-matrix:
 Charge =  0 Multiplicity = 1

                         Standard orientation:
 ---------------------------------------------------------------------
 Center     Atomic      Atomic             Coordinates (Angstroms)
 Number     Number       Type             X           Y           Z
 ---------------------------------------------------------------------
      1          6           0       -1.497206   -0.356124    0.169348
      2          6           0       -2.114220   -0.410065   -1.084807
      3          6           0       -3.501925   -0.284753   -1.199353
      4          6           0       -4.245363   -0.105799   -0.033777
      5          6           0       -3.659913   -0.047892    1.230020
      6          6           0       -2.270658   -0.175528    1.320729
      7          1           0       -0.418602   -0.454373    0.249071
      8          1           0       -1.516061   -0.550228   -1.980689
      9          1           0       -4.005447   -0.322837   -2.157702
     10          1           0       -4.282668    0.092783    2.105123
     11          1           0       -1.794186   -0.133252    2.296040
     12          7           0       -5.715284    0.028093   -0.142424
     13          8           0       -6.347898    0.184946    0.899609
     14          8           0       -6.206962   -0.026350   -1.267558
     15          6           0        3.126876    2.493877    0.027917
     16          6           0        2.280147    1.432125    0.362962
     17          6           0        2.754853    0.117137    0.359641
     18          6           0        4.087813   -0.100871    0.014707
     19          6           0        4.956106    0.935828   -0.323840
     20          6           0        4.459802    2.242782   -0.313813
     21          1           0        2.749724    3.512271    0.033102
     22          1           0        1.244523    1.624153    0.628766
     23          1           0        2.121119   -0.723499    0.614846
     24          1           0        5.983661    0.713059   -0.584459
     25          1           0        5.119665    3.065396   -0.574451
     26          7           0        4.601794   -1.488737    0.007640
     27          8           0        5.780192   -1.654338   -0.299917
     28          8           0        3.816523   -2.384666    0.309795
 ---------------------------------------------------------------------

 SCF Done:  E(RHF) =  -868.336722732     A.U. after   16 cycles
 E2 =    -0.2600288343D+01 EUMP2 =    -0.87093701107496D+03

 The electronic state is 1-A.
 Alpha  occ. eigenvalues --  -20.61529 -20.61514 -20.61127 -20.61121 -15.86583
 Alpha  occ. eigenvalues --  -15.86182 -11.32069 -11.31670 -11.28756 -11.28573
 Alpha  occ. eigenvalues --  -11.28337 -11.28230 -11.28206 -11.28107 -11.27724
 Alpha  occ. eigenvalues --  -11.27587 -11.27339 -11.27284  -1.60597  -1.60198
 Alpha  occ. eigenvalues --   -1.40149  -1.39748  -1.20237  -1.19853  -1.09589
 Alpha  occ. eigenvalues --   -1.09253  -1.05680  -1.05258  -0.96418  -0.96066
 Alpha  occ. eigenvalues --   -0.87049  -0.86662  -0.83280  -0.82871  -0.78315
 Alpha  occ. eigenvalues --   -0.77884  -0.72797  -0.72399  -0.71923  -0.71522
 Alpha  occ. eigenvalues --   -0.71403  -0.70973  -0.65890  -0.65674  -0.65511
 Alpha  occ. eigenvalues --   -0.65263  -0.63041  -0.62589  -0.56175  -0.55771
 Alpha  occ. eigenvalues --   -0.53962  -0.53803  -0.53560  -0.53352  -0.49564
 Alpha  occ. eigenvalues --   -0.49545  -0.49168  -0.49146  -0.45529  -0.45126
 Alpha  occ. eigenvalues --   -0.38178  -0.37882  -0.37278  -0.36847
 Alpha virt. eigenvalues --    0.04236   0.04599   0.10381   0.10786   0.15647
 Alpha virt. eigenvalues --    0.15983   0.18286   0.21943   0.24754   0.26678
 Alpha virt. eigenvalues --    0.27249   0.29588   0.29916   0.30748   0.32207

 Mulliken charges:
               1
     1  C   -0.177153
     2  C   -0.219887
     3  C   -0.170407
     4  C    0.159483
     5  C   -0.170175
     6  C   -0.221099
     7  H    0.223663
     8  H    0.227284
     9  H    0.277621
    10  H    0.277284
    11  H    0.223774
    12  N    0.487813
    13  O   -0.459122
    14  O   -0.458764
    15  C   -0.170555
    16  C   -0.220281
    17  C   -0.179522
    18  C    0.161359
    19  C   -0.169919
    20  C   -0.217826
    21  H    0.229240
    22  H    0.221353
    23  H    0.270254
    24  H    0.278457
    25  H    0.227046
    26  N    0.488453
    27  O   -0.456910
    28  O   -0.461462
 Sum of Mulliken charges =  -0.00000

 Dipole moment (field-independent basis, Debye):
    X=              3.4367    Y=              4.5041    Z=              0.3121  Tot=              5.6741
 Quadrupole moment (field-independent basis, Debye-Ang):
   XX=           -158.1926   YY=           -106.1436   ZZ=           -100.1890
   XY=             23.9290   XZ=             -3.6486   YZ=              0.0599

 Normal termination of Gaussian 16 at Wed May  5 22:33:34 2021.
