 Gaussian 16, Revision A.03,
 Gaussian 16:  EM64L-G16RevA.03 25-Dec-2016

 -------------
 #p 6-31g* mp2
 -------------

 ------------------------------------------------------
 Input file generated by CHIRIPA (05-May-2021 14:51:12)
 ------------------------------------------------------
 Symbolic Z-matrix:
 Charge =  0 Multiplicity = 1

                         Standard orientation:
 ---------------------------------------------------------------------
 Center     Atomic      Atomic             Coordinates (Angstroms)
 Number     Number       Type             X           Y           Z
 ---------------------------------------------------------------------
      1          6           0       -2.702060   -1.109227    0.063086
      2          6           0       -1.356962   -1.463956    0.697803
      3          6           0       -1.035267   -2.955914    0.606340
      4          1           0       -3.496174   -1.687808    0.554585
      5          1           0       -2.695583   -1.419932   -0.990866
      6          1           0       -1.365473   -1.151421    1.749879
      7          1           0       -0.565981   -0.884320    0.204865
      8          1           0       -0.999480   -3.278903   -0.439126
      9          1           0       -1.803515   -3.547522    1.114667
     10          1           0       -0.069394   -3.187270    1.066149
     11          6           0       -3.037733    0.378749    0.146627
     12          6           0       -4.382831    0.733478   -0.488089
     13          6           0       -4.704526    2.225437   -0.396626
     14          1           0       -3.044210    0.689454    1.200580
     15          1           0       -2.243618    0.957331   -0.344871
     16          1           0       -5.173812    0.153842    0.004849
     17          1           0       -4.374320    0.420943   -1.540166
     18          1           0       -3.936278    2.817044   -0.904954
     19          1           0       -4.740312    2.548426    0.648839
     20          1           0       -5.670398    2.456792   -0.856435
     21          6           0        3.249648    1.027378   -0.132995
     22          6           0        2.428806    2.218672    0.362001
     23          6           0        3.202124    3.536200    0.299596
     24          1           0        4.165169    0.945684    0.468746
     25          1           0        3.570841    1.216482   -1.166664
     26          1           0        2.108090    2.026769    1.393957
     27          1           0        1.515040    2.297425   -0.240864
     28          1           0        3.509078    3.754407   -0.728396
     29          1           0        4.105499    3.482214    0.915713
     30          1           0        2.596603    4.374485    0.658039
     31          6           0        2.490145   -0.296901   -0.076719
     32          6           0        3.310987   -1.488195   -0.571715
     33          6           0        2.537669   -2.805722   -0.509309
     34          1           0        2.168952   -0.486004    0.956950
     35          1           0        1.574624   -0.215207   -0.678460
     36          1           0        4.224752   -1.566946    0.031150
     37          1           0        3.631702   -1.296291   -1.603670
     38          1           0        1.634294   -2.751737   -1.125427
     39          1           0        2.230714   -3.023929    0.518682
     40          1           0        3.143189   -3.644007   -0.867752
 ---------------------------------------------------------------------

 SCF Done:  E(RHF) =  -470.731742770     A.U. after   11 cycles
 E2 =    -0.1584520297D+01 EUMP2 =    -0.47231626306692D+03

 The electronic state is 1-A.
 Alpha  occ. eigenvalues --  -11.21623 -11.21614 -11.21574 -11.21439 -11.21431
 Alpha  occ. eigenvalues --  -11.21372 -11.21351 -11.21284 -11.21086 -11.21053
 Alpha  occ. eigenvalues --  -11.21034 -11.20896  -1.08473  -1.08354  -1.03580
 Alpha  occ. eigenvalues --   -1.03424  -0.96040  -0.95871  -0.87106  -0.86839
 Alpha  occ. eigenvalues --   -0.79621  -0.79523  -0.78376  -0.78089  -0.65146
 Alpha  occ. eigenvalues --   -0.64956  -0.61019  -0.60815  -0.59502  -0.59182
 Alpha  occ. eigenvalues --   -0.57719  -0.57432  -0.55331  -0.55170  -0.52863
 Alpha  occ. eigenvalues --   -0.52681  -0.52406  -0.52144  -0.50013  -0.49753
 Alpha  occ. eigenvalues --   -0.47889  -0.47836  -0.46667  -0.46607  -0.46061
 Alpha  occ. eigenvalues --   -0.45750  -0.45672  -0.45239  -0.43803  -0.43682
 Alpha virt. eigenvalues --    0.21206   0.23176   0.23314   0.24825   0.25408
 Alpha virt. eigenvalues --    0.26069   0.26781   0.27536   0.28593   0.29575
 Alpha virt. eigenvalues --    0.29882   0.31119   0.31367   0.31972   0.32514

 Mulliken charges:
               1
     1  C   -0.297749
     2  C   -0.307826
     3  C   -0.476726
     4  H    0.149376
     5  H    0.148534
     6  H    0.150641
     7  H    0.160621
     8  H    0.153646
     9  H    0.153606
    10  H    0.164235
    11  C   -0.297899
    12  C   -0.299571
    13  C   -0.475621
    14  H    0.149571
    15  H    0.148782
    16  H    0.151979
    17  H    0.151667
    18  H    0.154961
    19  H    0.155186
    20  H    0.160132
    21  C   -0.297595
    22  C   -0.299648
    23  C   -0.475718
    24  H    0.149783
    25  H    0.149357
    26  H    0.152446
    27  H    0.151302
    28  H    0.155111
    29  H    0.155259
    30  H    0.160460
    31  C   -0.302176
    32  C   -0.299696
    33  C   -0.477776
    34  H    0.151140
    35  H    0.152018
    36  H    0.151812
    37  H    0.151544
    38  H    0.158413
    39  H    0.156447
    40  H    0.159973
 Sum of Mulliken charges =  -0.00000

 Dipole moment (field-independent basis, Debye):
    X=              0.0637    Y=             -0.0020    Z=              0.0030  Tot=              0.0638
 Quadrupole moment (field-independent basis, Debye-Ang):
   XX=            -84.9330   YY=            -86.9349   ZZ=            -83.0577
   XY=             -0.1169   XZ=             -0.0637   YZ=             -0.2649

 Normal termination of Gaussian 16 at Wed May  5 21:32:02 2021.
