 Gaussian 16, Revision A.03,
 Gaussian 16:  EM64L-G16RevA.03 25-Dec-2016

 -------------
 #p 6-31g* mp2
 -------------

 ------------------------------------------------------
 Input file generated by CHIRIPA (05-May-2021 14:55:25)
 ------------------------------------------------------
 Symbolic Z-matrix:
 Charge =  0 Multiplicity = 1

                         Standard orientation:
 ---------------------------------------------------------------------
 Center     Atomic      Atomic             Coordinates (Angstroms)
 Number     Number       Type             X           Y           Z
 ---------------------------------------------------------------------
      1          6           0        2.605163    1.982011    0.694759
      2          6           0        2.144962    1.713977   -0.598645
      3          6           0        1.892529    0.400132   -1.004402
      4          6           0        2.112114   -0.626108   -0.086848
      5          6           0        2.570116   -0.391176    1.208656
      6          6           0        2.815900    0.930433    1.592698
      7          1           0        2.798677    3.005652    1.001526
      8          1           0        1.980411    2.528660   -1.298116
      9          1           0        1.535808    0.164290   -1.999664
     10          1           0        2.724771   -1.224219    1.883592
     11          1           0        3.173252    1.135621    2.597807
     12          7           0        1.848394   -2.021126   -0.504911
     13          8           0        2.049766   -2.907577    0.322308
     14          8           0        1.445312   -2.201676   -1.651891
     15          6           0       -2.704334    1.259561    0.142426
     16          6           0       -1.570432    1.917462   -0.644605
     17          6           0       -1.473554    3.422844   -0.395131
     18          1           0       -3.655348    1.739227   -0.126717
     19          1           0       -2.552972    1.445464    1.214772
     20          1           0       -1.723141    1.729197   -1.715050
     21          1           0       -0.622031    1.436045   -0.373699
     22          1           0       -1.297211    3.626931    0.665931
     23          1           0       -2.404576    3.921748   -0.683041
     24          1           0       -0.656440    3.872878   -0.967541
     25          6           0       -2.813946   -0.245310   -0.096483
     26          6           0       -3.947849   -0.903210    0.690548
     27          6           0       -4.044727   -2.408591    0.441075
     28          1           0       -2.965308   -0.431213   -1.168828
     29          1           0       -1.862933   -0.724976    0.172660
     30          1           0       -4.896249   -0.421794    0.419642
     31          1           0       -3.795140   -0.714946    1.760993
     32          1           0       -3.113705   -2.907496    0.728985
     33          1           0       -4.221069   -2.612679   -0.619988
     34          1           0       -4.861841   -2.858627    1.013485
 ---------------------------------------------------------------------

 SCF Done:  E(RHF) =  -669.534164358     A.U. after   15 cycles
 E2 =    -0.2094004852D+01 EUMP2 =    -0.67162816921026D+03

 The electronic state is 1-A.
 Alpha  occ. eigenvalues --  -20.60838 -20.60831 -15.85893 -11.31284 -11.27845
 Alpha  occ. eigenvalues --  -11.27819 -11.27576 -11.26861 -11.26828 -11.21664
 Alpha  occ. eigenvalues --  -11.21530 -11.21412 -11.21399 -11.21221 -11.20700
 Alpha  occ. eigenvalues --   -1.59914  -1.39465  -1.19468  -1.08846  -1.08401
 Alpha  occ. eigenvalues --   -1.04878  -1.03523  -0.95987  -0.95675  -0.87001
 Alpha  occ. eigenvalues --   -0.86250  -0.82509  -0.79616  -0.78195  -0.77541
 Alpha  occ. eigenvalues --   -0.72106  -0.71241  -0.70546  -0.65113  -0.65044
 Alpha  occ. eigenvalues --   -0.64851  -0.62211  -0.60950  -0.59419  -0.57599
 Alpha  occ. eigenvalues --   -0.55344  -0.55278  -0.53273  -0.52958  -0.52677
 Alpha  occ. eigenvalues --   -0.52384  -0.49903  -0.48869  -0.48861  -0.47909
 Alpha  occ. eigenvalues --   -0.46620  -0.45732  -0.45637  -0.44854  -0.43776
 Alpha  occ. eigenvalues --   -0.37444  -0.36316
 Alpha virt. eigenvalues --    0.04973   0.11097   0.16424   0.20659   0.22958
 Alpha virt. eigenvalues --    0.24190   0.26333   0.26701   0.27125   0.28407
 Alpha virt. eigenvalues --    0.28688   0.30104   0.31435   0.31832   0.32423

 Mulliken charges:
               1
     1  C   -0.170518
     2  C   -0.216956
     3  C   -0.174374
     4  C    0.160715
     5  C   -0.171739
     6  C   -0.218567
     7  H    0.226538
     8  H    0.225736
     9  H    0.277119
    10  H    0.275879
    11  H    0.223871
    12  N    0.487873
    13  O   -0.460494
    14  O   -0.459604
    15  C   -0.296875
    16  C   -0.310557
    17  C   -0.473903
    18  H    0.148849
    19  H    0.147963
    20  H    0.149390
    21  H    0.164118
    22  H    0.153963
    23  H    0.157822
    24  H    0.149279
    25  C   -0.298103
    26  C   -0.299808
    27  C   -0.476417
    28  H    0.151793
    29  H    0.150178
    30  H    0.150597
    31  H    0.150322
    32  H    0.160325
    33  H    0.156672
    34  H    0.158912
 Sum of Mulliken charges =  -0.00000

 Dipole moment (field-independent basis, Debye):
    X=              0.9995    Y=              4.7926    Z=              1.4740  Tot=              5.1128
 Quadrupole moment (field-independent basis, Debye-Ang):
   XX=            -90.8589   YY=           -102.4542   ZZ=            -90.4701
   XY=              9.3881   XZ=              5.0718   YZ=             -3.1070

 Normal termination of Gaussian 16 at Wed May  5 22:27:47 2021.
