 Gaussian 16, Revision A.03,
 Gaussian 16:  EM64L-G16RevA.03 25-Dec-2016

 -------------
 #p 6-31g* mp2
 -------------

 ------------------------------------------------------
 Input file generated by CHIRIPA (05-May-2021 14:53:15)
 ------------------------------------------------------
 Symbolic Z-matrix:
 Charge =  0 Multiplicity = 1

                         Standard orientation:
 ---------------------------------------------------------------------
 Center     Atomic      Atomic             Coordinates (Angstroms)
 Number     Number       Type             X           Y           Z
 ---------------------------------------------------------------------
      1          6           0        2.681097   -0.273612   -1.102241
      2          6           0        1.660059   -1.367900   -0.789187
      3          6           0        0.608489   -1.526992   -1.887679
      4          1           0        2.154482    0.679401   -1.248485
      5          1           0        3.176923   -0.506134   -2.054861
      6          1           0        1.167288   -1.134101    0.163247
      7          1           0        2.189183   -2.318381   -0.643483
      8          1           0        1.082532   -1.784160   -2.840437
      9          1           0        0.054831   -0.593152   -2.029124
     10          1           0       -0.111281   -2.314470   -1.643402
     11          6           0        3.738877   -0.102589   -0.013398
     12          6           0        4.759915    0.991698   -0.326451
     13          6           0        5.811486    1.150790    0.772040
     14          1           0        3.243051    0.129932    0.939222
     15          1           0        4.265492   -1.055603    0.132846
     16          1           0        4.230791    1.942179   -0.472156
     17          1           0        5.252686    0.757900   -1.278885
     18          1           0        6.365143    0.216950    0.913485
     19          1           0        5.337442    1.407959    1.724798
     20          1           0        6.531255    1.938268    0.527763
     21          6           0       -3.951490    1.488793   -1.139372
     22          6           0       -3.093170    2.141721   -0.248589
     23          6           0       -2.288708    1.408386    0.628685
     24          6           0       -2.368232    0.017229    0.588078
     25          6           0       -3.213350   -0.662343   -0.287848
     26          6           0       -4.008739    0.091310   -1.156129
     27          1           0       -4.572891    2.066357   -1.817367
     28          1           0       -3.046629    3.226915   -0.233365
     29          1           0       -1.615361    1.888232    1.328520
     30          1           0       -3.237831   -1.745280   -0.279722
     31          1           0       -4.674393   -0.418449   -1.846851
     32          7           0       -1.521387   -0.769873    1.512048
     33          8           0       -1.609948   -1.994504    1.456599
     34          8           0       -0.785104   -0.147271    2.274209
 ---------------------------------------------------------------------

 SCF Done:  E(RHF) =  -669.536234754     A.U. after   15 cycles
 E2 =    -0.2092467926D+01 EUMP2 =    -0.67162870268023D+03

 The electronic state is 1-A.
 Alpha  occ. eigenvalues --  -20.60933 -20.60921 -15.85949 -11.31270 -11.27838
 Alpha  occ. eigenvalues --  -11.27829 -11.27568 -11.26838 -11.26825 -11.21169
 Alpha  occ. eigenvalues --  -11.20902 -11.20844 -11.20762 -11.20660 -11.20632
 Alpha  occ. eigenvalues --   -1.59991  -1.39544  -1.19438  -1.08843  -1.07883
 Alpha  occ. eigenvalues --   -1.04832  -1.03024  -0.95687  -0.95498  -0.86520
 Alpha  occ. eigenvalues --   -0.86232  -0.82521  -0.79073  -0.77677  -0.77577
 Alpha  occ. eigenvalues --   -0.72174  -0.71331  -0.70547  -0.65093  -0.64836
 Alpha  occ. eigenvalues --   -0.64509  -0.62182  -0.60424  -0.58849  -0.57084
 Alpha  occ. eigenvalues --   -0.55338  -0.54815  -0.53162  -0.52926  -0.52198
 Alpha  occ. eigenvalues --   -0.51917  -0.49449  -0.48941  -0.48937  -0.47387
 Alpha  occ. eigenvalues --   -0.46099  -0.45238  -0.45167  -0.44887  -0.43267
 Alpha  occ. eigenvalues --   -0.37404  -0.36425
 Alpha virt. eigenvalues --    0.04918   0.11202   0.16407   0.21299   0.23294
 Alpha virt. eigenvalues --    0.24550   0.27118   0.27177   0.27854   0.28280
 Alpha virt. eigenvalues --    0.28500   0.30794   0.31492   0.31906   0.32385

 Mulliken charges:
               1
     1  C   -0.296775
     2  C   -0.305258
     3  C   -0.480623
     4  H    0.144968
     5  H    0.146342
     6  H    0.165665
     7  H    0.153760
     8  H    0.152387
     9  H    0.150197
    10  H    0.163228
    11  C   -0.299985
    12  C   -0.298904
    13  C   -0.475572
    14  H    0.157432
    15  H    0.149850
    16  H    0.149239
    17  H    0.149904
    18  H    0.155328
    19  H    0.156682
    20  H    0.157895
    21  C   -0.170537
    22  C   -0.218726
    23  C   -0.171707
    24  C    0.159318
    25  C   -0.169253
    26  C   -0.218648
    27  H    0.225997
    28  H    0.223697
    29  H    0.275489
    30  H    0.275807
    31  H    0.223949
    32  N    0.487984
    33  O   -0.458603
    34  O   -0.460529
 Sum of Mulliken charges =  -0.00000

 Dipole moment (field-independent basis, Debye):
    X=             -3.1121    Y=              2.7097    Z=             -3.1136  Tot=              5.1694
 Quadrupole moment (field-independent basis, Debye-Ang):
   XX=            -81.0491   YY=            -90.7611   ZZ=            -99.1068
   XY=             -5.7185   XZ=              6.4515   YZ=              3.4552

 Normal termination of Gaussian 16 at Wed May  5 23:30:00 2021.
