 Gaussian 16, Revision A.03,
 Gaussian 16:  EM64L-G16RevA.03 25-Dec-2016

 -------------
 #p 6-31g* mp2
 -------------

 ------------------------------------------------------
 Input file generated by CHIRIPA (05-May-2021 14:51:10)
 ------------------------------------------------------
 Symbolic Z-matrix:
 Charge =  0 Multiplicity = 1

                         Standard orientation:
 ---------------------------------------------------------------------
 Center     Atomic      Atomic             Coordinates (Angstroms)
 Number     Number       Type             X           Y           Z
 ---------------------------------------------------------------------
      1          6           0        4.094642   -0.628484    0.154960
      2          6           0        4.977841    0.477589   -0.423440
      3          6           0        6.467237    0.233548   -0.178616
      4          1           0        4.281504   -0.711350    1.234386
      5          1           0        4.387091   -1.590750   -0.287662
      6          1           0        4.682891    1.437678    0.019109
      7          1           0        4.788715    0.557960   -1.501581
      8          1           0        6.783102   -0.710148   -0.634980
      9          1           0        6.676676    0.174567    0.894350
     10          1           0        7.080211    1.036229   -0.600309
     11          6           0        2.603035   -0.398709   -0.081765
     12          6           0        1.719836   -1.504782    0.496635
     13          6           0        0.230440   -1.260741    0.251811
     14          1           0        2.310586    0.563557    0.360857
     15          1           0        2.416173   -0.315843   -1.161191
     16          1           0        1.908962   -1.585154    1.574776
     17          1           0        2.014786   -2.464871    0.054086
     18          1           0        0.021001   -1.201760   -0.821155
     19          1           0       -0.085425   -0.317045    0.708175
     20          1           0       -0.382535   -2.063422    0.673505
     21          6           0       -3.992220    0.124715   -0.171737
     22          6           0       -3.828503   -1.388377   -0.024307
     23          6           0       -5.124244   -2.152610   -0.297799
     24          1           0       -4.775958    0.471037    0.515839
     25          1           0       -4.345112    0.351083   -1.187423
     26          1           0       -3.474702   -1.611722    0.990364
     27          1           0       -3.044930   -1.731110   -0.712176
     28          1           0       -5.478164   -1.959053   -1.315579
     29          1           0       -5.910376   -1.838987    0.396635
     30          1           0       -4.984518   -3.232433   -0.186806
     31          6           0       -2.705457    0.902479    0.098541
     32          6           0       -2.869174    2.415570   -0.048889
     33          6           0       -1.573433    3.179803    0.224603
     34          1           0       -2.352565    0.676110    1.114228
     35          1           0       -1.921719    0.556156   -0.589035
     36          1           0       -3.652747    2.758303    0.638980
     37          1           0       -3.222975    2.638916   -1.063560
     38          1           0       -0.787301    2.866180   -0.469830
     39          1           0       -1.219514    2.986246    1.242384
     40          1           0       -1.713159    4.259627    0.113612
 ---------------------------------------------------------------------

 SCF Done:  E(RHF) =  -470.731738289     A.U. after   11 cycles
 E2 =    -0.1584050217D+01 EUMP2 =    -0.47231578850604D+03

 The electronic state is 1-A.
 Alpha  occ. eigenvalues --  -11.21581 -11.21541 -11.21519 -11.21518 -11.21374
 Alpha  occ. eigenvalues --  -11.21315 -11.21309 -11.21206 -11.21069 -11.21056
 Alpha  occ. eigenvalues --  -11.21022 -11.20914  -1.08414  -1.08342  -1.03492
 Alpha  occ. eigenvalues --   -1.03471  -0.95998  -0.95873  -0.87018  -0.86902
 Alpha  occ. eigenvalues --   -0.79650  -0.79522  -0.78319  -0.78002  -0.65046
 Alpha  occ. eigenvalues --   -0.64977  -0.60895  -0.60873  -0.59407  -0.59206
 Alpha  occ. eigenvalues --   -0.57717  -0.57403  -0.55269  -0.55186  -0.52768
 Alpha  occ. eigenvalues --   -0.52604  -0.52524  -0.52133  -0.49911  -0.49862
 Alpha  occ. eigenvalues --   -0.48113  -0.47693  -0.46633  -0.46570  -0.45986
 Alpha  occ. eigenvalues --   -0.45746  -0.45523  -0.45217  -0.43755  -0.43669
 Alpha virt. eigenvalues --    0.21840   0.23022   0.23740   0.24486   0.25664
 Alpha virt. eigenvalues --    0.26180   0.26889   0.27485   0.28134   0.29888
 Alpha virt. eigenvalues --    0.30360   0.31218   0.31338   0.31826   0.32353

 Mulliken charges:
               1
     1  C   -0.298094
     2  C   -0.299632
     3  C   -0.475677
     4  H    0.149592
     5  H    0.149442
     6  H    0.152037
     7  H    0.151749
     8  H    0.155114
     9  H    0.155158
    10  H    0.160188
    11  C   -0.298472
    12  C   -0.300851
    13  C   -0.478325
    14  H    0.149806
    15  H    0.148864
    16  H    0.151304
    17  H    0.151055
    18  H    0.152457
    19  H    0.162256
    20  H    0.161293
    21  C   -0.297984
    22  C   -0.301123
    23  C   -0.475691
    24  H    0.148842
    25  H    0.148767
    26  H    0.151843
    27  H    0.154628
    28  H    0.154888
    29  H    0.154926
    30  H    0.159880
    31  C   -0.302631
    32  C   -0.298857
    33  C   -0.476824
    34  H    0.149292
    35  H    0.157688
    36  H    0.151297
    37  H    0.151448
    38  H    0.155701
    39  H    0.154144
    40  H    0.160504
 Sum of Mulliken charges =  -0.00000

 Dipole moment (field-independent basis, Debye):
    X=             -0.0080    Y=              0.0025    Z=             -0.0006  Tot=              0.0084
 Quadrupole moment (field-independent basis, Debye-Ang):
   XX=            -87.0052   YY=            -85.1468   ZZ=            -83.0390
   XY=             -0.5340   XZ=             -0.5361   YZ=              0.4023

 Normal termination of Gaussian 16 at Wed May  5 21:23:32 2021.
