 Gaussian 16, Revision A.03,
 Gaussian 16:  EM64L-G16RevA.03 25-Dec-2016

 -------------
 #p 6-31g* mp2
 -------------

 ------------------------------------------------------
 Input file generated by CHIRIPA (05-May-2021 14:51:14)
 ------------------------------------------------------
 Symbolic Z-matrix:
 Charge =  0 Multiplicity = 1

                         Standard orientation:
 ---------------------------------------------------------------------
 Center     Atomic      Atomic             Coordinates (Angstroms)
 Number     Number       Type             X           Y           Z
 ---------------------------------------------------------------------
      1          6           0        2.338996   -1.536881    0.308855
      2          6           0        0.876431   -1.755764   -0.079705
      3          6           0        0.279283   -3.014274    0.550663
      4          1           0        2.927191   -2.414323    0.007084
      5          1           0        2.414535   -1.471223    1.403103
      6          1           0        0.803486   -1.819606   -1.172965
      7          1           0        0.291682   -0.877617    0.222855
      8          1           0        0.322774   -2.955784    1.643041
      9          1           0        0.837485   -3.903126    0.239290
     10          1           0       -0.766832   -3.151420    0.259641
     11          6           0        2.949994   -0.282671   -0.313533
     12          6           0        4.412559   -0.063787    0.075027
     13          6           0        5.009706    1.194723   -0.555341
     14          1           0        2.874454   -0.348328   -1.407781
     15          1           0        2.361798    0.594772   -0.011762
     16          1           0        4.997307   -0.941934   -0.227533
     17          1           0        4.485504    0.000055    1.168288
     18          1           0        4.451504    2.083575   -0.243968
     19          1           0        4.966216    1.136233   -1.647719
     20          1           0        6.055822    1.331869   -0.264319
     21          6           0       -2.259512    1.398650    0.445308
     22          6           0       -1.059272    2.035953   -0.255587
     23          6           0       -0.299201    3.011567    0.643449
     24          1           0       -2.939790    2.190843    0.786771
     25          1           0       -1.913011    0.874243    1.346600
     26          1           0       -1.407755    2.557837   -1.156039
     27          1           0       -0.381867    1.242142   -0.595590
     28          1           0        0.076060    2.500494    1.535965
     29          1           0       -0.955656    3.823665    0.972332
     30          1           0        0.554799    3.455525    0.122447
     31          6           0       -3.029477    0.420901   -0.440630
     32          6           0       -4.229718   -0.216402    0.260264
     33          6           0       -4.989788   -1.192016   -0.638770
     34          1           0       -3.375979    0.945309   -1.341923
     35          1           0       -2.349199   -0.371292   -0.782093
     36          1           0       -4.907123    0.577409    0.600268
     37          1           0       -3.881235   -0.738286    1.160717
     38          1           0       -4.333333   -2.004114   -0.967654
     39          1           0       -5.365050   -0.680944   -1.531287
     40          1           0       -5.843789   -1.635975   -0.117769
 ---------------------------------------------------------------------

 SCF Done:  E(RHF) =  -470.733117207     A.U. after   11 cycles
 E2 =    -0.1584157378D+01 EUMP2 =    -0.47231727458499D+03

 The electronic state is 1-A.
 Alpha  occ. eigenvalues --  -11.21669 -11.21626 -11.21595 -11.21562 -11.21453
 Alpha  occ. eigenvalues --  -11.21403 -11.21389 -11.21340 -11.21156 -11.21109
 Alpha  occ. eigenvalues --  -11.21083 -11.21072  -1.08505  -1.08411  -1.03588
 Alpha  occ. eigenvalues --   -1.03530  -0.96036  -0.95981  -0.87054  -0.86996
 Alpha  occ. eigenvalues --   -0.79684  -0.79572  -0.78382  -0.78159  -0.65330
 Alpha  occ. eigenvalues --   -0.64887  -0.61063  -0.60853  -0.59398  -0.59353
 Alpha  occ. eigenvalues --   -0.57674  -0.57565  -0.55376  -0.55213  -0.52731
 Alpha  occ. eigenvalues --   -0.52678  -0.52467  -0.52400  -0.50031  -0.49883
 Alpha  occ. eigenvalues --   -0.48068  -0.47859  -0.46827  -0.46571  -0.46096
 Alpha  occ. eigenvalues --   -0.45781  -0.45738  -0.45258  -0.43833  -0.43784
 Alpha virt. eigenvalues --    0.19793   0.22039   0.23724   0.24683   0.25926
 Alpha virt. eigenvalues --    0.26684   0.26931   0.27384   0.27938   0.29726
 Alpha virt. eigenvalues --    0.30711   0.31395   0.31711   0.31825   0.32610

 Mulliken charges:
               1
     1  C   -0.298027
     2  C   -0.307661
     3  C   -0.475940
     4  H    0.149974
     5  H    0.149337
     6  H    0.151898
     7  H    0.160100
     8  H    0.155254
     9  H    0.155795
    10  H    0.159991
    11  C   -0.302396
    12  C   -0.299554
    13  C   -0.475807
    14  H    0.149515
    15  H    0.153812
    16  H    0.152065
    17  H    0.152006
    18  H    0.155423
    19  H    0.155195
    20  H    0.160358
    21  C   -0.298606
    22  C   -0.307488
    23  C   -0.475900
    24  H    0.149923
    25  H    0.148956
    26  H    0.152345
    27  H    0.159218
    28  H    0.154096
    29  H    0.155564
    30  H    0.160313
    31  C   -0.301235
    32  C   -0.299653
    33  C   -0.475619
    34  H    0.149576
    35  H    0.152872
    36  H    0.151891
    37  H    0.152042
    38  H    0.154814
    39  H    0.155236
    40  H    0.160318
 Sum of Mulliken charges =  -0.00000

 Dipole moment (field-independent basis, Debye):
    X=              0.0196    Y=             -0.0069    Z=             -0.0114  Tot=              0.0237
 Quadrupole moment (field-independent basis, Debye-Ang):
   XX=            -85.0768   YY=            -85.2253   ZZ=            -84.4485
   XY=             -1.6237   XZ=             -0.1607   YZ=              0.1300

 Normal termination of Gaussian 16 at Thu May  6 04:00:25 2021.
