 Gaussian 16, Revision A.03,
 Gaussian 16:  EM64L-G16RevA.03 25-Dec-2016

 -------------
 #p 6-31g* mp2
 -------------

 ------------------------------------------------------
 Input file generated by CHIRIPA (05-May-2021 14:57:26)
 ------------------------------------------------------
 Symbolic Z-matrix:
 Charge =  0 Multiplicity = 1

                         Standard orientation:
 ---------------------------------------------------------------------
 Center     Atomic      Atomic             Coordinates (Angstroms)
 Number     Number       Type             X           Y           Z
 ---------------------------------------------------------------------
      1          6           0       -3.334675   -2.204017    0.570437
      2          6           0       -4.252254   -1.159463    0.723656
      3          6           0       -3.896914    0.151833    0.393830
      4          6           0       -2.609774    0.383726   -0.088648
      5          6           0       -1.673164   -0.635701   -0.252421
      6          6           0       -2.050323   -1.939269    0.083746
      7          1           0       -3.619187   -3.219662    0.829117
      8          1           0       -5.250393   -1.362121    1.101403
      9          1           0       -4.587505    0.979277    0.502637
     10          1           0       -0.685487   -0.402610   -0.631341
     11          1           0       -1.335647   -2.748515   -0.036274
     12          7           0       -2.222042    1.767845   -0.441176
     13          8           0       -1.081892    1.945911   -0.864245
     14          8           0       -3.065630    2.648445   -0.287744
     15          6           0        3.004041    0.673619    2.390456
     16          6           0        3.172004    1.547679    1.311415
     17          6           0        2.991527    1.099159   -0.000379
     18          6           0        2.641738   -0.235772   -0.197600
     19          6           0        2.467143   -1.130962    0.856650
     20          6           0        2.652766   -0.660560    2.160035
     21          1           0        3.146239    1.030540    3.406224
     22          1           0        3.444791    2.584343    1.487370
     23          1           0        3.115163    1.754349   -0.854111
     24          1           0        2.195025   -2.158847    0.649718
     25          1           0        2.521652   -1.341617    2.996105
     26          7           0        2.447951   -0.722184   -1.581887
     27          8           0        2.139948   -1.902913   -1.729020
     28          8           0        2.607735    0.086508   -2.493548
 ---------------------------------------------------------------------

 SCF Done:  E(RHF) =  -868.338445561     A.U. after   16 cycles
 E2 =    -0.2600466356D+01 EUMP2 =    -0.87093891191706D+03

 The electronic state is 1-A.
 Alpha  occ. eigenvalues --  -20.60981 -20.60898 -20.60649 -20.60635 -15.85978
 Alpha  occ. eigenvalues --  -15.85693 -11.31220 -11.31002 -11.27876 -11.27677
 Alpha  occ. eigenvalues --  -11.27593 -11.27535 -11.27482 -11.27319 -11.26814
 Alpha  occ. eigenvalues --  -11.26666 -11.26605 -11.26527  -1.60021  -1.59719
 Alpha  occ. eigenvalues --   -1.39573  -1.39273  -1.19380  -1.19175  -1.08802
 Alpha  occ. eigenvalues --   -1.08586  -1.04753  -1.04562  -0.95653  -0.95428
 Alpha  occ. eigenvalues --   -0.86164  -0.85970  -0.82481  -0.82253  -0.77554
 Alpha  occ. eigenvalues --   -0.77304  -0.72191  -0.71925  -0.71371  -0.71038
 Alpha  occ. eigenvalues --   -0.70484  -0.70278  -0.65030  -0.64827  -0.64755
 Alpha  occ. eigenvalues --   -0.64563  -0.62111  -0.61900  -0.55262  -0.55089
 Alpha  occ. eigenvalues --   -0.53116  -0.52897  -0.52844  -0.52629  -0.48974
 Alpha  occ. eigenvalues --   -0.48926  -0.48673  -0.48671  -0.44989  -0.44689
 Alpha  occ. eigenvalues --   -0.37356  -0.37169  -0.36375  -0.36109
 Alpha virt. eigenvalues --    0.04938   0.05235   0.11255   0.11504   0.16477
 Alpha virt. eigenvalues --    0.16721   0.21020   0.21749   0.26385   0.27518
 Alpha virt. eigenvalues --    0.28178   0.28532   0.30632   0.31465   0.32125

 Mulliken charges:
               1
     1  C   -0.171099
     2  C   -0.219098
     3  C   -0.171170
     4  C    0.157304
     5  C   -0.168499
     6  C   -0.221517
     7  H    0.224840
     8  H    0.222339
     9  H    0.274557
    10  H    0.276649
    11  H    0.227639
    12  N    0.487814
    13  O   -0.460442
    14  O   -0.461989
    15  C   -0.170010
    16  C   -0.216782
    17  C   -0.161515
    18  C    0.152898
    19  C   -0.177171
    20  C   -0.217438
    21  H    0.226296
    22  H    0.226906
    23  H    0.281197
    24  H    0.269009
    25  H    0.221608
    26  N    0.488101
    27  O   -0.469806
    28  O   -0.450619
 Sum of Mulliken charges =  -0.00000

 Dipole moment (field-independent basis, Debye):
    X=             -0.5044    Y=             -2.8981    Z=              6.0631  Tot=              6.7391
 Quadrupole moment (field-independent basis, Debye-Ang):
   XX=            -90.3889   YY=           -105.4121   ZZ=           -107.1741
   XY=             17.0899   XZ=              7.9033   YZ=             -1.9375

 Normal termination of Gaussian 16 at Thu May  6 16:27:50 2021.
