 Gaussian 16, Revision A.03,
 Gaussian 16:  EM64L-G16RevA.03 25-Dec-2016

 -------------
 #p 6-31g* mp2
 -------------

 ------------------------------------------------------
 Input file generated by CHIRIPA (05-May-2021 14:51:13)
 ------------------------------------------------------
 Symbolic Z-matrix:
 Charge =  0 Multiplicity = 1

                         Standard orientation:
 ---------------------------------------------------------------------
 Center     Atomic      Atomic             Coordinates (Angstroms)
 Number     Number       Type             X           Y           Z
 ---------------------------------------------------------------------
      1          6           0       -3.430130    0.479448   -0.290042
      2          6           0       -3.457214   -1.049045   -0.321025
      3          6           0       -4.829155   -1.608445   -0.698708
      4          1           0       -4.183512    0.838778    0.424270
      5          1           0       -3.725407    0.864517   -1.275906
      6          1           0       -3.160636   -1.431131    0.664200
      7          1           0       -2.703547   -1.404783   -1.035204
      8          1           0       -5.129420   -1.255335   -1.690552
      9          1           0       -5.589106   -1.281832    0.018508
     10          1           0       -4.825931   -2.702790   -0.714808
     11          6           0       -2.065350    1.053675    0.085946
     12          6           0       -2.038265    2.582168    0.116929
     13          6           0       -0.666325    3.141568    0.494612
     14          1           0       -1.770073    0.668606    1.071810
     15          1           0       -1.311967    0.694345   -0.628366
     16          1           0       -2.791932    2.937907    0.831108
     17          1           0       -2.334843    2.964254   -0.868296
     18          1           0        0.093627    2.814955   -0.222604
     19          1           0       -0.366059    2.788458    1.486456
     20          1           0       -0.669548    4.235913    0.510712
     21          6           0        3.341370   -0.315727    0.268733
     22          6           0        4.330835   -0.163924   -0.887076
     23          6           0        5.512965    0.740901   -0.538288
     24          1           0        2.971727    0.677165    0.559382
     25          1           0        3.869085   -0.721081    1.143147
     26          1           0        3.801113    0.239725   -1.759475
     27          1           0        4.698020   -1.157309   -1.175134
     28          1           0        6.066734    0.338956    0.316337
     29          1           0        5.164731    1.743929   -0.271324
     30          1           0        6.207772    0.835484   -1.378620
     31          6           0        2.154110   -1.217396   -0.064637
     32          6           0        1.164643   -1.369199    1.091173
     33          6           0       -0.017486   -2.274025    0.742384
     34          1           0        1.626394   -0.812043   -0.939050
     35          1           0        2.523752   -2.210287   -0.355286
     36          1           0        0.797459   -0.375813    1.379231
     37          1           0        1.694367   -1.772848    1.963570
     38          1           0        0.330748   -3.277051    0.475419
     39          1           0       -0.571255   -1.872080   -0.112240
     40          1           0       -0.712293   -2.368608    1.582716
 ---------------------------------------------------------------------

 SCF Done:  E(RHF) =  -470.732045237     A.U. after   11 cycles
 E2 =    -0.1584844335D+01 EUMP2 =    -0.47231688957210D+03

 The electronic state is 1-A.
 Alpha  occ. eigenvalues --  -11.21662 -11.21571 -11.21558 -11.21477 -11.21448
 Alpha  occ. eigenvalues --  -11.21381 -11.21353 -11.21294 -11.21159 -11.21047
 Alpha  occ. eigenvalues --  -11.21043 -11.20873  -1.08492  -1.08350  -1.03566
 Alpha  occ. eigenvalues --   -1.03451  -0.96020  -0.95904  -0.87053  -0.86911
 Alpha  occ. eigenvalues --   -0.79735  -0.79436  -0.78306  -0.78172  -0.65121
 Alpha  occ. eigenvalues --   -0.64989  -0.60980  -0.60851  -0.59409  -0.59270
 Alpha  occ. eigenvalues --   -0.57633  -0.57514  -0.55305  -0.55219  -0.52749
 Alpha  occ. eigenvalues --   -0.52605  -0.52436  -0.52311  -0.49972  -0.49889
 Alpha  occ. eigenvalues --   -0.47985  -0.47870  -0.46649  -0.46573  -0.45944
 Alpha  occ. eigenvalues --   -0.45830  -0.45536  -0.45360  -0.43816  -0.43694
 Alpha virt. eigenvalues --    0.20391   0.22904   0.23769   0.24040   0.24659
 Alpha virt. eigenvalues --    0.26133   0.26890   0.27990   0.28971   0.29571
 Alpha virt. eigenvalues --    0.30368   0.31279   0.31514   0.31991   0.32196

 Mulliken charges:
               1
     1  C   -0.298196
     2  C   -0.302570
     3  C   -0.475349
     4  H    0.149577
     5  H    0.149210
     6  H    0.155888
     7  H    0.152838
     8  H    0.154742
     9  H    0.154827
    10  H    0.160547
    11  C   -0.301872
    12  C   -0.299670
    13  C   -0.476718
    14  H    0.153195
    15  H    0.149934
    16  H    0.152296
    17  H    0.152093
    18  H    0.154782
    19  H    0.155465
    20  H    0.160895
    21  C   -0.298859
    22  C   -0.299497
    23  C   -0.475713
    24  H    0.150497
    25  H    0.149458
    26  H    0.151426
    27  H    0.151825
    28  H    0.155151
    29  H    0.155344
    30  H    0.160064
    31  C   -0.298464
    32  C   -0.302588
    33  C   -0.479336
    34  H    0.148457
    35  H    0.149449
    36  H    0.155034
    37  H    0.150877
    38  H    0.153295
    39  H    0.163340
    40  H    0.158326
 Sum of Mulliken charges =  -0.00000

 Dipole moment (field-independent basis, Debye):
    X=             -0.0571    Y=              0.0203    Z=              0.0051  Tot=              0.0608
 Quadrupole moment (field-independent basis, Debye-Ang):
   XX=            -86.2159   YY=            -84.8767   ZZ=            -83.7971
   XY=             -1.4631   XZ=             -0.4674   YZ=             -0.4475

 Normal termination of Gaussian 16 at Wed May  5 19:59:34 2021.
