 Gaussian 16, Revision A.03,
 Gaussian 16:  EM64L-G16RevA.03 25-Dec-2016

 -------------
 #p 6-31g* mp2
 -------------

 ------------------------------------------------------
 Input file generated by CHIRIPA (05-May-2021 14:57:26)
 ------------------------------------------------------
 Symbolic Z-matrix:
 Charge =  0 Multiplicity = 1

                         Standard orientation:
 ---------------------------------------------------------------------
 Center     Atomic      Atomic             Coordinates (Angstroms)
 Number     Number       Type             X           Y           Z
 ---------------------------------------------------------------------
      1          6           0       -2.419233    2.616250    0.428258
      2          6           0       -1.573335    1.535625    0.698864
      3          6           0       -1.980558    0.227775    0.419141
      4          6           0       -3.245923    0.036071   -0.133481
      5          6           0       -4.111537    1.092029   -0.414470
      6          6           0       -3.683406    2.391400   -0.126567
      7          1           0       -2.094772    3.628926    0.648731
      8          1           0       -0.591022    1.707258    1.129733
      9          1           0       -1.345832   -0.627070    0.618595
     10          1           0       -5.085065    0.889439   -0.844143
     11          1           0       -4.342452    3.228713   -0.337776
     12          7           0       -3.688099   -1.344003   -0.433941
     13          8           0       -4.807691   -1.486300   -0.920666
     14          8           0       -2.906711   -2.257275   -0.177028
     15          6           0        4.683558    1.408777   -1.050802
     16          6           0        3.973663    1.773373    0.097955
     17          6           0        3.133830    0.854986    0.734973
     18          6           0        3.027016   -0.425196    0.193666
     19          6           0        3.721234   -0.818549   -0.949410
     20          6           0        4.555303    0.116259   -1.569902
     21          1           0        5.333722    2.128581   -1.539233
     22          1           0        4.071327    2.776459    0.503326
     23          1           0        2.572722    1.110688    1.625588
     24          1           0        3.603440   -1.825868   -1.330005
     25          1           0        5.105409   -0.169675   -2.461907
     26          7           0        2.140974   -1.406144    0.859301
     27          8           0        2.064124   -2.527744    0.362568
     28          8           0        1.540120   -1.034835    1.865155
 ---------------------------------------------------------------------

 SCF Done:  E(RHF) =  -868.338249096     A.U. after   15 cycles
 E2 =    -0.2599798107D+01 EUMP2 =    -0.87093804720338D+03

 The electronic state is 1-A.
 Alpha  occ. eigenvalues --  -20.61456 -20.61374 -20.60111 -20.60067 -15.86439
 Alpha  occ. eigenvalues --  -15.85145 -11.31766 -11.30574 -11.28387 -11.28260
 Alpha  occ. eigenvalues --  -11.28023 -11.27353 -11.27269 -11.27230 -11.27038
 Alpha  occ. eigenvalues --  -11.27021 -11.26279 -11.26197  -1.60474  -1.59172
 Alpha  occ. eigenvalues --   -1.40030  -1.38718  -1.19923  -1.18783  -1.09320
 Alpha  occ. eigenvalues --   -1.08189  -1.05319  -1.04183  -0.96162  -0.94995
 Alpha  occ. eigenvalues --   -0.86718  -0.85594  -0.82995  -0.81812  -0.78061
 Alpha  occ. eigenvalues --   -0.76827  -0.72639  -0.71804  -0.71357  -0.71022
 Alpha  occ. eigenvalues --   -0.70501  -0.69902  -0.65573  -0.65316  -0.64435
 Alpha  occ. eigenvalues --   -0.64205  -0.62671  -0.61499  -0.55802  -0.54747
 Alpha  occ. eigenvalues --   -0.53647  -0.53409  -0.52539  -0.52273  -0.49421
 Alpha  occ. eigenvalues --   -0.49383  -0.48143  -0.48101  -0.45429  -0.44108
 Alpha  occ. eigenvalues --   -0.37887  -0.36921  -0.36818  -0.35795
 Alpha virt. eigenvalues --    0.04427   0.05687   0.10681   0.11846   0.15946
 Alpha virt. eigenvalues --    0.17137   0.20375   0.21949   0.25646   0.27206
 Alpha virt. eigenvalues --    0.28586   0.28816   0.30418   0.31127   0.32635

 Mulliken charges:
               1
     1  C   -0.171432
     2  C   -0.220297
     3  C   -0.175660
     4  C    0.157859
     5  C   -0.171308
     6  C   -0.219352
     7  H    0.220879
     8  H    0.220851
     9  H    0.290886
    10  H    0.273909
    11  H    0.220508
    12  N    0.487114
    13  O   -0.464485
    14  O   -0.453830
    15  C   -0.170317
    16  C   -0.217984
    17  C   -0.175406
    18  C    0.159024
    19  C   -0.169674
    20  C   -0.217908
    21  H    0.227417
    22  H    0.223110
    23  H    0.271067
    24  H    0.279185
    25  H    0.226340
    26  N    0.486818
    27  O   -0.449004
    28  O   -0.468309
 Sum of Mulliken charges =  -0.00000

 Dipole moment (field-independent basis, Debye):
    X=              5.0324    Y=              8.0068    Z=             -1.3848  Tot=              9.5578
 Quadrupole moment (field-independent basis, Debye-Ang):
   XX=            -92.6761   YY=           -105.2845   ZZ=           -104.2763
   XY=             -9.1214   XZ=            -10.1552   YZ=              3.0262

 Normal termination of Gaussian 16 at Fri May  7 01:59:54 2021.
