 Gaussian 16, Revision A.03,
 Gaussian 16:  EM64L-G16RevA.03 25-Dec-2016

 -------------
 #p 6-31g* mp2
 -------------

 ------------------------------------------------------
 Input file generated by CHIRIPA (05-May-2021 14:57:23)
 ------------------------------------------------------
 Symbolic Z-matrix:
 Charge =  0 Multiplicity = 1

                         Standard orientation:
 ---------------------------------------------------------------------
 Center     Atomic      Atomic             Coordinates (Angstroms)
 Number     Number       Type             X           Y           Z
 ---------------------------------------------------------------------
      1          6           0        3.586989   -2.364158    0.070909
      2          6           0        4.701457   -1.600862    0.434035
      3          6           0        4.641798   -0.204197    0.416276
      4          6           0        3.446353    0.398939    0.028425
      5          6           0        2.318913   -0.334038   -0.338882
      6          6           0        2.401364   -1.729429   -0.313713
      7          1           0        3.642186   -3.448626    0.087583
      8          1           0        5.623540   -2.091095    0.733167
      9          1           0        5.489522    0.410999    0.692530
     10          1           0        1.413553    0.183167   -0.632548
     11          1           0        1.534275   -2.319670   -0.596232
     12          7           0        3.371130    1.876851    0.005702
     13          8           0        2.306276    2.384139   -0.339815
     14          8           0        4.378449    2.499967    0.333838
     15          6           0       -4.649681    2.055986    0.207723
     16          6           0       -3.413944    1.993591   -0.444644
     17          6           0       -2.745095    0.773777   -0.583369
     18          6           0       -3.343616   -0.369146   -0.055362
     19          6           0       -4.573692   -0.339381    0.599861
     20          6           0       -5.224597    0.891354    0.726977
     21          1           0       -5.162290    3.007809    0.310979
     22          1           0       -2.965078    2.896447   -0.848889
     23          1           0       -1.787441    0.696882   -1.083772
     24          1           0       -4.996081   -1.256379    0.992444
     25          1           0       -6.184184    0.936815    1.234099
     26          7           0       -2.645034   -1.666289   -0.196080
     27          8           0       -3.193489   -2.658866    0.277866
     28          8           0       -1.562257   -1.665852   -0.777656
 ---------------------------------------------------------------------

 SCF Done:  E(RHF) =  -868.341066347     A.U. after   16 cycles
 E2 =    -0.2598443580D+01 EUMP2 =    -0.87093950992706D+03

 The electronic state is 1-A.
 Alpha  occ. eigenvalues --  -20.61455 -20.61403 -20.60508 -20.60484 -15.86457
 Alpha  occ. eigenvalues --  -15.85538 -11.31456 -11.30618 -11.27980 -11.27969
 Alpha  occ. eigenvalues --  -11.27634 -11.27168 -11.27061 -11.26926 -11.26856
 Alpha  occ. eigenvalues --  -11.26773 -11.26157 -11.25864  -1.60484  -1.59574
 Alpha  occ. eigenvalues --   -1.40053  -1.39138  -1.19586  -1.18737  -1.09047
 Alpha  occ. eigenvalues --   -1.08185  -1.04928  -1.04064  -0.95946  -0.95077
 Alpha  occ. eigenvalues --   -0.86348  -0.85484  -0.82798  -0.81897  -0.77884
 Alpha  occ. eigenvalues --   -0.76981  -0.72701  -0.71780  -0.71768  -0.70887
 Alpha  occ. eigenvalues --   -0.70694  -0.69851  -0.65243  -0.64922  -0.64372
 Alpha  occ. eigenvalues --   -0.64023  -0.62284  -0.61393  -0.55444  -0.54591
 Alpha  occ. eigenvalues --   -0.53280  -0.53014  -0.52450  -0.52117  -0.49460
 Alpha  occ. eigenvalues --   -0.49398  -0.48538  -0.48487  -0.45534  -0.44606
 Alpha  occ. eigenvalues --   -0.37543  -0.36718  -0.36510  -0.35663
 Alpha virt. eigenvalues --    0.04605   0.05495   0.11135   0.11979   0.16176
 Alpha virt. eigenvalues --    0.17077   0.20482   0.22305   0.25355   0.27587
 Alpha virt. eigenvalues --    0.28646   0.29402   0.31038   0.31488   0.32018

 Mulliken charges:
               1
     1  C   -0.171807
     2  C   -0.218558
     3  C   -0.172888
     4  C    0.158466
     5  C   -0.173478
     6  C   -0.224638
     7  H    0.226087
     8  H    0.221045
     9  H    0.272646
    10  H    0.273388
    11  H    0.246848
    12  N    0.488557
    13  O   -0.466942
    14  O   -0.461502
    15  C   -0.169780
    16  C   -0.218283
    17  C   -0.170816
    18  C    0.157677
    19  C   -0.170629
    20  C   -0.218570
    21  H    0.227962
    22  H    0.230259
    23  H    0.275306
    24  H    0.275121
    25  H    0.224356
    26  N    0.491780
    27  O   -0.456945
    28  O   -0.474660
 Sum of Mulliken charges =  -0.00000

 Dipole moment (field-independent basis, Debye):
    X=             -2.5746    Y=             -0.6961    Z=              0.5781  Tot=              2.7290
 Quadrupole moment (field-independent basis, Debye-Ang):
   XX=            -79.6158   YY=           -111.9877   ZZ=           -104.7343
   XY=            -31.1156   XZ=             -1.8659   YZ=             -1.7498

 Normal termination of Gaussian 16 at Fri May  7 09:26:36 2021.
