 Gaussian 16, Revision A.03,
 Gaussian 16:  EM64L-G16RevA.03 25-Dec-2016

 -------------
 #p 6-31g* mp2
 -------------

 ------------------------------------------------------
 Input file generated by CHIRIPA (05-May-2021 14:53:14)
 ------------------------------------------------------
 Symbolic Z-matrix:
 Charge =  0 Multiplicity = 1

                         Standard orientation:
 ---------------------------------------------------------------------
 Center     Atomic      Atomic             Coordinates (Angstroms)
 Number     Number       Type             X           Y           Z
 ---------------------------------------------------------------------
      1          6           0       -3.809767   -0.637844   -0.087306
      2          6           0       -3.331538   -1.740936    0.857401
      3          6           0       -1.877963   -2.144087    0.607635
      4          1           0       -3.695344   -0.978016   -1.125639
      5          1           0       -3.159770    0.240667    0.027224
      6          1           0       -3.983087   -2.616613    0.742122
      7          1           0       -3.447291   -1.398172    1.893610
      8          1           0       -1.211605   -1.285911    0.742185
      9          1           0       -1.750445   -2.511276   -0.415846
     10          1           0       -1.556798   -2.933869    1.293898
     11          6           0       -5.261013   -0.223989    0.150050
     12          6           0       -5.739242    0.879102   -0.794657
     13          6           0       -7.192817    1.282253   -0.544892
     14          1           0       -5.911009   -1.102501    0.035519
     15          1           0       -5.375435    0.116182    1.188383
     16          1           0       -5.623488    0.536338   -1.830867
     17          1           0       -5.087693    1.754779   -0.679379
     18          1           0       -7.320335    1.649442    0.478589
     19          1           0       -7.859174    0.424078   -0.679441
     20          1           0       -7.513982    2.072035   -1.231155
     21          6           0        1.809579    2.075727    0.555018
     22          6           0        1.420630    0.755441    0.305848
     23          6           0        2.372624   -0.216455   -0.016135
     24          6           0        3.710880    0.168526   -0.080536
     25          6           0        4.129752    1.475747    0.162389
     26          6           0        3.160516    2.431039    0.482621
     27          1           0        1.063350    2.824270    0.804462
     28          1           0        0.372188    0.476635    0.361357
     29          1           0        2.099175   -1.245823   -0.213736
     30          1           0        5.182410    1.723487    0.099522
     31          1           0        3.465479    3.455631    0.675637
     32          7           0        4.727840   -0.851587   -0.420478
     33          8           0        5.900497   -0.486932   -0.470855
     34          8           0        4.333019   -1.996492   -0.630111
 ---------------------------------------------------------------------

 SCF Done:  E(RHF) =  -669.535486133     A.U. after   15 cycles
 E2 =    -0.2090893702D+01 EUMP2 =    -0.67162637983511D+03

 The electronic state is 1-A.
 Alpha  occ. eigenvalues --  -20.60718 -20.60713 -15.85772 -11.31134 -11.27711
 Alpha  occ. eigenvalues --  -11.27690 -11.27457 -11.26729 -11.26699 -11.22328
 Alpha  occ. eigenvalues --  -11.22124 -11.22112 -11.21987 -11.21948 -11.21503
 Alpha  occ. eigenvalues --   -1.59794  -1.39347  -1.19310  -1.09080  -1.08708
 Alpha  occ. eigenvalues --   -1.04713  -1.04176  -0.96638  -0.95541  -0.87657
 Alpha  occ. eigenvalues --   -0.86114  -0.82375  -0.80242  -0.78884  -0.77419
 Alpha  occ. eigenvalues --   -0.71990  -0.71117  -0.70421  -0.65722  -0.64963
 Alpha  occ. eigenvalues --   -0.64734  -0.62115  -0.61535  -0.59995  -0.58235
 Alpha  occ. eigenvalues --   -0.55952  -0.55217  -0.53311  -0.53129  -0.53041
 Alpha  occ. eigenvalues --   -0.52753  -0.50574  -0.48757  -0.48745  -0.48544
 Alpha  occ. eigenvalues --   -0.47268  -0.46426  -0.46343  -0.44753  -0.44421
 Alpha  occ. eigenvalues --   -0.37296  -0.36314
 Alpha virt. eigenvalues --    0.05114   0.11332   0.16592   0.19457   0.22479
 Alpha virt. eigenvalues --    0.23627   0.25122   0.26306   0.26991   0.28319
 Alpha virt. eigenvalues --    0.28841   0.29823   0.31181   0.31450   0.32060

 Mulliken charges:
               1
     1  C   -0.297675
     2  C   -0.300026
     3  C   -0.480877
     4  H    0.152048
     5  H    0.142211
     6  H    0.156398
     7  H    0.153182
     8  H    0.145461
     9  H    0.159308
    10  H    0.166789
    11  C   -0.298764
    12  C   -0.299785
    13  C   -0.476046
    14  H    0.152000
    15  H    0.150069
    16  H    0.153240
    17  H    0.150056
    18  H    0.155404
    19  H    0.156578
    20  H    0.161390
    21  C   -0.171750
    22  C   -0.224655
    23  C   -0.173192
    24  C    0.158537
    25  C   -0.171064
    26  C   -0.218545
    27  H    0.225643
    28  H    0.231751
    29  H    0.276634
    30  H    0.275439
    31  H    0.223142
    32  N    0.488123
    33  O   -0.460768
    34  O   -0.460257
 Sum of Mulliken charges =  -0.00000

 Dipole moment (field-independent basis, Debye):
    X=             -3.7848    Y=              3.5008    Z=              1.1920  Tot=              5.2916
 Quadrupole moment (field-independent basis, Debye-Ang):
   XX=           -119.2877   YY=            -90.8187   ZZ=            -95.3467
   XY=             16.5992   XZ=              5.3451   YZ=              0.6521

 Normal termination of Gaussian 16 at Thu May  6 08:58:56 2021.
