 Gaussian 16, Revision A.03,
 Gaussian 16:  EM64L-G16RevA.03 25-Dec-2016

 -------------
 #p 6-31g* mp2
 -------------

 ------------------------------------------------------
 Input file generated by CHIRIPA (05-May-2021 14:55:21)
 ------------------------------------------------------
 Symbolic Z-matrix:
 Charge =  0 Multiplicity = 1

                         Standard orientation:
 ---------------------------------------------------------------------
 Center     Atomic      Atomic             Coordinates (Angstroms)
 Number     Number       Type             X           Y           Z
 ---------------------------------------------------------------------
      1          6           0       -1.429700    0.885219    0.319261
      2          6           0       -1.648309   -0.461555    0.627370
      3          6           0       -2.916206   -1.029182    0.469934
      4          6           0       -3.947396   -0.217317    0.000027
      5          6           0       -3.761138    1.127686   -0.315511
      6          6           0       -2.484952    1.674151   -0.150368
      7          1           0       -0.441547    1.317946    0.444555
      8          1           0       -0.830653   -1.076638    0.992276
      9          1           0       -3.113283   -2.069004    0.700906
     10          1           0       -4.595888    1.715656   -0.677315
     11          1           0       -2.318094    2.720367   -0.390441
     12          7           0       -5.294049   -0.807036   -0.170723
     13          8           0       -6.185922   -0.070526   -0.586359
     14          8           0       -5.432184   -1.994601    0.114312
     15          6           0        4.118241    0.468679    0.211571
     16          6           0        3.961908    1.934858   -0.193229
     17          6           0        2.655946    2.550909    0.309501
     18          1           0        3.266475   -0.105483   -0.178017
     19          1           0        4.072825    0.391045    1.306699
     20          1           0        4.008992    2.009868   -1.287201
     21          1           0        4.814243    2.505562    0.197205
     22          1           0        2.604079    2.505434    1.402132
     23          1           0        1.794253    2.006924   -0.090708
     24          1           0        2.564752    3.599320    0.008870
     25          6           0        5.418914   -0.161162   -0.283685
     26          6           0        5.575246   -1.627341    0.121117
     27          6           0        6.881208   -2.243392   -0.381614
     28          1           0        5.464330   -0.083529   -1.378812
     29          1           0        6.270680    0.413000    0.105903
     30          1           0        4.722911   -2.198045   -0.269318
     31          1           0        5.528162   -1.702351    1.215087
     32          1           0        7.742902   -1.699407    0.018595
     33          1           0        6.933075   -2.197917   -1.474245
     34          1           0        6.972402   -3.291803   -0.080984
 ---------------------------------------------------------------------

 SCF Done:  E(RHF) =  -669.535644601     A.U. after   15 cycles
 E2 =    -0.2090727563D+01 EUMP2 =    -0.67162637216396D+03

 The electronic state is 1-A.
 Alpha  occ. eigenvalues --  -20.60722 -20.60717 -15.85776 -11.31131 -11.27701
 Alpha  occ. eigenvalues --  -11.27697 -11.27399 -11.26708 -11.26697 -11.22547
 Alpha  occ. eigenvalues --  -11.22331 -11.22256 -11.22192 -11.22045 -11.21545
 Alpha  occ. eigenvalues --   -1.59798  -1.39352  -1.19301  -1.09218  -1.08694
 Alpha  occ. eigenvalues --   -1.04705  -1.04333  -0.96806  -0.95532  -0.87827
 Alpha  occ. eigenvalues --   -0.86099  -0.82369  -0.80410  -0.79007  -0.77418
 Alpha  occ. eigenvalues --   -0.71994  -0.71122  -0.70419  -0.65843  -0.64951
 Alpha  occ. eigenvalues --   -0.64708  -0.62053  -0.61730  -0.60179  -0.58411
 Alpha  occ. eigenvalues --   -0.56166  -0.55181  -0.53485  -0.53199  -0.53033
 Alpha  occ. eigenvalues --   -0.52794  -0.50740  -0.48771  -0.48750  -0.48695
 Alpha  occ. eigenvalues --   -0.47426  -0.46557  -0.46451  -0.44760  -0.44572
 Alpha  occ. eigenvalues --   -0.37275  -0.36313
 Alpha virt. eigenvalues --    0.05111   0.11342   0.16575   0.20035   0.22337
 Alpha virt. eigenvalues --    0.23696   0.25360   0.26110   0.26800   0.27504
 Alpha virt. eigenvalues --    0.28890   0.30439   0.30866   0.31222   0.32159

 Mulliken charges:
               1
     1  C   -0.178572
     2  C   -0.221326
     3  C   -0.170812
     4  C    0.158293
     5  C   -0.170839
     6  C   -0.221089
     7  H    0.237865
     8  H    0.223755
     9  H    0.275344
    10  H    0.275375
    11  H    0.223778
    12  N    0.488013
    13  O   -0.460585
    14  O   -0.460616
    15  C   -0.298749
    16  C   -0.299199
    17  C   -0.482466
    18  H    0.145974
    19  H    0.149755
    20  H    0.154983
    21  H    0.156091
    22  H    0.157142
    23  H    0.147690
    24  H    0.164667
    25  C   -0.298811
    26  C   -0.300170
    27  C   -0.476136
    28  H    0.151242
    29  H    0.151545
    30  H    0.151451
    31  H    0.152160
    32  H    0.156176
    33  H    0.156239
    34  H    0.161831
 Sum of Mulliken charges =  -0.00000

 Dipole moment (field-independent basis, Debye):
    X=              5.0114    Y=              2.1082    Z=              0.5901  Tot=              5.4687
 Quadrupole moment (field-independent basis, Debye-Ang):
   XX=           -131.8030   YY=            -91.9487   ZZ=            -94.3827
   XY=            -10.2725   XZ=             -1.1327   YZ=             -1.7151

 Normal termination of Gaussian 16 at Thu May  6 14:08:33 2021.
