 Gaussian 16, Revision A.03,
 Gaussian 16:  EM64L-G16RevA.03 25-Dec-2016

 -------------
 #p 6-31g* mp2
 -------------

 ------------------------------------------------------
 Input file generated by CHIRIPA (05-May-2021 14:55:19)
 ------------------------------------------------------
 Symbolic Z-matrix:
 Charge =  0 Multiplicity = 1

                         Standard orientation:
 ---------------------------------------------------------------------
 Center     Atomic      Atomic             Coordinates (Angstroms)
 Number     Number       Type             X           Y           Z
 ---------------------------------------------------------------------
      1          6           0       -1.786318    1.941385    0.031077
      2          6           0       -1.332105    0.760797   -0.565936
      3          6           0       -2.140535   -0.379570   -0.589432
      4          6           0       -3.403339   -0.303678   -0.003893
      5          6           0       -3.884223    0.857829    0.598556
      6          6           0       -3.058684    1.986054    0.610396
      7          1           0       -1.151664    2.822534    0.044802
      8          1           0       -0.344421    0.723204   -1.016615
      9          1           0       -1.813905   -1.306550   -1.044886
     10          1           0       -4.873557    0.864715    1.039678
     11          1           0       -3.414052    2.901551    1.074749
     12          7           0       -4.268244   -1.504506   -0.022598
     13          8           0       -5.376756   -1.411820    0.500133
     14          8           0       -3.821267   -2.515664   -0.559634
     15          6           0        4.531096   -0.490485   -0.252089
     16          6           0        5.558881   -1.043347    0.735831
     17          6           0        6.265274   -2.295439    0.215186
     18          1           0        3.787124   -1.268578   -0.471232
     19          1           0        5.032761   -0.261172   -1.202428
     20          1           0        5.055689   -1.270253    1.684475
     21          1           0        6.300384   -0.263786    0.952795
     22          1           0        6.792621   -2.079628   -0.719657
     23          1           0        5.540854   -3.091814    0.016181
     24          1           0        6.995647   -2.673838    0.937149
     25          6           0        3.816533    0.761247    0.254164
     26          6           0        2.788748    1.314109   -0.733756
     27          6           0        2.082355    2.566201   -0.213111
     28          1           0        3.314868    0.531934    1.204502
     29          1           0        4.560505    1.539340    0.473306
     30          1           0        2.047245    0.534548   -0.950720
     31          1           0        3.291940    1.541015   -1.682400
     32          1           0        2.806775    3.362576   -0.014106
     33          1           0        1.555008    2.350390    0.721731
     34          1           0        1.351982    2.944600   -0.935074
 ---------------------------------------------------------------------

 SCF Done:  E(RHF) =  -669.535217301     A.U. after   15 cycles
 E2 =    -0.2092077904D+01 EUMP2 =    -0.67162729520505D+03

 The electronic state is 1-A.
 Alpha  occ. eigenvalues --  -20.60716 -20.60710 -15.85768 -11.31115 -11.27684
 Alpha  occ. eigenvalues --  -11.27676 -11.27368 -11.26684 -11.26634 -11.22793
 Alpha  occ. eigenvalues --  -11.22432 -11.22223 -11.22092 -11.22004 -11.21441
 Alpha  occ. eigenvalues --   -1.59792  -1.39346  -1.19281  -1.09238  -1.08672
 Alpha  occ. eigenvalues --   -1.04691  -1.04364  -0.96824  -0.95510  -0.87844
 Alpha  occ. eigenvalues --   -0.86077  -0.82354  -0.80464  -0.78979  -0.77407
 Alpha  occ. eigenvalues --   -0.71987  -0.71115  -0.70388  -0.65929  -0.64930
 Alpha  occ. eigenvalues --   -0.64701  -0.62188  -0.61597  -0.60215  -0.58394
 Alpha  occ. eigenvalues --   -0.56088  -0.55193  -0.53518  -0.53244  -0.53003
 Alpha  occ. eigenvalues --   -0.52760  -0.50741  -0.48782  -0.48743  -0.48723
 Alpha  occ. eigenvalues --   -0.47471  -0.46529  -0.46406  -0.44756  -0.44600
 Alpha  occ. eigenvalues --   -0.37249  -0.36289
 Alpha virt. eigenvalues --    0.05121   0.11306   0.16596   0.19501   0.22578
 Alpha virt. eigenvalues --    0.23962   0.25242   0.26032   0.26421   0.27938
 Alpha virt. eigenvalues --    0.29200   0.29807   0.30591   0.31447   0.32022

 Mulliken charges:
               1
     1  C   -0.175548
     2  C   -0.225830
     3  C   -0.173028
     4  C    0.158618
     5  C   -0.171133
     6  C   -0.218845
     7  H    0.229808
     8  H    0.234158
     9  H    0.275178
    10  H    0.275237
    11  H    0.223150
    12  N    0.488056
    13  O   -0.460682
    14  O   -0.460736
    15  C   -0.299259
    16  C   -0.300417
    17  C   -0.476294
    18  H    0.150295
    19  H    0.150798
    20  H    0.153323
    21  H    0.152660
    22  H    0.155717
    23  H    0.156511
    24  H    0.162115
    25  C   -0.298849
    26  C   -0.303977
    27  C   -0.484920
    28  H    0.152053
    29  H    0.152370
    30  H    0.147105
    31  H    0.157214
    32  H    0.163287
    33  H    0.157843
    34  H    0.154023
 Sum of Mulliken charges =  -0.00000

 Dipole moment (field-independent basis, Debye):
    X=              3.3419    Y=              4.2344    Z=              0.1135  Tot=              5.3955
 Quadrupole moment (field-independent basis, Debye-Ang):
   XX=           -112.1651   YY=            -96.9080   ZZ=            -94.1500
   XY=            -16.5230   XZ=             -2.3470   YZ=              0.9910

 Normal termination of Gaussian 16 at Thu May  6 20:35:52 2021.
