 Gaussian 16, Revision A.03,
 Gaussian 16:  EM64L-G16RevA.03 25-Dec-2016

 -------------
 #p 6-31g* mp2
 -------------

 ------------------------------------------------------
 Input file generated by CHIRIPA (05-May-2021 14:51:12)
 ------------------------------------------------------
 Symbolic Z-matrix:
 Charge =  0 Multiplicity = 1

                         Standard orientation:
 ---------------------------------------------------------------------
 Center     Atomic      Atomic             Coordinates (Angstroms)
 Number     Number       Type             X           Y           Z
 ---------------------------------------------------------------------
      1          6           0       -3.827758   -0.641468    0.148356
      2          6           0       -5.003743   -1.524624   -0.270072
      3          6           0       -5.047345   -2.850356    0.490406
      4          1           0       -2.889717   -1.189857   -0.013797
      5          1           0       -3.892041   -0.444315    1.227426
      6          1           0       -4.938026   -1.718910   -1.348288
      7          1           0       -5.939083   -0.973997   -0.107083
      8          1           0       -5.136987   -2.674029    1.567195
      9          1           0       -4.130242   -3.423175    0.318938
     10          1           0       -5.895729   -3.466017    0.175658
     11          6           0       -3.770640    0.687368   -0.603084
     12          6           0       -2.594656    1.570524   -0.184656
     13          6           0       -2.551054    2.896256   -0.945134
     14          1           0       -3.706357    0.490215   -1.682154
     15          1           0       -4.708681    1.235757   -0.440931
     16          1           0       -1.659316    1.019897   -0.347645
     17          1           0       -2.660373    1.764810    0.893560
     18          1           0       -3.468157    3.469075   -0.773666
     19          1           0       -2.461412    2.719929   -2.021923
     20          1           0       -1.702670    3.511917   -0.630386
     21          6           0        3.037771    0.024041    0.265441
     22          6           0        2.544454    1.142910    1.183460
     23          6           0        1.019053    1.224251    1.249237
     24          1           0        2.633695    0.181636   -0.743931
     25          1           0        2.633373   -0.934967    0.617803
     26          1           0        2.950787    2.099350    0.830285
     27          1           0        2.949907    0.982740    2.190719
     28          1           0        0.598927    0.284827    1.622839
     29          1           0        0.599812    1.407781    0.254674
     30          1           0        0.688187    2.030767    1.910991
     31          6           0        4.560628   -0.069941    0.189287
     32          6           0        5.053944   -1.188809   -0.728733
     33          6           0        6.579346   -1.270152   -0.794509
     34          1           0        4.965026    0.889067   -0.163075
     35          1           0        4.964704   -0.227536    1.198659
     36          1           0        4.648492   -1.028640   -1.735991
     37          1           0        4.647612   -2.145250   -0.375557
     38          1           0        6.998586   -1.453681    0.200054
     39          1           0        6.999471   -0.330726   -1.168110
     40          1           0        6.910211   -2.076667   -1.456263
 ---------------------------------------------------------------------

 SCF Done:  E(RHF) =  -470.732968376     A.U. after   11 cycles
 E2 =    -0.1582668543D+01 EUMP2 =    -0.47231563691915D+03

 The electronic state is 1-A.
 Alpha  occ. eigenvalues --  -11.21610 -11.21586 -11.21567 -11.21469 -11.21413
 Alpha  occ. eigenvalues --  -11.21353 -11.21347 -11.21284 -11.21078 -11.21048
 Alpha  occ. eigenvalues --  -11.21031 -11.21019  -1.08436  -1.08369  -1.03545
 Alpha  occ. eigenvalues --   -1.03459  -0.95996  -0.95915  -0.87012  -0.86934
 Alpha  occ. eigenvalues --   -0.79692  -0.79449  -0.78277  -0.78144  -0.65079
 Alpha  occ. eigenvalues --   -0.64995  -0.61000  -0.60822  -0.59357  -0.59296
 Alpha  occ. eigenvalues --   -0.57646  -0.57495  -0.55305  -0.55176  -0.52690
 Alpha  occ. eigenvalues --   -0.52612  -0.52430  -0.52337  -0.49975  -0.49831
 Alpha  occ. eigenvalues --   -0.48089  -0.47710  -0.46717  -0.46461  -0.45888
 Alpha  occ. eigenvalues --   -0.45721  -0.45675  -0.45486  -0.43785  -0.43721
 Alpha virt. eigenvalues --    0.22063   0.23032   0.23571   0.24844   0.26193
 Alpha virt. eigenvalues --    0.26621   0.26860   0.27576   0.27844   0.29135
 Alpha virt. eigenvalues --    0.30705   0.31241   0.31648   0.31891   0.32023

 Mulliken charges:
               1
     1  C   -0.298211
     2  C   -0.299558
     3  C   -0.475664
     4  H    0.149590
     5  H    0.149460
     6  H    0.151803
     7  H    0.151876
     8  H    0.155097
     9  H    0.155048
    10  H    0.160128
    11  C   -0.297890
    12  C   -0.303090
    13  C   -0.476985
    14  H    0.148915
    15  H    0.149137
    16  H    0.157466
    17  H    0.152238
    18  H    0.155080
    19  H    0.154416
    20  H    0.160622
    21  C   -0.298284
    22  C   -0.300201
    23  C   -0.477518
    24  H    0.149186
    25  H    0.149400
    26  H    0.151715
    27  H    0.151757
    28  H    0.155322
    29  H    0.158826
    30  H    0.160189
    31  C   -0.298226
    32  C   -0.299651
    33  C   -0.475707
    34  H    0.149568
    35  H    0.149734
    36  H    0.151850
    37  H    0.151887
    38  H    0.155216
    39  H    0.155209
    40  H    0.160249
 Sum of Mulliken charges =  -0.00000

 Dipole moment (field-independent basis, Debye):
    X=              0.0175    Y=              0.0026    Z=              0.0147  Tot=              0.0230
 Quadrupole moment (field-independent basis, Debye-Ang):
   XX=            -85.8507   YY=            -85.2639   ZZ=            -83.8873
   XY=             -0.2216   XZ=             -0.2381   YZ=              0.2581

 Normal termination of Gaussian 16 at Thu May  6 02:18:57 2021.
