 Gaussian 16, Revision A.03,
 Gaussian 16:  EM64L-G16RevA.03 25-Dec-2016

 -------------
 #p 6-31g* mp2
 -------------

 ------------------------------------------------------
 Input file generated by CHIRIPA (05-May-2021 14:51:08)
 ------------------------------------------------------
 Symbolic Z-matrix:
 Charge =  0 Multiplicity = 1

                         Standard orientation:
 ---------------------------------------------------------------------
 Center     Atomic      Atomic             Coordinates (Angstroms)
 Number     Number       Type             X           Y           Z
 ---------------------------------------------------------------------
      1          6           0       -3.774616   -0.136328    0.291674
      2          6           0       -4.310740    0.185061   -1.103770
      3          6           0       -5.814746    0.460231   -1.110313
      4          1           0       -4.310101   -1.008351    0.691395
      5          1           0       -3.997678    0.703005    0.964846
      6          1           0       -4.085511   -0.654038   -1.774442
      7          1           0       -3.773783    1.056303   -1.500293
      8          1           0       -6.053572    1.310814   -0.463729
      9          1           0       -6.367071   -0.409245   -0.739436
     10          1           0       -6.176875    0.687717   -2.117771
     11          6           0       -2.272538   -0.413756    0.314501
     12          6           0       -1.736414   -0.735145    1.709946
     13          6           0       -0.232409   -1.010314    1.716489
     14          1           0       -2.049476   -1.253089   -0.358670
     15          1           0       -1.737053    0.458267   -0.085219
     16          1           0       -2.273371   -1.606387    2.106469
     17          1           0       -1.961643    0.103954    2.380618
     18          1           0        0.319916   -0.140839    1.345611
     19          1           0        0.006417   -1.860898    1.069905
     20          1           0        0.129721   -1.237801    2.723947
     21          6           0        3.263116    0.999085   -0.345676
     22          6           0        2.253466    2.005337    0.207540
     23          6           0        2.747043    3.449527    0.115391
     24          1           0        4.209872    1.100187    0.202391
     25          1           0        3.480691    1.247021   -1.393810
     26          1           0        2.036813    1.754750    1.253907
     27          1           0        1.308943    1.901697   -0.341778
     28          1           0        2.945273    3.723188   -0.925961
     29          1           0        3.677278    3.575406    0.678791
     30          1           0        2.009840    4.152101    0.516367
     31          6           0        2.784038   -0.449002   -0.260500
     32          6           0        3.793688   -1.455253   -0.813716
     33          6           0        3.300111   -2.899443   -0.721568
     34          1           0        2.566463   -0.696938    0.787634
     35          1           0        1.837281   -0.550103   -0.808566
     36          1           0        4.738211   -1.351613   -0.264397
     37          1           0        4.010341   -1.204666   -1.860083
     38          1           0        2.369876   -3.025322   -1.284967
     39          1           0        3.101882   -3.173104    0.319785
     40          1           0        4.037314   -3.602017   -1.122542
 ---------------------------------------------------------------------

 SCF Done:  E(RHF) =  -470.731619060     A.U. after   11 cycles
 E2 =    -0.1584465418D+01 EUMP2 =    -0.47231608447795D+03

 The electronic state is 1-A.
 Alpha  occ. eigenvalues --  -11.21662 -11.21593 -11.21539 -11.21505 -11.21378
 Alpha  occ. eigenvalues --  -11.21370 -11.21319 -11.21224 -11.21113 -11.21064
 Alpha  occ. eigenvalues --  -11.21042 -11.20850  -1.08444  -1.08363  -1.03529
 Alpha  occ. eigenvalues --   -1.03474  -0.96015  -0.95886  -0.87027  -0.86922
 Alpha  occ. eigenvalues --   -0.79648  -0.79584  -0.78372  -0.78003  -0.65056
 Alpha  occ. eigenvalues --   -0.65010  -0.60931  -0.60879  -0.59346  -0.59294
 Alpha  occ. eigenvalues --   -0.57732  -0.57425  -0.55277  -0.55190  -0.52762
 Alpha  occ. eigenvalues --   -0.52633  -0.52507  -0.52197  -0.49912  -0.49888
 Alpha  occ. eigenvalues --   -0.48036  -0.47888  -0.46643  -0.46614  -0.46025
 Alpha  occ. eigenvalues --   -0.45678  -0.45667  -0.45095  -0.43760  -0.43726
 Alpha virt. eigenvalues --    0.21521   0.23039   0.23553   0.24123   0.25776
 Alpha virt. eigenvalues --    0.26009   0.26886   0.27683   0.28015   0.29992
 Alpha virt. eigenvalues --    0.30471   0.31042   0.31671   0.32030   0.32201

 Mulliken charges:
               1
     1  C   -0.298117
     2  C   -0.299596
     3  C   -0.475676
     4  H    0.149756
     5  H    0.149529
     6  H    0.151765
     7  H    0.151672
     8  H    0.155189
     9  H    0.155210
    10  H    0.160150
    11  C   -0.298905
    12  C   -0.300041
    13  C   -0.483545
    14  H    0.149002
    15  H    0.149478
    16  H    0.151084
    17  H    0.151160
    18  H    0.167166
    19  H    0.156030
    20  H    0.157393
    21  C   -0.297213
    22  C   -0.304209
    23  C   -0.475125
    24  H    0.149373
    25  H    0.149175
    26  H    0.153586
    27  H    0.152082
    28  H    0.155454
    29  H    0.155527
    30  H    0.160091
    31  C   -0.303207
    32  C   -0.299059
    33  C   -0.476145
    34  H    0.157093
    35  H    0.150818
    36  H    0.151391
    37  H    0.151233
    38  H    0.154631
    39  H    0.155714
    40  H    0.160086
 Sum of Mulliken charges =  -0.00000

 Dipole moment (field-independent basis, Debye):
    X=              0.0450    Y=              0.0151    Z=              0.0040  Tot=              0.0476
 Quadrupole moment (field-independent basis, Debye-Ang):
   XX=            -85.8866   YY=            -85.0834   ZZ=            -84.0282
   XY=              0.1641   XZ=              0.3662   YZ=              0.1444

 Normal termination of Gaussian 16 at Thu May  6 10:00:40 2021.
