 Gaussian 16, Revision A.03,
 Gaussian 16:  EM64L-G16RevA.03 25-Dec-2016

 -------------
 #p 6-31g* mp2
 -------------

 ------------------------------------------------------
 Input file generated by CHIRIPA (05-May-2021 14:51:11)
 ------------------------------------------------------
 Symbolic Z-matrix:
 Charge =  0 Multiplicity = 1

                         Standard orientation:
 ---------------------------------------------------------------------
 Center     Atomic      Atomic             Coordinates (Angstroms)
 Number     Number       Type             X           Y           Z
 ---------------------------------------------------------------------
      1          6           0        3.969198    0.138587   -0.213180
      2          6           0        2.747843   -0.285395    0.603224
      3          6           0        1.456322    0.376601    0.122051
      4          1           0        4.074651    1.230972   -0.162975
      5          1           0        3.799833   -0.110851   -1.269821
      6          1           0        2.920037   -0.036488    1.658218
      7          1           0        2.645397   -1.376916    0.551228
      8          1           0        1.257362    0.118510   -0.923131
      9          1           0        1.533563    1.466554    0.190149
     10          1           0        0.595900    0.059477    0.719517
     11          6           0        5.267965   -0.514842    0.255824
     12          6           0        6.489320   -0.090860   -0.560580
     13          6           0        7.780841   -0.752856   -0.079407
     14          1           0        5.437330   -0.265404    1.312465
     15          1           0        5.162512   -1.607227    0.205619
     16          1           0        6.591766    1.000661   -0.508583
     17          1           0        6.317125   -0.339767   -1.615573
     18          1           0        7.703600   -1.842809   -0.147505
     19          1           0        7.979801   -0.494765    0.965775
     20          1           0        8.641263   -0.435732   -0.676872
     21          6           0       -3.922548    0.367775    0.236934
     22          6           0       -3.408515    1.708791   -0.287882
     23          6           0       -2.014865    2.054287    0.237633
     24          1           0       -3.939084    0.393048    1.335130
     25          1           0       -3.215870   -0.424341   -0.046883
     26          1           0       -4.116656    2.497945   -0.004351
     27          1           0       -3.393382    1.680392   -1.384960
     28          1           0       -1.290942    1.287821   -0.057439
     29          1           0       -2.018325    2.110020    1.331015
     30          1           0       -1.666853    3.016817   -0.150031
     31          6           0       -5.314614    0.008480   -0.279578
     32          6           0       -5.828647   -1.332536    0.245237
     33          6           0       -7.222299   -1.678032   -0.280277
     34          1           0       -6.021293    0.800596    0.004239
     35          1           0       -5.298078   -0.016793   -1.377774
     36          1           0       -5.843781   -1.304137    1.342316
     37          1           0       -5.120507   -2.121689   -0.038293
     38          1           0       -7.218837   -1.733765   -1.373658
     39          1           0       -7.946220   -0.911566    0.014795
     40          1           0       -7.570309   -2.640562    0.107387
 ---------------------------------------------------------------------

 SCF Done:  E(RHF) =  -470.732799980     A.U. after   11 cycles
 E2 =    -0.1582475306D+01 EUMP2 =    -0.47231527528603D+03

 The electronic state is 1-A.
 Alpha  occ. eigenvalues --  -11.21597 -11.21581 -11.21578 -11.21512 -11.21397
 Alpha  occ. eigenvalues --  -11.21364 -11.21337 -11.21304 -11.21067 -11.21053
 Alpha  occ. eigenvalues --  -11.21046 -11.20884  -1.08423  -1.08379  -1.03537
 Alpha  occ. eigenvalues --   -1.03454  -0.96025  -0.95871  -0.87093  -0.86845
 Alpha  occ. eigenvalues --   -0.79678  -0.79451  -0.78243  -0.78185  -0.65052
 Alpha  occ. eigenvalues --   -0.65013  -0.60919  -0.60882  -0.59401  -0.59260
 Alpha  occ. eigenvalues --   -0.57629  -0.57480  -0.55264  -0.55223  -0.52885
 Alpha  occ. eigenvalues --   -0.52605  -0.52389  -0.52156  -0.49916  -0.49821
 Alpha  occ. eigenvalues --   -0.47906  -0.47836  -0.46619  -0.46567  -0.45793
 Alpha  occ. eigenvalues --   -0.45725  -0.45700  -0.45656  -0.43728  -0.43710
 Alpha virt. eigenvalues --    0.22600   0.22970   0.23716   0.24744   0.26373
 Alpha virt. eigenvalues --    0.26634   0.26996   0.27462   0.27724   0.29000
 Alpha virt. eigenvalues --    0.30725   0.31157   0.31683   0.31778   0.32177

 Mulliken charges:
               1
     1  C   -0.298540
     2  C   -0.300357
     3  C   -0.477498
     4  H    0.149720
     5  H    0.149344
     6  H    0.152102
     7  H    0.151636
     8  H    0.154125
     9  H    0.157469
    10  H    0.161782
    11  C   -0.298294
    12  C   -0.299596
    13  C   -0.475694
    14  H    0.149551
    15  H    0.149581
    16  H    0.151958
    17  H    0.151870
    18  H    0.155149
    19  H    0.155192
    20  H    0.160234
    21  C   -0.298325
    22  C   -0.299312
    23  C   -0.483245
    24  H    0.149322
    25  H    0.149111
    26  H    0.151214
    27  H    0.151464
    28  H    0.167600
    29  H    0.153643
    30  H    0.159084
    31  C   -0.298165
    32  C   -0.299613
    33  C   -0.475673
    34  H    0.149510
    35  H    0.149569
    36  H    0.151844
    37  H    0.151807
    38  H    0.155134
    39  H    0.155161
    40  H    0.160138
 Sum of Mulliken charges =  -0.00000

 Dipole moment (field-independent basis, Debye):
    X=              0.0359    Y=             -0.0020    Z=              0.0002  Tot=              0.0359
 Quadrupole moment (field-independent basis, Debye-Ang):
   XX=            -86.8717   YY=            -84.3299   ZZ=            -83.8727
   XY=              0.0261   XZ=             -0.7413   YZ=              0.8803

 Normal termination of Gaussian 16 at Thu May  6 07:03:31 2021.
