 Gaussian 16, Revision A.03,
 Gaussian 16:  EM64L-G16RevA.03 25-Dec-2016

 -------------
 #p 6-31g* mp2
 -------------

 ------------------------------------------------------
 Input file generated by CHIRIPA (05-May-2021 14:57:24)
 ------------------------------------------------------
 Symbolic Z-matrix:
 Charge =  0 Multiplicity = 1

                         Standard orientation:
 ---------------------------------------------------------------------
 Center     Atomic      Atomic             Coordinates (Angstroms)
 Number     Number       Type             X           Y           Z
 ---------------------------------------------------------------------
      1          6           0        3.130286   -2.107282    1.205809
      2          6           0        4.384435   -1.543772    1.462886
      3          6           0        4.777320   -0.364140    0.823623
      4          6           0        3.887065    0.228047   -0.070831
      5          6           0        2.630864   -0.309029   -0.347959
      6          6           0        2.259040   -1.489202    0.302799
      7          1           0        2.833264   -3.023859    1.706868
      8          1           0        5.063111   -2.021597    2.163691
      9          1           0        5.742363    0.093608    1.004118
     10          1           0        1.975973    0.190312   -1.051659
     11          1           0        1.284435   -1.924578    0.101208
     12          7           0        4.291847    1.477158   -0.753675
     13          8           0        3.489256    1.979439   -1.537382
     14          8           0        5.404042    1.930276   -0.492250
     15          6           0       -5.113928    1.753798    1.198648
     16          6           0       -5.771679    0.908670    0.298846
     17          6           0       -5.065001   -0.078864   -0.393924
     18          6           0       -3.695294   -0.193874   -0.161623
     19          6           0       -3.011575    0.632926    0.728446
     20          6           0       -3.738401    1.613477    1.410203
     21          1           0       -5.670718    2.518226    1.732531
     22          1           0       -6.839861    1.015353    0.132559
     23          1           0       -5.549163   -0.746567   -1.096191
     24          1           0       -1.946014    0.502413    0.873233
     25          1           0       -3.224958    2.268406    2.108406
     26          7           0       -2.936501   -1.235636   -0.889198
     27          8           0       -1.730416   -1.316556   -0.666831
     28          8           0       -3.562212   -1.951522   -1.668061
 ---------------------------------------------------------------------

 SCF Done:  E(RHF) =  -868.340052399     A.U. after   16 cycles
 E2 =    -0.2598264598D+01 EUMP2 =    -0.87093831699672D+03

 The electronic state is 1-A.
 Alpha  occ. eigenvalues --  -20.61518 -20.61453 -20.60340 -20.60334 -15.86536
 Alpha  occ. eigenvalues --  -15.85383 -11.31644 -11.30605 -11.28195 -11.28169
 Alpha  occ. eigenvalues --  -11.27868 -11.27184 -11.27137 -11.27127 -11.27044
 Alpha  occ. eigenvalues --  -11.26831 -11.26198 -11.25924  -1.60548  -1.59418
 Alpha  occ. eigenvalues --   -1.40114  -1.38975  -1.19790  -1.18745  -1.09229
 Alpha  occ. eigenvalues --   -1.08171  -1.05156  -1.04096  -0.96109  -0.95034
 Alpha  occ. eigenvalues --   -0.86566  -0.85504  -0.82958  -0.81846  -0.78033
 Alpha  occ. eigenvalues --   -0.76912  -0.72775  -0.71851  -0.71604  -0.70897
 Alpha  occ. eigenvalues --   -0.70741  -0.69856  -0.65450  -0.65154  -0.64381
 Alpha  occ. eigenvalues --   -0.64051  -0.62510  -0.61414  -0.55661  -0.54620
 Alpha  occ. eigenvalues --   -0.53496  -0.53245  -0.52479  -0.52142  -0.49529
 Alpha  occ. eigenvalues --   -0.49476  -0.48368  -0.48347  -0.45575  -0.44412
 Alpha  occ. eigenvalues --   -0.37751  -0.36746  -0.36744  -0.35709
 Alpha virt. eigenvalues --    0.04492   0.05567   0.10911   0.11935   0.16039
 Alpha virt. eigenvalues --    0.17100   0.20968   0.22173   0.26869   0.27382
 Alpha virt. eigenvalues --    0.28573   0.28955   0.30708   0.31604   0.32452

 Mulliken charges:
               1
     1  C   -0.172614
     2  C   -0.218718
     3  C   -0.173132
     4  C    0.158073
     5  C   -0.175275
     6  C   -0.227607
     7  H    0.225020
     8  H    0.220697
     9  H    0.272960
    10  H    0.278472
    11  H    0.246720
    12  N    0.487935
    13  O   -0.461338
    14  O   -0.462786
    15  C   -0.169895
    16  C   -0.218419
    17  C   -0.170392
    18  C    0.158047
    19  C   -0.170153
    20  C   -0.218156
    21  H    0.227695
    22  H    0.225114
    23  H    0.276315
    24  H    0.273019
    25  H    0.225851
    26  N    0.493537
    27  O   -0.475228
    28  O   -0.455742
 Sum of Mulliken charges =  -0.00000

 Dipole moment (field-independent basis, Debye):
    X=             -4.5556    Y=             -0.7562    Z=              4.9444  Tot=              6.7656
 Quadrupole moment (field-independent basis, Debye-Ang):
   XX=            -89.1592   YY=           -109.0288   ZZ=           -105.0308
   XY=            -29.8618   XZ=              4.7966   YZ=              0.7445

 Normal termination of Gaussian 16 at Fri May  7 12:38:35 2021.
