 Gaussian 16, Revision A.03,
 Gaussian 16:  EM64L-G16RevA.03 25-Dec-2016

 -------------
 #p 6-31g* mp2
 -------------

 ------------------------------------------------------
 Input file generated by CHIRIPA (05-May-2021 14:55:23)
 ------------------------------------------------------
 Symbolic Z-matrix:
 Charge =  0 Multiplicity = 1

                         Standard orientation:
 ---------------------------------------------------------------------
 Center     Atomic      Atomic             Coordinates (Angstroms)
 Number     Number       Type             X           Y           Z
 ---------------------------------------------------------------------
      1          6           0        4.361227    1.834068   -0.229172
      2          6           0        3.902720    1.144766   -1.356627
      3          6           0        3.001929    0.084024   -1.222645
      4          6           0        2.578478   -0.262293    0.059558
      5          6           0        3.017086    0.405099    1.202144
      6          6           0        3.917729    1.462690    1.044369
      7          1           0        5.060925    2.656854   -0.342494
      8          1           0        4.245443    1.430991   -2.346910
      9          1           0        2.630897   -0.466710   -2.078475
     10          1           0        2.657494    0.096680    2.176304
     11          1           0        4.272127    1.996219    1.921748
     12          7           0        1.624930   -1.383585    0.213993
     13          8           0        1.267022   -1.669193    1.354593
     14          8           0        1.253501   -1.955613   -0.808485
     15          6           0       -4.052593    0.623424   -0.114564
     16          6           0       -3.567977    2.050875    0.141399
     17          6           0       -4.681676    3.088308   -0.004207
     18          1           0       -4.481232    0.564043   -1.124360
     19          1           0       -4.866951    0.389138    0.584953
     20          1           0       -2.753842    2.281917   -0.557471
     21          1           0       -3.140268    2.106819    1.150631
     22          1           0       -5.491937    2.885590    0.703595
     23          1           0       -5.103316    3.061682   -1.014213
     24          1           0       -4.313272    4.101758    0.183026
     25          6           0       -2.950631   -0.425049    0.027254
     26          6           0       -3.435246   -1.852500   -0.228708
     27          6           0       -2.321547   -2.889933   -0.083103
     28          1           0       -2.136272   -0.190762   -0.672263
     29          1           0       -2.521992   -0.365667    1.037050
     30          1           0       -3.862956   -1.908443   -1.237941
     31          1           0       -4.249382   -2.083541    0.470161
     32          1           0       -1.899909   -2.863307    0.926903
     33          1           0       -1.511287   -2.687215   -0.790905
     34          1           0       -2.689952   -3.903384   -0.270336
 ---------------------------------------------------------------------

 SCF Done:  E(RHF) =  -669.536323699     A.U. after   15 cycles
 E2 =    -0.2091586536D+01 EUMP2 =    -0.67162791023426D+03

 The electronic state is 1-A.
 Alpha  occ. eigenvalues --  -20.60962 -20.60957 -15.85982 -11.31301 -11.27862
 Alpha  occ. eigenvalues --  -11.27857 -11.27597 -11.26867 -11.26857 -11.21136
 Alpha  occ. eigenvalues --  -11.20724 -11.20692 -11.20407 -11.20341 -11.19161
 Alpha  occ. eigenvalues --   -1.60005  -1.39565  -1.19465  -1.08870  -1.07584
 Alpha  occ. eigenvalues --   -1.04861  -1.02580  -0.95715  -0.94991  -0.86262
 Alpha  occ. eigenvalues --   -0.86000  -0.82549  -0.78704  -0.77602  -0.77320
 Alpha  occ. eigenvalues --   -0.72204  -0.71315  -0.70575  -0.65122  -0.64865
 Alpha  occ. eigenvalues --   -0.64228  -0.62209  -0.59982  -0.58483  -0.56597
 Alpha  occ. eigenvalues --   -0.55365  -0.54270  -0.53192  -0.52954  -0.51706
 Alpha  occ. eigenvalues --   -0.51415  -0.49124  -0.48958  -0.48767  -0.46917
 Alpha  occ. eigenvalues --   -0.45771  -0.45068  -0.44825  -0.44622  -0.42855
 Alpha  occ. eigenvalues --   -0.37442  -0.36462
 Alpha virt. eigenvalues --    0.04910   0.11193   0.16398   0.21325   0.23618
 Alpha virt. eigenvalues --    0.25348   0.27244   0.27454   0.28116   0.28326
 Alpha virt. eigenvalues --    0.29190   0.30907   0.32261   0.32448   0.32601

 Mulliken charges:
               1
     1  C   -0.170545
     2  C   -0.218526
     3  C   -0.170887
     4  C    0.158626
     5  C   -0.170532
     6  C   -0.218526
     7  H    0.226028
     8  H    0.223806
     9  H    0.275555
    10  H    0.275795
    11  H    0.223862
    12  N    0.489442
    13  O   -0.458832
    14  O   -0.459813
    15  C   -0.297409
    16  C   -0.298587
    17  C   -0.475012
    18  H    0.147706
    19  H    0.148219
    20  H    0.149212
    21  H    0.150799
    22  H    0.154956
    23  H    0.154399
    24  H    0.157250
    25  C   -0.297424
    26  C   -0.299758
    27  C   -0.483275
    28  H    0.148230
    29  H    0.151850
    30  H    0.146428
    31  H    0.146423
    32  H    0.163272
    33  H    0.176126
    34  H    0.151140
 Sum of Mulliken charges =  -0.00000

 Dipole moment (field-independent basis, Debye):
    X=              3.6971    Y=              3.8692    Z=             -0.5134  Tot=              5.3762
 Quadrupole moment (field-independent basis, Debye-Ang):
   XX=            -79.6716   YY=            -98.5349   ZZ=            -88.8703
   XY=             10.2109   XZ=             -1.5596   YZ=              1.0589

 Normal termination of Gaussian 16 at Thu May  6 20:51:19 2021.
