 Gaussian 16, Revision A.03,
 Gaussian 16:  EM64L-G16RevA.03 25-Dec-2016

 -------------
 #p 6-31g* mp2
 -------------

 ------------------------------------------------------
 Input file generated by CHIRIPA (05-May-2021 14:57:25)
 ------------------------------------------------------
 Symbolic Z-matrix:
 Charge =  0 Multiplicity = 1

                         Standard orientation:
 ---------------------------------------------------------------------
 Center     Atomic      Atomic             Coordinates (Angstroms)
 Number     Number       Type             X           Y           Z
 ---------------------------------------------------------------------
      1          6           0       -2.281174    1.997563    1.312467
      2          6           0       -2.172627    0.767595    1.969671
      3          6           0       -2.417468   -0.426904    1.285733
      4          6           0       -2.770333   -0.354203   -0.060926
      5          6           0       -2.886663    0.855709   -0.743472
      6          6           0       -2.637218    2.037624   -0.039624
      7          1           0       -2.089188    2.920591    1.851500
      8          1           0       -1.896291    0.733451    3.019680
      9          1           0       -2.340653   -1.392812    1.770027
     10          1           0       -3.163950    0.857792   -1.790623
     11          1           0       -2.722274    2.991396   -0.552585
     12          7           0       -3.031972   -1.612105   -0.795520
     13          8           0       -3.341308   -1.521078   -1.981547
     14          8           0       -2.922754   -2.665257   -0.171357
     15          6           0        3.908091   -1.974392    0.626607
     16          6           0        4.399550   -1.213211   -0.439034
     17          6           0        3.753359   -0.036130   -0.828225
     18          6           0        2.613049    0.351964   -0.126537
     19          6           0        2.098964   -0.384866    0.939338
     20          6           0        2.761389   -1.558524    1.311185
     21          1           0        4.416373   -2.887447    0.922202
     22          1           0        5.289893   -1.533751   -0.972502
     23          1           0        4.112273    0.572171   -1.649546
     24          1           0        1.209303   -0.039758    1.451999
     25          1           0        2.377456   -2.147675    2.139159
     26          7           0        1.920362    1.596273   -0.529375
     27          8           0        0.917540    1.916590    0.104960
     28          8           0        2.393374    2.227686   -1.471826
 ---------------------------------------------------------------------

 SCF Done:  E(RHF) =  -868.338682933     A.U. after   16 cycles
 E2 =    -0.2600743748D+01 EUMP2 =    -0.87093942668120D+03

 The electronic state is 1-A.
 Alpha  occ. eigenvalues --  -20.61062 -20.61051 -20.60387 -20.60364 -15.86094
 Alpha  occ. eigenvalues --  -15.85428 -11.31322 -11.30566 -11.27879 -11.27870
 Alpha  occ. eigenvalues --  -11.27588 -11.27237 -11.27058 -11.26867 -11.26849
 Alpha  occ. eigenvalues --  -11.26757 -11.26174 -11.25940  -1.60134  -1.59461
 Alpha  occ. eigenvalues --   -1.39692  -1.39022  -1.19482  -1.18710  -1.08904
 Alpha  occ. eigenvalues --   -1.08121  -1.04869  -1.04108  -0.95766  -0.95008
 Alpha  occ. eigenvalues --   -0.86272  -0.85508  -0.82608  -0.81871  -0.77672
 Alpha  occ. eigenvalues --   -0.76965  -0.72348  -0.71653  -0.71446  -0.70783
 Alpha  occ. eigenvalues --   -0.70591  -0.69811  -0.65142  -0.64876  -0.64377
 Alpha  occ. eigenvalues --   -0.64122  -0.62227  -0.61489  -0.55371  -0.54565
 Alpha  occ. eigenvalues --   -0.53197  -0.52980  -0.52361  -0.52214  -0.49099
 Alpha  occ. eigenvalues --   -0.49073  -0.48420  -0.48387  -0.45120  -0.44480
 Alpha  occ. eigenvalues --   -0.37452  -0.36554  -0.36455  -0.35672
 Alpha virt. eigenvalues --    0.04847   0.05586   0.11189   0.11969   0.16382
 Alpha virt. eigenvalues --    0.17109   0.21228   0.22088   0.26983   0.27784
 Alpha virt. eigenvalues --    0.28438   0.28964   0.30787   0.31580   0.32324

 Mulliken charges:
               1
     1  C   -0.153039
     2  C   -0.222805
     3  C   -0.177403
     4  C    0.157871
     5  C   -0.170533
     6  C   -0.206089
     7  H    0.227011
     8  H    0.217224
     9  H    0.268781
    10  H    0.274435
    11  H    0.226018
    12  N    0.488144
    13  O   -0.460808
    14  O   -0.465902
    15  C   -0.169512
    16  C   -0.218336
    17  C   -0.170135
    18  C    0.157345
    19  C   -0.171145
    20  C   -0.217667
    21  H    0.226950
    22  H    0.224371
    23  H    0.275638
    24  H    0.272892
    25  H    0.223264
    26  N    0.490970
    27  O   -0.466914
    28  O   -0.460624
 Sum of Mulliken charges =  -0.00000

 Dipole moment (field-independent basis, Debye):
    X=              3.4661    Y=              0.3478    Z=              3.8935  Tot=              5.2243
 Quadrupole moment (field-independent basis, Debye-Ang):
   XX=            -95.8601   YY=           -110.2920   ZZ=           -100.3104
   XY=            -24.6146   XZ=             -5.6305   YZ=             -3.1595

 Normal termination of Gaussian 16 at Thu May  6 22:50:32 2021.
