 Gaussian 16, Revision A.03,
 Gaussian 16:  EM64L-G16RevA.03 25-Dec-2016

 -------------
 #p 6-31g* mp2
 -------------

 ------------------------------------------------------
 Input file generated by CHIRIPA (05-May-2021 14:53:15)
 ------------------------------------------------------
 Symbolic Z-matrix:
 Charge =  0 Multiplicity = 1

                         Standard orientation:
 ---------------------------------------------------------------------
 Center     Atomic      Atomic             Coordinates (Angstroms)
 Number     Number       Type             X           Y           Z
 ---------------------------------------------------------------------
      1          6           0       -3.280466    0.434630   -0.091095
      2          6           0       -4.667799    0.621875   -0.706101
      3          6           0       -4.925271    2.059933   -1.157203
      4          1           0       -3.171211    1.114164    0.765200
      5          1           0       -2.518555    0.731648   -0.825033
      6          1           0       -5.426827    0.323282    0.028293
      7          1           0       -4.773834   -0.058321   -1.560915
      8          1           0       -4.189933    2.365497   -1.908542
      9          1           0       -4.846636    2.749267   -0.310305
     10          1           0       -5.922705    2.171254   -1.593771
     11          6           0       -3.008173   -0.997780    0.364741
     12          6           0       -1.620840   -1.185026    0.979747
     13          6           0       -1.363369   -2.623084    1.430848
     14          1           0       -3.770085   -1.294799    1.098679
     15          1           0       -3.117428   -1.677314   -0.491555
     16          1           0       -1.514805   -0.504830    1.834560
     17          1           0       -0.861812   -0.886433    0.245353
     18          1           0       -1.442003   -3.312418    0.583951
     19          1           0       -2.098706   -2.928647    2.182187
     20          1           0       -0.365934   -2.734405    1.867417
     21          6           0        2.485560    2.277274    1.353458
     22          6           0        1.842978    1.115431    1.793606
     23          6           0        1.820589   -0.030342    0.992824
     24          6           0        2.453690    0.021089   -0.248074
     25          6           0        3.102203    1.163512   -0.714541
     26          6           0        3.112018    2.297571    0.102994
     27          1           0        2.498069    3.162787    1.982032
     28          1           0        1.355636    1.096782    2.764273
     29          1           0        1.330440   -0.943169    1.308921
     30          1           0        3.579290    1.151687   -1.686994
     31          1           0        3.611822    3.198472   -0.241414
     32          7           0        2.436643   -1.185688   -1.104694
     33          8           0        3.001769   -1.114699   -2.193837
     34          8           0        1.858481   -2.179698   -0.670750
 ---------------------------------------------------------------------

 SCF Done:  E(RHF) =  -669.534813821     A.U. after   15 cycles
 E2 =    -0.2093374384D+01 EUMP2 =    -0.67162818820530D+03

 The electronic state is 1-A.
 Alpha  occ. eigenvalues --  -20.60838 -20.60827 -15.85867 -11.31166 -11.27757
 Alpha  occ. eigenvalues --  -11.27700 -11.27493 -11.26748 -11.26725 -11.21602
 Alpha  occ. eigenvalues --  -11.21597 -11.21401 -11.21320 -11.21105 -11.20934
 Alpha  occ. eigenvalues --   -1.59900  -1.39455  -1.19354  -1.08759  -1.08422
 Alpha  occ. eigenvalues --   -1.04753  -1.03519  -0.95965  -0.95590  -0.86958
 Alpha  occ. eigenvalues --   -0.86156  -0.82433  -0.79613  -0.78287  -0.77460
 Alpha  occ. eigenvalues --   -0.72090  -0.71221  -0.70476  -0.65096  -0.64978
 Alpha  occ. eigenvalues --   -0.64743  -0.62176  -0.60879  -0.59303  -0.57582
 Alpha  occ. eigenvalues --   -0.55259  -0.55185  -0.53098  -0.52884  -0.52603
 Alpha  occ. eigenvalues --   -0.52343  -0.49858  -0.48849  -0.48843  -0.47922
 Alpha  occ. eigenvalues --   -0.46619  -0.45797  -0.45717  -0.44813  -0.43776
 Alpha  occ. eigenvalues --   -0.37333  -0.36297
 Alpha virt. eigenvalues --    0.05029   0.11240   0.16493   0.20615   0.22974
 Alpha virt. eigenvalues --    0.23999   0.26237   0.26596   0.27251   0.28014
 Alpha virt. eigenvalues --    0.29321   0.30325   0.31527   0.31646   0.32014

 Mulliken charges:
               1
     1  C   -0.298026
     2  C   -0.299849
     3  C   -0.475634
     4  H    0.146002
     5  H    0.150768
     6  H    0.151555
     7  H    0.153980
     8  H    0.155487
     9  H    0.153387
    10  H    0.160610
    11  C   -0.297961
    12  C   -0.307979
    13  C   -0.474655
    14  H    0.148525
    15  H    0.154560
    16  H    0.140959
    17  H    0.159246
    18  H    0.167151
    19  H    0.152464
    20  H    0.156570
    21  C   -0.170188
    22  C   -0.222547
    23  C   -0.172251
    24  C    0.155701
    25  C   -0.170182
    26  C   -0.219187
    27  H    0.225582
    28  H    0.223742
    29  H    0.287307
    30  H    0.275370
    31  H    0.223286
    32  N    0.487682
    33  O   -0.459789
    34  O   -0.461689
 Sum of Mulliken charges =  -0.00000

 Dipole moment (field-independent basis, Debye):
    X=              0.0600    Y=              4.1507    Z=              2.9034  Tot=              5.0657
 Quadrupole moment (field-independent basis, Debye-Ang):
   XX=            -93.7683   YY=            -94.5100   ZZ=            -93.7135
   XY=             12.5456   XZ=              5.1199   YZ=             -2.1663

 Normal termination of Gaussian 16 at Wed May  5 17:09:28 2021.
