 Gaussian 16, Revision A.03,
 Gaussian 16:  EM64L-G16RevA.03 25-Dec-2016

 -------------
 #p 6-31g* mp2
 -------------

 ------------------------------------------------------
 Input file generated by CHIRIPA (05-May-2021 14:55:24)
 ------------------------------------------------------
 Symbolic Z-matrix:
 Charge =  0 Multiplicity = 1

                         Standard orientation:
 ---------------------------------------------------------------------
 Center     Atomic      Atomic             Coordinates (Angstroms)
 Number     Number       Type             X           Y           Z
 ---------------------------------------------------------------------
      1          6           0        4.390243   -1.361465   -0.027011
      2          6           0        4.546722   -0.189932   -0.775038
      3          6           0        3.601002    0.836442   -0.693069
      4          6           0        2.506004    0.657030    0.150780
      5          6           0        2.322142   -0.498438    0.908657
      6          6           0        3.280410   -1.511715    0.810972
      7          1           0        5.129775   -2.153690   -0.096790
      8          1           0        5.407638   -0.070498   -1.426654
      9          1           0        3.697472    1.753780   -1.261050
     10          1           0        1.453454   -0.588536    1.549502
     11          1           0        3.156301   -2.420455    1.393066
     12          7           0        1.498172    1.736673    0.245876
     13          8           0        0.542328    1.554161    0.996669
     14          8           0        1.683159    2.744966   -0.432181
     15          6           0       -4.028573   -0.405943    0.239935
     16          6           0       -5.050462    0.409375   -0.553151
     17          6           0       -6.261661    0.816648    0.286443
     18          1           0       -4.517419   -1.304397    0.640876
     19          1           0       -3.694448    0.181197    1.106550
     20          1           0       -5.381527   -0.178583   -1.418781
     21          1           0       -4.559079    1.305895   -0.952412
     22          1           0       -5.950429    1.424677    1.142035
     23          1           0       -6.777551   -0.068237    0.673016
     24          1           0       -6.979395    1.398578   -0.300136
     25          6           0       -2.812022   -0.820532   -0.585809
     26          6           0       -1.790134   -1.635849    0.207276
     27          6           0       -0.578934   -2.043122   -0.632318
     28          1           0       -3.146148   -1.407672   -1.452425
     29          1           0       -2.323177    0.077922   -0.986751
     30          1           0       -2.281517   -2.532370    0.606538
     31          1           0       -1.459068   -1.047891    1.072907
     32          1           0       -0.063044   -1.158238   -1.018890
     33          1           0       -0.890166   -2.651151   -1.487909
     34          1           0        0.138800   -2.625052   -0.045738
 ---------------------------------------------------------------------

 SCF Done:  E(RHF) =  -669.535531174     A.U. after   15 cycles
 E2 =    -0.2092851537D+01 EUMP2 =    -0.67162838271028D+03

 The electronic state is 1-A.
 Alpha  occ. eigenvalues --  -20.60903 -20.60896 -15.85937 -11.31211 -11.27806
 Alpha  occ. eigenvalues --  -11.27789 -11.27538 -11.26783 -11.26771 -11.21241
 Alpha  occ. eigenvalues --  -11.21040 -11.20967 -11.20849 -11.20777 -11.20569
 Alpha  occ. eigenvalues --   -1.59966  -1.39522  -1.19402  -1.08809  -1.07925
 Alpha  occ. eigenvalues --   -1.04797  -1.03120  -0.95683  -0.95559  -0.86616
 Alpha  occ. eigenvalues --   -0.86187  -0.82490  -0.79182  -0.77727  -0.77545
 Alpha  occ. eigenvalues --   -0.72159  -0.71291  -0.70518  -0.65061  -0.64818
 Alpha  occ. eigenvalues --   -0.64509  -0.62168  -0.60491  -0.58982  -0.57201
 Alpha  occ. eigenvalues --   -0.55313  -0.54890  -0.53153  -0.52880  -0.52262
 Alpha  occ. eigenvalues --   -0.52020  -0.49498  -0.48921  -0.48908  -0.47512
 Alpha  occ. eigenvalues --   -0.46180  -0.45303  -0.45154  -0.44903  -0.43359
 Alpha  occ. eigenvalues --   -0.37369  -0.36334
 Alpha virt. eigenvalues --    0.04956   0.11228   0.16392   0.20757   0.23278
 Alpha virt. eigenvalues --    0.24329   0.26625   0.27123   0.27686   0.28295
 Alpha virt. eigenvalues --    0.29022   0.30014   0.31603   0.31671   0.32507

 Mulliken charges:
               1
     1  C   -0.170037
     2  C   -0.219004
     3  C   -0.170867
     4  C    0.155566
     5  C   -0.164960
     6  C   -0.219583
     7  H    0.225869
     8  H    0.223491
     9  H    0.275588
    10  H    0.277831
    11  H    0.223469
    12  N    0.488530
    13  O   -0.462255
    14  O   -0.459577
    15  C   -0.299254
    16  C   -0.300099
    17  C   -0.475735
    18  H    0.145816
    19  H    0.155771
    20  H    0.149286
    21  H    0.155999
    22  H    0.156929
    23  H    0.152944
    24  H    0.159093
    25  C   -0.298432
    26  C   -0.303467
    27  C   -0.475562
    28  H    0.145767
    29  H    0.158456
    30  H    0.147916
    31  H    0.160196
    32  H    0.156790
    33  H    0.154656
    34  H    0.148867
 Sum of Mulliken charges =  -0.00000

 Dipole moment (field-independent basis, Debye):
    X=              3.6278    Y=             -3.6478    Z=             -0.3148  Tot=              5.1543
 Quadrupole moment (field-independent basis, Debye-Ang):
   XX=            -76.9368   YY=            -98.5517   ZZ=            -93.3930
   XY=             -5.3430   XZ=             -1.8412   YZ=             -2.8743

 Normal termination of Gaussian 16 at Thu May  6 00:01:47 2021.
