 Gaussian 16, Revision A.03,
 Gaussian 16:  EM64L-G16RevA.03 25-Dec-2016

 -------------
 #p 6-31g* mp2
 -------------

 ------------------------------------------------------
 Input file generated by CHIRIPA (05-May-2021 14:55:21)
 ------------------------------------------------------
 Symbolic Z-matrix:
 Charge =  0 Multiplicity = 1

                         Standard orientation:
 ---------------------------------------------------------------------
 Center     Atomic      Atomic             Coordinates (Angstroms)
 Number     Number       Type             X           Y           Z
 ---------------------------------------------------------------------
      1          6           0       -2.060715    2.517884    0.411499
      2          6           0       -1.771916    1.640604    1.461973
      3          6           0       -2.159044    0.298973    1.393383
      4          6           0       -2.836454   -0.133498    0.254359
      5          6           0       -3.138750    0.716124   -0.808679
      6          6           0       -2.742009    2.053662   -0.718483
      7          1           0       -1.756251    3.558506    0.473173
      8          1           0       -1.242942    1.998346    2.340752
      9          1           0       -1.948312   -0.401747    2.192133
     10          1           0       -3.667403    0.330228   -1.671829
     11          1           0       -2.967641    2.732710   -1.535814
     12          7           0       -3.251377   -1.551656    0.170309
     13          8           0       -3.847040   -1.907943   -0.844030
     14          8           0       -2.973075   -2.280070    1.120361
     15          6           0        2.789477   -0.102601   -0.221736
     16          6           0        1.969329   -0.035334   -1.510464
     17          6           0        0.463409    0.015547   -1.250828
     18          1           0        2.484994   -0.987758    0.353357
     19          1           0        2.553161    0.771275    0.401072
     20          1           0        2.208151   -0.908361   -2.131273
     21          1           0        2.275935    0.849660   -2.082647
     22          1           0        0.205234    0.894934   -0.651974
     23          1           0        0.137066   -0.873078   -0.700876
     24          1           0       -0.103765    0.063272   -2.185652
     25          6           0        4.296781   -0.153992   -0.464885
     26          6           0        5.116928   -0.221260    0.823842
     27          6           0        6.622848   -0.272141    0.564207
     28          1           0        4.533097   -1.027868   -1.087693
     29          1           0        4.601264    0.731165   -1.039979
     30          1           0        4.810323   -1.106255    1.396026
     31          1           0        4.878106    0.651768    1.444651
     32          1           0        6.949191    0.616483    0.014255
     33          1           0        6.881024   -1.151527   -0.034648
     34          1           0        7.190022   -0.319866    1.499030
 ---------------------------------------------------------------------

 SCF Done:  E(RHF) =  -669.533954568     A.U. after   15 cycles
 E2 =    -0.2094212144D+01 EUMP2 =    -0.67162816671225D+03

 The electronic state is 1-A.
 Alpha  occ. eigenvalues --  -20.60778 -20.60772 -15.85826 -11.31169 -11.27755
 Alpha  occ. eigenvalues --  -11.27737 -11.27502 -11.26774 -11.26763 -11.21720
 Alpha  occ. eigenvalues --  -11.21597 -11.21502 -11.21443 -11.21171 -11.20904
 Alpha  occ. eigenvalues --   -1.59852  -1.39406  -1.19371  -1.08771  -1.08505
 Alpha  occ. eigenvalues --   -1.04769  -1.03575  -0.96027  -0.95599  -0.87049
 Alpha  occ. eigenvalues --   -0.86171  -0.82432  -0.79659  -0.78333  -0.77475
 Alpha  occ. eigenvalues --   -0.72049  -0.71171  -0.70487  -0.65142  -0.65022
 Alpha  occ. eigenvalues --   -0.64779  -0.62117  -0.60987  -0.59402  -0.57682
 Alpha  occ. eigenvalues --   -0.55384  -0.55280  -0.53667  -0.52866  -0.52656
 Alpha  occ. eigenvalues --   -0.51944  -0.49939  -0.48807  -0.48803  -0.47886
 Alpha  occ. eigenvalues --   -0.46685  -0.45840  -0.45797  -0.44810  -0.43845
 Alpha  occ. eigenvalues --   -0.37293  -0.36327
 Alpha virt. eigenvalues --    0.05035   0.11229   0.16513   0.21384   0.22794
 Alpha virt. eigenvalues --    0.24268   0.26543   0.27172   0.27498   0.27841
 Alpha virt. eigenvalues --    0.28311   0.30829   0.31396   0.31786   0.31838

 Mulliken charges:
               1
     1  C   -0.173274
     2  C   -0.218432
     3  C   -0.169263
     4  C    0.163788
     5  C   -0.169772
     6  C   -0.215243
     7  H    0.225473
     8  H    0.223473
     9  H    0.275431
    10  H    0.275479
    11  H    0.223394
    12  N    0.487522
    13  O   -0.460390
    14  O   -0.460911
    15  C   -0.297757
    16  C   -0.300404
    17  C   -0.478337
    18  H    0.151622
    19  H    0.144332
    20  H    0.153531
    21  H    0.148579
    22  H    0.158378
    23  H    0.155264
    24  H    0.157392
    25  C   -0.298113
    26  C   -0.299540
    27  C   -0.475699
    28  H    0.151225
    29  H    0.148538
    30  H    0.152991
    31  H    0.149610
    32  H    0.154632
    33  H    0.156240
    34  H    0.160243
 Sum of Mulliken charges =  -0.00000

 Dipole moment (field-independent basis, Debye):
    X=              1.3661    Y=              4.9835    Z=              0.3109  Tot=              5.1767
 Quadrupole moment (field-independent basis, Debye-Ang):
   XX=           -104.2655   YY=            -95.5253   ZZ=            -90.8077
   XY=            -14.9821   XZ=              1.7250   YZ=              0.3914

 Normal termination of Gaussian 16 at Thu May  6 20:47:26 2021.
