 Gaussian 16, Revision A.03,
 Gaussian 16:  EM64L-G16RevA.03 25-Dec-2016

 -------------
 #p 6-31g* mp2
 -------------

 ------------------------------------------------------
 Input file generated by CHIRIPA (05-May-2021 14:55:25)
 ------------------------------------------------------
 Symbolic Z-matrix:
 Charge =  0 Multiplicity = 1

                         Standard orientation:
 ---------------------------------------------------------------------
 Center     Atomic      Atomic             Coordinates (Angstroms)
 Number     Number       Type             X           Y           Z
 ---------------------------------------------------------------------
      1          6           0       -0.950988   -2.495175    0.705951
      2          6           0       -2.220196   -2.263684    1.246361
      3          6           0       -2.989480   -1.179722    0.813030
      4          6           0       -2.456173   -0.343600   -0.166651
      5          6           0       -1.195024   -0.547885   -0.724379
      6          6           0       -0.443347   -1.638047   -0.275963
      7          1           0       -0.360228   -3.339631    1.048432
      8          1           0       -2.616983   -2.927689    2.009055
      9          1           0       -3.975055   -0.977256    1.214363
     10          1           0       -0.826320    0.131429   -1.483331
     11          1           0        0.542023   -1.815388   -0.697438
     12          7           0       -3.261260    0.807224   -0.633384
     13          8           0       -2.768762    1.529157   -1.497615
     14          8           0       -4.369540    0.965516   -0.126140
     15          6           0        2.494871    1.254929   -0.047113
     16          6           0        2.210804    2.164684    1.148560
     17          6           0        1.250513    3.304946    0.808796
     18          1           0        2.912597    1.856238   -0.866184
     19          1           0        1.546949    0.839526   -0.416271
     20          1           0        3.159123    2.577157    1.516216
     21          1           0        1.793884    1.561106    1.964947
     22          1           0        0.290104    2.909527    0.462589
     23          1           0        1.663101    3.931351    0.011307
     24          1           0        1.061350    3.942892    1.677762
     25          6           0        3.453250    0.110242    0.276816
     26          6           0        3.737318   -0.799514   -0.918858
     27          6           0        4.697609   -1.939775   -0.579093
     28          1           0        4.401174    0.525645    0.645974
     29          1           0        3.035524   -0.491067    1.095887
     30          1           0        4.154238   -0.195936   -1.735245
     31          1           0        2.788998   -1.211987   -1.286513
     32          1           0        4.285020   -2.566180    0.218396
     33          1           0        5.658017   -1.544356   -0.232885
     34          1           0        4.886773   -2.577721   -1.448059
 ---------------------------------------------------------------------

 SCF Done:  E(RHF) =  -669.535174031     A.U. after   15 cycles
 E2 =    -0.2093291565D+01 EUMP2 =    -0.67162846559595D+03

 The electronic state is 1-A.
 Alpha  occ. eigenvalues --  -20.60819 -20.60814 -15.85870 -11.31251 -11.27818
 Alpha  occ. eigenvalues --  -11.27811 -11.27555 -11.26836 -11.26811 -11.22472
 Alpha  occ. eigenvalues --  -11.22007 -11.21840 -11.21834 -11.21778 -11.21009
 Alpha  occ. eigenvalues --   -1.59892  -1.39445  -1.19426  -1.08975  -1.08811
 Alpha  occ. eigenvalues --   -1.04831  -1.03994  -0.96413  -0.95647  -0.87430
 Alpha  occ. eigenvalues --   -0.86224  -0.82486  -0.80095  -0.78766  -0.77517
 Alpha  occ. eigenvalues --   -0.72086  -0.71215  -0.70530  -0.65726  -0.65071
 Alpha  occ. eigenvalues --   -0.64787  -0.62160  -0.61389  -0.59820  -0.58018
 Alpha  occ. eigenvalues --   -0.55703  -0.55324  -0.53166  -0.53123  -0.52947
 Alpha  occ. eigenvalues --   -0.52778  -0.50361  -0.48850  -0.48840  -0.48375
 Alpha  occ. eigenvalues --   -0.47153  -0.46277  -0.46193  -0.44841  -0.44250
 Alpha  occ. eigenvalues --   -0.37402  -0.36394
 Alpha virt. eigenvalues --    0.04963   0.11147   0.16327   0.19212   0.23088
 Alpha virt. eigenvalues --    0.23510   0.24900   0.26550   0.27461   0.27888
 Alpha virt. eigenvalues --    0.29342   0.30341   0.31349   0.31439   0.32034

 Mulliken charges:
               1
     1  C   -0.173366
     2  C   -0.218270
     3  C   -0.171105
     4  C    0.157709
     5  C   -0.174240
     6  C   -0.223406
     7  H    0.226400
     8  H    0.223755
     9  H    0.275894
    10  H    0.276724
    11  H    0.234400
    12  N    0.488169
    13  O   -0.460249
    14  O   -0.460006
    15  C   -0.301112
    16  C   -0.299963
    17  C   -0.477401
    18  H    0.152291
    19  H    0.145388
    20  H    0.152181
    21  H    0.151823
    22  H    0.160768
    23  H    0.156445
    24  H    0.161669
    25  C   -0.299100
    26  C   -0.303409
    27  C   -0.475545
    28  H    0.153474
    29  H    0.147621
    30  H    0.157638
    31  H    0.141483
    32  H    0.151965
    33  H    0.159584
    34  H    0.161791
 Sum of Mulliken charges =  -0.00000

 Dipole moment (field-independent basis, Debye):
    X=              2.8824    Y=             -3.9596    Z=              1.6835  Tot=              5.1789
 Quadrupole moment (field-independent basis, Debye-Ang):
   XX=           -105.5670   YY=            -92.4178   ZZ=            -93.7880
   XY=             11.3439   XZ=             -7.5416   YZ=             -0.9984

 Normal termination of Gaussian 16 at Thu May  6 12:43:49 2021.
