 Gaussian 16, Revision A.03,
 Gaussian 16:  EM64L-G16RevA.03 25-Dec-2016

 -------------
 #p 6-31g* mp2
 -------------

 ------------------------------------------------------
 Input file generated by CHIRIPA (05-May-2021 14:55:24)
 ------------------------------------------------------
 Symbolic Z-matrix:
 Charge =  0 Multiplicity = 1

                         Standard orientation:
 ---------------------------------------------------------------------
 Center     Atomic      Atomic             Coordinates (Angstroms)
 Number     Number       Type             X           Y           Z
 ---------------------------------------------------------------------
      1          6           0       -5.011545   -2.026335   -0.044826
      2          6           0       -3.633922   -2.075113   -0.282092
      3          6           0       -2.876283   -0.900490   -0.310273
      4          6           0       -3.531660    0.311097   -0.096204
      5          6           0       -4.902645    0.392405    0.142709
      6          6           0       -5.640401   -0.794903    0.166445
      7          1           0       -5.592375   -2.943737   -0.024660
      8          1           0       -3.142877   -3.030042   -0.446499
      9          1           0       -1.808383   -0.909391   -0.491734
     10          1           0       -5.364044    1.359256    0.303114
     11          1           0       -6.710136   -0.753996    0.350943
     12          7           0       -2.740106    1.561332   -0.123685
     13          8           0       -3.341218    2.616139    0.067851
     14          8           0       -1.533563    1.462787   -0.336240
     15          6           0        4.017747    0.230482    0.076507
     16          6           0        2.841340   -0.602301    0.586925
     17          6           0        1.508303    0.141366    0.498801
     18          1           0        4.077279    1.162542    0.655008
     19          1           0        3.827222    0.521208   -0.965881
     20          1           0        3.034663   -0.892536    1.627601
     21          1           0        2.784717   -1.532574    0.007268
     22          1           0        1.288950    0.417397   -0.537680
     23          1           0        1.540314    1.061072    1.091860
     24          1           0        0.681026   -0.472284    0.868807
     25          6           0        5.357276   -0.499393    0.158181
     26          6           0        6.533682    0.333390   -0.352238
     27          6           0        7.866719   -0.410278   -0.264113
     28          1           0        5.547800   -0.790120    1.200569
     29          1           0        5.297742   -1.431454   -0.420321
     30          1           0        6.590305    1.263662    0.227419
     31          1           0        6.340360    0.623624   -1.392914
     32          1           0        7.834708   -1.329983   -0.857172
     33          1           0        8.086072   -0.686309    0.772367
     34          1           0        8.693997    0.203372   -0.634119
 ---------------------------------------------------------------------

 SCF Done:  E(RHF) =  -669.535541316     A.U. after   15 cycles
 E2 =    -0.2091227677D+01 EUMP2 =    -0.67162676899260D+03

 The electronic state is 1-A.
 Alpha  occ. eigenvalues --  -20.60782 -20.60774 -15.85822 -11.31196 -11.27768
 Alpha  occ. eigenvalues --  -11.27754 -11.27516 -11.26789 -11.26778 -11.21277
 Alpha  occ. eigenvalues --  -11.21038 -11.21018 -11.20872 -11.20818 -11.20177
 Alpha  occ. eigenvalues --   -1.59851  -1.39404  -1.19371  -1.08767  -1.07988
 Alpha  occ. eigenvalues --   -1.04775  -1.03048  -0.95622  -0.95447  -0.86473
 Alpha  occ. eigenvalues --   -0.86172  -0.82431  -0.79113  -0.77805  -0.77452
 Alpha  occ. eigenvalues --   -0.72040  -0.71170  -0.70480  -0.65025  -0.64782
 Alpha  occ. eigenvalues --   -0.64624  -0.62127  -0.60445  -0.58876  -0.57095
 Alpha  occ. eigenvalues --   -0.55279  -0.54746  -0.53105  -0.52881  -0.52159
 Alpha  occ. eigenvalues --   -0.51868  -0.49405  -0.48809  -0.48777  -0.47407
 Alpha  occ. eigenvalues --   -0.46153  -0.45328  -0.45262  -0.44803  -0.43292
 Alpha  occ. eigenvalues --   -0.37355  -0.36379
 Alpha virt. eigenvalues --    0.05036   0.11253   0.16528   0.21087   0.23234
 Alpha virt. eigenvalues --    0.24334   0.26678   0.27105   0.27693   0.27924
 Alpha virt. eigenvalues --    0.29239   0.30766   0.31611   0.31953   0.32247

 Mulliken charges:
               1
     1  C   -0.170651
     2  C   -0.219248
     3  C   -0.173501
     4  C    0.157401
     5  C   -0.170821
     6  C   -0.218639
     7  H    0.225596
     8  H    0.223638
     9  H    0.280093
    10  H    0.275587
    11  H    0.223452
    12  N    0.491600
    13  O   -0.460501
    14  O   -0.462145
    15  C   -0.297881
    16  C   -0.302321
    17  C   -0.468415
    18  H    0.151225
    19  H    0.150308
    20  H    0.148569
    21  H    0.145370
    22  H    0.163741
    23  H    0.161496
    24  H    0.149670
    25  C   -0.297603
    26  C   -0.299416
    27  C   -0.475426
    28  H    0.148382
    29  H    0.147571
    30  H    0.152476
    31  H    0.152017
    32  H    0.154125
    33  H    0.154559
    34  H    0.159690
 Sum of Mulliken charges =  -0.00000

 Dipole moment (field-independent basis, Debye):
    X=             -2.9244    Y=             -4.2625    Z=              0.0672  Tot=              5.1697
 Quadrupole moment (field-independent basis, Debye-Ang):
   XX=            -73.5430   YY=            -96.6447   ZZ=            -94.6581
   XY=             13.2379   XZ=             -0.8956   YZ=              1.4691

 Normal termination of Gaussian 16 at Thu May  6 06:20:44 2021.
