 Gaussian 16, Revision A.03,
 Gaussian 16:  EM64L-G16RevA.03 25-Dec-2016

 -------------
 #p 6-31g* mp2
 -------------

 ------------------------------------------------------
 Input file generated by CHIRIPA (05-May-2021 14:53:13)
 ------------------------------------------------------
 Symbolic Z-matrix:
 Charge =  0 Multiplicity = 1

                         Standard orientation:
 ---------------------------------------------------------------------
 Center     Atomic      Atomic             Coordinates (Angstroms)
 Number     Number       Type             X           Y           Z
 ---------------------------------------------------------------------
      1          6           0        5.093907    0.402984    0.272541
      2          6           0        5.640561    1.124720   -0.959632
      3          6           0        6.761918    2.107159   -0.620266
      4          1           0        4.726109    1.147016    0.992323
      5          1           0        5.914578   -0.133136    0.768997
      6          1           0        4.818835    1.658191   -1.454395
      7          1           0        6.006925    0.378876   -1.676647
      8          1           0        7.600434    1.586129   -0.146959
      9          1           0        6.405593    2.872713    0.076556
     10          1           0        7.138005    2.611969   -1.515579
     11          6           0        3.972269   -0.582541   -0.050565
     12          6           0        3.425614   -1.304278    1.181608
     13          6           0        2.304258   -2.286716    0.842242
     14          1           0        3.151597   -0.046421   -0.547021
     15          1           0        4.340066   -1.326573   -0.770347
     16          1           0        3.059250   -0.558434    1.898623
     17          1           0        4.247341   -1.837748    1.676371
     18          1           0        2.660583   -3.052270    0.145420
     19          1           0        1.465742   -1.765687    0.368935
     20          1           0        1.928171   -2.791526    1.737555
     21          6           0       -5.220776    1.884554    0.417047
     22          6           0       -3.969457    1.895770    1.042023
     23          6           0       -3.031199    0.895529    0.770478
     24          6           0       -3.379126   -0.105272   -0.135410
     25          6           0       -4.617596   -0.143880   -0.774155
     26          6           0       -5.540288    0.866560   -0.487453
     27          1           0       -5.943592    2.665527    0.633876
     28          1           0       -3.718584    2.685114    1.744907
     29          1           0       -2.055189    0.880006    1.240140
     30          1           0       -4.838841   -0.943846   -1.470230
     31          1           0       -6.511315    0.855312   -0.974305
     32          7           0       -2.394073   -1.169580   -0.430906
     33          8           0       -2.724944   -2.040218   -1.232873
     34          8           0       -1.309770   -1.112994    0.145046
 ---------------------------------------------------------------------

 SCF Done:  E(RHF) =  -669.536008801     A.U. after   15 cycles
 E2 =    -0.2090688827D+01 EUMP2 =    -0.67162669762736D+03

 The electronic state is 1-A.
 Alpha  occ. eigenvalues --  -20.60930 -20.60925 -15.85972 -11.31296 -11.27861
 Alpha  occ. eigenvalues --  -11.27856 -11.27598 -11.26869 -11.26859 -11.21127
 Alpha  occ. eigenvalues --  -11.20788 -11.20709 -11.20606 -11.20536 -11.19521
 Alpha  occ. eigenvalues --   -1.59994  -1.39550  -1.19465  -1.08868  -1.07701
 Alpha  occ. eigenvalues --   -1.04862  -1.02719  -0.95711  -0.95138  -0.86263
 Alpha  occ. eigenvalues --   -0.86146  -0.82544  -0.78813  -0.77599  -0.77476
 Alpha  occ. eigenvalues --   -0.72197  -0.71310  -0.70574  -0.65122  -0.64865
 Alpha  occ. eigenvalues --   -0.64340  -0.62210  -0.60113  -0.58580  -0.56751
 Alpha  occ. eigenvalues --   -0.55366  -0.54412  -0.53194  -0.52954  -0.51827
 Alpha  occ. eigenvalues --   -0.51555  -0.49200  -0.48944  -0.48807  -0.47095
 Alpha  occ. eigenvalues --   -0.45851  -0.45024  -0.44980  -0.44889  -0.42986
 Alpha  occ. eigenvalues --   -0.37444  -0.36464
 Alpha virt. eigenvalues --    0.04934   0.11191   0.16430   0.21315   0.23538
 Alpha virt. eigenvalues --    0.25172   0.27241   0.27344   0.28099   0.28236
 Alpha virt. eigenvalues --    0.28976   0.30882   0.32163   0.32392   0.32547

 Mulliken charges:
               1
     1  C   -0.297371
     2  C   -0.299022
     3  C   -0.475177
     4  H    0.146990
     5  H    0.148162
     6  H    0.151084
     7  H    0.151932
     8  H    0.154648
     9  H    0.153604
    10  H    0.158727
    11  C   -0.297848
    12  C   -0.298910
    13  C   -0.483944
    14  H    0.151086
    15  H    0.149076
    16  H    0.147191
    17  H    0.146908
    18  H    0.150508
    19  H    0.182866
    20  H    0.156129
    21  C   -0.170619
    22  C   -0.218521
    23  C   -0.170845
    24  C    0.157507
    25  C   -0.170451
    26  C   -0.218592
    27  H    0.225994
    28  H    0.223794
    29  H    0.275521
    30  H    0.275939
    31  H    0.223832
    32  N    0.493468
    33  O   -0.458726
    34  O   -0.464940
 Sum of Mulliken charges =  -0.00000

 Dipole moment (field-independent basis, Debye):
    X=             -3.7999    Y=              3.7271    Z=              0.9741  Tot=              5.4110
 Quadrupole moment (field-independent basis, Debye-Ang):
   XX=            -70.8081   YY=            -95.4058   ZZ=            -93.7610
   XY=            -12.1371   XZ=             -1.0643   YZ=              1.2244

 Normal termination of Gaussian 16 at Thu May  6 02:35:16 2021.
