 Gaussian 16, Revision A.03,
 Gaussian 16:  EM64L-G16RevA.03 25-Dec-2016

 -------------
 #p 6-31g* mp2
 -------------

 ------------------------------------------------------
 Input file generated by CHIRIPA (05-May-2021 14:57:23)
 ------------------------------------------------------
 Symbolic Z-matrix:
 Charge =  0 Multiplicity = 1

                         Standard orientation:
 ---------------------------------------------------------------------
 Center     Atomic      Atomic             Coordinates (Angstroms)
 Number     Number       Type             X           Y           Z
 ---------------------------------------------------------------------
      1          6           0        2.238853    2.402623    1.197508
      2          6           0        3.377138    2.361720    0.385624
      3          6           0        3.790361    1.160271   -0.197741
      4          6           0        3.038369    0.013596    0.053126
      5          6           0        1.899767    0.022149    0.857366
      6          6           0        1.505095    1.234766    1.430378
      7          1           0        1.925057    3.340275    1.646659
      8          1           0        3.948920    3.267132    0.203031
      9          1           0        4.667610    1.100195   -0.830387
     10          1           0        1.350183   -0.896870    1.021010
     11          1           0        0.620672    1.263553    2.060467
     12          7           0        3.466010   -1.264236   -0.558976
     13          8           0        2.786284   -2.260562   -0.322450
     14          8           0        4.472824   -1.245279   -1.263678
     15          6           0       -2.048523   -2.426839    0.663955
     16          6           0       -3.285666   -1.968732    1.128861
     17          6           0       -3.804803   -0.749798    0.682496
     18          6           0       -3.056769   -0.011254   -0.233086
     19          6           0       -1.821191   -0.440782   -0.714897
     20          6           0       -1.321516   -1.662749   -0.254821
     21          1           0       -1.652804   -3.374915    1.016027
     22          1           0       -3.852460   -2.560032    1.842410
     23          1           0       -4.759926   -0.371416    1.025986
     24          1           0       -1.279278    0.170814   -1.426021
     25          1           0       -0.360459   -2.016032   -0.617595
     26          7           0       -3.596056    1.280783   -0.712890
     27          8           0       -2.917537    1.912731   -1.519668
     28          8           0       -4.687056    1.637067   -0.273097
 ---------------------------------------------------------------------

 SCF Done:  E(RHF) =  -868.339630501     A.U. after   16 cycles
 E2 =    -0.2600584219D+01 EUMP2 =    -0.87094021472035D+03

 The electronic state is 1-A.
 Alpha  occ. eigenvalues --  -20.61513 -20.61450 -20.61040 -20.61035 -15.86505
 Alpha  occ. eigenvalues --  -15.86090 -11.31625 -11.31422 -11.28164 -11.28129
 Alpha  occ. eigenvalues --  -11.27990 -11.27945 -11.27795 -11.27649 -11.27092
 Alpha  occ. eigenvalues --  -11.27076 -11.26969 -11.26821  -1.60540  -1.60120
 Alpha  occ. eigenvalues --   -1.40107  -1.39672  -1.19767  -1.19583  -1.09191
 Alpha  occ. eigenvalues --   -1.08969  -1.05145  -1.04942  -0.96072  -0.95810
 Alpha  occ. eigenvalues --   -0.86554  -0.86324  -0.82913  -0.82632  -0.78035
 Alpha  occ. eigenvalues --   -0.77670  -0.72729  -0.72302  -0.71851  -0.71451
 Alpha  occ. eigenvalues --   -0.70856  -0.70637  -0.65413  -0.65215  -0.65183
 Alpha  occ. eigenvalues --   -0.64831  -0.62570  -0.62176  -0.55609  -0.55405
 Alpha  occ. eigenvalues --   -0.53548  -0.53336  -0.53177  -0.52915  -0.49505
 Alpha  occ. eigenvalues --   -0.49448  -0.49064  -0.49055  -0.45553  -0.45084
 Alpha  occ. eigenvalues --   -0.37719  -0.37558  -0.36989  -0.36302
 Alpha virt. eigenvalues --    0.04387   0.04894   0.10666   0.11163   0.15965
 Alpha virt. eigenvalues --    0.16370   0.20871   0.21693   0.26529   0.27371
 Alpha virt. eigenvalues --    0.28055   0.28601   0.30443   0.31274   0.31858

 Mulliken charges:
               1
     1  C   -0.168711
     2  C   -0.217916
     3  C   -0.170428
     4  C    0.157268
     5  C   -0.176109
     6  C   -0.218821
     7  H    0.229860
     8  H    0.226139
     9  H    0.276475
    10  H    0.271468
    11  H    0.227053
    12  N    0.489272
    13  O   -0.470461
    14  O   -0.454838
    15  C   -0.174769
    16  C   -0.219105
    17  C   -0.172196
    18  C    0.156301
    19  C   -0.173276
    20  C   -0.235867
    21  H    0.231152
    22  H    0.224308
    23  H    0.275565
    24  H    0.277503
    25  H    0.243407
    26  N    0.487716
    27  O   -0.460427
    28  O   -0.460563
 Sum of Mulliken charges =  -0.00000

 Dipole moment (field-independent basis, Debye):
    X=              0.5174    Y=              0.0715    Z=              3.8390  Tot=              3.8744
 Quadrupole moment (field-independent basis, Debye-Ang):
   XX=           -119.5320   YY=           -104.0145   ZZ=           -103.8933
   XY=             31.0247   XZ=             -3.7880   YZ=             -0.0432

 Normal termination of Gaussian 16 at Thu May  6 06:37:05 2021.
