 Gaussian 16, Revision A.03,
 Gaussian 16:  EM64L-G16RevA.03 25-Dec-2016

 -------------
 #p 6-31g* mp2
 -------------

 ------------------------------------------------------
 Input file generated by CHIRIPA (05-May-2021 14:53:13)
 ------------------------------------------------------
 Symbolic Z-matrix:
 Charge =  0 Multiplicity = 1

                         Standard orientation:
 ---------------------------------------------------------------------
 Center     Atomic      Atomic             Coordinates (Angstroms)
 Number     Number       Type             X           Y           Z
 ---------------------------------------------------------------------
      1          6           0       -4.320640   -0.060485    0.057150
      2          6           0       -4.390430    0.035318   -1.467296
      3          6           0       -5.778221    0.431973   -1.971770
      4          1           0       -5.062229   -0.791859    0.406555
      5          1           0       -4.607086    0.907166    0.491885
      6          1           0       -4.102601   -0.931817   -1.899059
      7          1           0       -3.648456    0.766408   -1.813126
      8          1           0       -6.070559    1.406940   -1.568560
      9          1           0       -6.527284   -0.300934   -1.654981
     10          1           0       -5.805570    0.494561   -3.064104
     11          6           0       -2.939596   -0.456099    0.576704
     12          6           0       -2.869805   -0.551902    2.101150
     13          6           0       -1.482014   -0.948557    2.605624
     14          1           0       -2.653149   -1.423750    0.141970
     15          1           0       -2.198006    0.275275    0.227300
     16          1           0       -3.611779   -1.282992    2.446980
     17          1           0       -3.157634    0.415233    2.532914
     18          1           0       -0.732951   -0.215650    2.288836
     19          1           0       -1.189676   -1.923524    2.202414
     20          1           0       -1.454665   -1.011145    3.697959
     21          6           0        1.790705    2.425331    0.326063
     22          6           0        0.978670    1.327289    0.023700
     23          6           0        1.546948    0.090490   -0.295576
     24          6           0        2.937087   -0.013173   -0.303059
     25          6           0        3.772887    1.062317   -0.006325
     26          6           0        3.182768    2.289580    0.310113
     27          1           0        1.340769    3.382402    0.572982
     28          1           0       -0.102720    1.429793    0.035309
     29          1           0        0.941899   -0.775915   -0.533642
     30          1           0        4.847758    0.929350   -0.026093
     31          1           0        3.815879    3.140622    0.544514
     32          7           0        3.550259   -1.317468   -0.639561
     33          8           0        4.777601   -1.382806   -0.639234
     34          8           0        2.791911   -2.249741   -0.897266
 ---------------------------------------------------------------------

 SCF Done:  E(RHF) =  -669.535451006     A.U. after   15 cycles
 E2 =    -0.2092168103D+01 EUMP2 =    -0.67162761910877D+03

 The electronic state is 1-A.
 Alpha  occ. eigenvalues --  -20.60739 -20.60733 -15.85793 -11.31160 -11.27749
 Alpha  occ. eigenvalues --  -11.27730 -11.27496 -11.26759 -11.26735 -11.22235
 Alpha  occ. eigenvalues --  -11.22171 -11.22137 -11.21983 -11.21529 -11.21494
 Alpha  occ. eigenvalues --   -1.59814  -1.39367  -1.19345  -1.09074  -1.08739
 Alpha  occ. eigenvalues --   -1.04752  -1.04074  -0.96526  -0.95570  -0.87536
 Alpha  occ. eigenvalues --   -0.86149  -0.82410  -0.80139  -0.78922  -0.77438
 Alpha  occ. eigenvalues --   -0.72012  -0.71136  -0.70452  -0.65766  -0.64996
 Alpha  occ. eigenvalues --   -0.64728  -0.62129  -0.61437  -0.59888  -0.58143
 Alpha  occ. eigenvalues --   -0.55830  -0.55256  -0.53177  -0.53147  -0.52938
 Alpha  occ. eigenvalues --   -0.52797  -0.50467  -0.48776  -0.48765  -0.48442
 Alpha  occ. eigenvalues --   -0.47172  -0.46431  -0.46349  -0.44772  -0.44361
 Alpha  occ. eigenvalues --   -0.37328  -0.36327
 Alpha virt. eigenvalues --    0.05070   0.11267   0.16438   0.19379   0.22772
 Alpha virt. eigenvalues --    0.23832   0.24873   0.26226   0.27399   0.28359
 Alpha virt. eigenvalues --    0.29414   0.30339   0.31360   0.31488   0.31786

 Mulliken charges:
               1
     1  C   -0.297969
     2  C   -0.299971
     3  C   -0.476074
     4  H    0.153540
     5  H    0.149205
     6  H    0.154884
     7  H    0.148219
     8  H    0.154940
     9  H    0.157026
    10  H    0.162167
    11  C   -0.303852
    12  C   -0.299932
    13  C   -0.481098
    14  H    0.154365
    15  H    0.139498
    16  H    0.156078
    17  H    0.150893
    18  H    0.153177
    19  H    0.159876
    20  H    0.163563
    21  C   -0.172378
    22  C   -0.224550
    23  C   -0.171930
    24  C    0.158268
    25  C   -0.170621
    26  C   -0.218661
    27  H    0.226014
    28  H    0.231930
    29  H    0.277125
    30  H    0.275650
    31  H    0.223355
    32  N    0.488215
    33  O   -0.460683
    34  O   -0.460272
 Sum of Mulliken charges =  -0.00000

 Dipole moment (field-independent basis, Debye):
    X=             -2.2869    Y=              4.5032    Z=              1.2051  Tot=              5.1924
 Quadrupole moment (field-independent basis, Debye-Ang):
   XX=           -103.4969   YY=            -93.6076   ZZ=            -96.3398
   XY=             16.5574   XZ=              4.3242   YZ=             -1.0198

 Normal termination of Gaussian 16 at Thu May  6 15:23:05 2021.
