 Gaussian 16, Revision A.03,
 Gaussian 16:  EM64L-G16RevA.03 25-Dec-2016

 -------------
 #p 6-31g* mp2
 -------------

 ------------------------------------------------------
 Input file generated by CHIRIPA (05-May-2021 14:53:17)
 ------------------------------------------------------
 Symbolic Z-matrix:
 Charge =  0 Multiplicity = 1

                         Standard orientation:
 ---------------------------------------------------------------------
 Center     Atomic      Atomic             Coordinates (Angstroms)
 Number     Number       Type             X           Y           Z
 ---------------------------------------------------------------------
      1          6           0       -2.726328    0.550291    0.333998
      2          6           0       -2.976577    1.867516    1.069036
      3          6           0       -1.682332    2.585419    1.452883
      4          1           0       -2.115605   -0.106195    0.968813
      5          1           0       -2.134517    0.749663   -0.570106
      6          1           0       -3.568918    1.665900    1.970756
      7          1           0       -3.586935    2.520868    0.432475
      8          1           0       -1.090248    2.815272    0.561140
      9          1           0       -1.072129    1.955447    2.108161
     10          1           0       -1.884511    3.524588    1.977236
     11          6           0       -4.010592   -0.179105   -0.056354
     12          6           0       -3.760343   -1.496330   -0.791391
     13          6           0       -5.054588   -2.214233   -1.175238
     14          1           0       -4.602403   -0.378477    0.847751
     15          1           0       -4.621315    0.477381   -0.691168
     16          1           0       -3.149984   -2.149682   -0.154831
     17          1           0       -3.168002   -1.294715   -1.693111
     18          1           0       -5.664791   -1.584261   -1.830516
     19          1           0       -5.646671   -2.444087   -0.283495
     20          1           0       -4.852408   -3.153402   -1.699591
     21          6           0        3.078287   -2.305077    1.116471
     22          6           0        4.082571   -1.721872    0.336852
     23          6           0        3.846254   -0.525162   -0.346219
     24          6           0        2.588426    0.063835   -0.226877
     25          6           0        1.567474   -0.492672    0.542049
     26          6           0        1.826151   -1.689701    1.216405
     27          1           0        3.270549   -3.234834    1.643711
     28          1           0        5.055949   -2.197552    0.257413
     29          1           0        4.605773   -0.051997   -0.956679
     30          1           0        0.607194    0.005015    0.601967
     31          1           0        1.044328   -2.140354    1.821143
     32          7           0        2.326412    1.330907   -0.945399
     33          8           0        1.209794    1.829968   -0.823988
     34          8           0        3.242623    1.800985   -1.616384
 ---------------------------------------------------------------------

 SCF Done:  E(RHF) =  -669.536101552     A.U. after   15 cycles
 E2 =    -0.2092191753D+01 EUMP2 =    -0.67162829330521D+03

 The electronic state is 1-A.
 Alpha  occ. eigenvalues --  -20.60842 -20.60830 -15.85882 -11.31173 -11.27755
 Alpha  occ. eigenvalues --  -11.27699 -11.27495 -11.26758 -11.26740 -11.21665
 Alpha  occ. eigenvalues --  -11.21387 -11.21336 -11.21286 -11.21121 -11.20439
 Alpha  occ. eigenvalues --   -1.59905  -1.39461  -1.19349  -1.08762  -1.08352
 Alpha  occ. eigenvalues --   -1.04743  -1.03368  -0.95805  -0.95603  -0.86816
 Alpha  occ. eigenvalues --   -0.86145  -0.82444  -0.79448  -0.78221  -0.77456
 Alpha  occ. eigenvalues --   -0.72114  -0.71219  -0.70462  -0.65042  -0.64948
 Alpha  occ. eigenvalues --   -0.64748  -0.62094  -0.60752  -0.59199  -0.57418
 Alpha  occ. eigenvalues --   -0.55257  -0.55072  -0.53078  -0.52844  -0.52478
 Alpha  occ. eigenvalues --   -0.52221  -0.49735  -0.48877  -0.48852  -0.47724
 Alpha  occ. eigenvalues --   -0.46470  -0.45739  -0.45566  -0.44869  -0.43652
 Alpha  occ. eigenvalues --   -0.37336  -0.36343
 Alpha virt. eigenvalues --    0.05021   0.11296   0.16519   0.20261   0.23058
 Alpha virt. eigenvalues --    0.23851   0.25801   0.26925   0.27684   0.28185
 Alpha virt. eigenvalues --    0.29689   0.30956   0.31451   0.31771   0.32334

 Mulliken charges:
               1
     1  C   -0.302742
     2  C   -0.299005
     3  C   -0.485336
     4  H    0.135335
     5  H    0.162369
     6  H    0.148105
     7  H    0.154013
     8  H    0.184539
     9  H    0.143597
    10  H    0.158624
    11  C   -0.297623
    12  C   -0.299323
    13  C   -0.475611
    14  H    0.148286
    15  H    0.152472
    16  H    0.146169
    17  H    0.154557
    18  H    0.156821
    19  H    0.154495
    20  H    0.159595
    21  C   -0.170281
    22  C   -0.219138
    23  C   -0.170121
    24  C    0.156617
    25  C   -0.177365
    26  C   -0.220958
    27  H    0.225519
    28  H    0.223343
    29  H    0.275376
    30  H    0.287619
    31  H    0.223233
    32  N    0.492929
    33  O   -0.466418
    34  O   -0.459693
 Sum of Mulliken charges =  -0.00000

 Dipole moment (field-independent basis, Debye):
    X=              0.9604    Y=             -4.3088    Z=              2.3605  Tot=              5.0060
 Quadrupole moment (field-independent basis, Debye-Ang):
   XX=            -86.4657   YY=            -95.8856   ZZ=            -95.5647
   XY=            -12.5397   XZ=              4.5848   YZ=              0.2494

 Normal termination of Gaussian 16 at Thu May  6 09:05:54 2021.
