 Gaussian 16, Revision A.03,
 Gaussian 16:  EM64L-G16RevA.03 25-Dec-2016

 -------------
 #p 6-31g* mp2
 -------------

 ------------------------------------------------------
 Input file generated by CHIRIPA (05-May-2021 14:51:07)
 ------------------------------------------------------
 Symbolic Z-matrix:
 Charge =  0 Multiplicity = 1

                         Standard orientation:
 ---------------------------------------------------------------------
 Center     Atomic      Atomic             Coordinates (Angstroms)
 Number     Number       Type             X           Y           Z
 ---------------------------------------------------------------------
      1          6           0       -3.586014    0.104222   -0.147079
      2          6           0       -3.038411    1.356476   -0.832627
      3          6           0       -1.524630    1.502684   -0.674883
      4          1           0       -3.328548    0.136086    0.920461
      5          1           0       -3.085861   -0.781388   -0.562936
      6          1           0       -3.540443    2.239359   -0.416578
      7          1           0       -3.297376    1.321720   -1.898622
      8          1           0       -1.007189    0.639969   -1.106832
      9          1           0       -1.251636    1.562822    0.383634
     10          1           0       -1.154374    2.404433   -1.172496
     11          6           0       -5.097949   -0.055834   -0.295945
     12          6           0       -5.645552   -1.308088    0.389603
     13          6           0       -7.159333   -1.454296    0.231859
     14          1           0       -5.598102    0.829775    0.119912
     15          1           0       -5.355415   -0.087698   -1.363485
     16          1           0       -5.386587   -1.273332    1.455598
     17          1           0       -5.143520   -2.190972   -0.026447
     18          1           0       -7.432327   -1.514435   -0.826658
     19          1           0       -7.676774   -0.591582    0.663807
     20          1           0       -7.529589   -2.356046    0.729472
     21          6           0        3.712512   -0.004412    0.653726
     22          6           0        2.828604    1.213375    0.382276
     23          6           0        1.573160    1.238835    1.254633
     24          1           0        3.127882   -0.918970    0.484204
     25          1           0        4.001372   -0.010102    1.713879
     26          1           0        2.542634    1.217521   -0.677357
     27          1           0        3.415462    2.125138    0.552278
     28          1           0        1.841751    1.259033    2.315788
     29          1           0        0.963963    0.346258    1.079168
     30          1           0        0.955789    2.117702    1.044149
     31          6           0        4.971451   -0.043975   -0.210702
     32          6           0        5.855358   -1.261763    0.060749
     33          6           0        7.110803   -1.287222   -0.811608
     34          1           0        4.682592   -0.038286   -1.270854
     35          1           0        5.556081    0.870582   -0.041181
     36          1           0        5.268500   -2.173526   -0.109254
     37          1           0        6.141330   -1.265909    1.120380
     38          1           0        7.719999   -0.394646   -0.636143
     39          1           0        6.842211   -1.307421   -1.872765
     40          1           0        7.728174   -2.166091   -0.601126
 ---------------------------------------------------------------------

 SCF Done:  E(RHF) =  -470.732211595     A.U. after   11 cycles
 E2 =    -0.1582783764D+01 EUMP2 =    -0.47231499535904D+03

 The electronic state is 1-A.
 Alpha  occ. eigenvalues --  -11.21590 -11.21576 -11.21543 -11.21524 -11.21385
 Alpha  occ. eigenvalues --  -11.21363 -11.21325 -11.21302 -11.21062 -11.21052
 Alpha  occ. eigenvalues --  -11.20959 -11.20913  -1.08409  -1.08377  -1.03534
 Alpha  occ. eigenvalues --   -1.03440  -0.96041  -0.95840  -0.87114  -0.86809
 Alpha  occ. eigenvalues --   -0.79671  -0.79441  -0.78228  -0.78186  -0.65040
 Alpha  occ. eigenvalues --   -0.65012  -0.60937  -0.60862  -0.59366  -0.59275
 Alpha  occ. eigenvalues --   -0.57590  -0.57522  -0.55316  -0.55168  -0.52881
 Alpha  occ. eigenvalues --   -0.52601  -0.52325  -0.52178  -0.49962  -0.49766
 Alpha  occ. eigenvalues --   -0.47865  -0.47842  -0.46645  -0.46502  -0.45781
 Alpha  occ. eigenvalues --   -0.45711  -0.45692  -0.45634  -0.43795  -0.43641
 Alpha virt. eigenvalues --    0.22338   0.22960   0.23636   0.24752   0.26526
 Alpha virt. eigenvalues --    0.26583   0.27217   0.27430   0.27682   0.29305
 Alpha virt. eigenvalues --    0.30289   0.31431   0.31499   0.32158   0.32214

 Mulliken charges:
               1
     1  C   -0.298334
     2  C   -0.300378
     3  C   -0.476996
     4  H    0.149775
     5  H    0.149008
     6  H    0.151525
     7  H    0.151211
     8  H    0.154141
     9  H    0.161223
    10  H    0.158772
    11  C   -0.298178
    12  C   -0.299627
    13  C   -0.475689
    14  H    0.149518
    15  H    0.149593
    16  H    0.151964
    17  H    0.151795
    18  H    0.155137
    19  H    0.155184
    20  H    0.160201
    21  C   -0.298480
    22  C   -0.300252
    23  C   -0.477382
    24  H    0.149458
    25  H    0.149371
    26  H    0.152482
    27  H    0.151392
    28  H    0.153233
    29  H    0.156768
    30  H    0.163987
    31  C   -0.298235
    32  C   -0.299588
    33  C   -0.475667
    34  H    0.149401
    35  H    0.149567
    36  H    0.151824
    37  H    0.151872
    38  H    0.155144
    39  H    0.155114
    40  H    0.160146
 Sum of Mulliken charges =  -0.00000

 Dipole moment (field-independent basis, Debye):
    X=             -0.0048    Y=              0.0133    Z=              0.0125  Tot=              0.0189
 Quadrupole moment (field-independent basis, Debye-Ang):
   XX=            -86.8671   YY=            -84.3139   ZZ=            -83.8988
   XY=              0.0967   XZ=              0.6594   YZ=              0.7936

 Normal termination of Gaussian 16 at Wed May  5 15:01:04 2021.
