 Gaussian 16, Revision A.03,
 Gaussian 16:  EM64L-G16RevA.03 25-Dec-2016

 -------------
 #p 6-31g* mp2
 -------------

 ------------------------------------------------------
 Input file generated by CHIRIPA (05-May-2021 14:53:17)
 ------------------------------------------------------
 Symbolic Z-matrix:
 Charge =  0 Multiplicity = 1

                         Standard orientation:
 ---------------------------------------------------------------------
 Center     Atomic      Atomic             Coordinates (Angstroms)
 Number     Number       Type             X           Y           Z
 ---------------------------------------------------------------------
      1          6           0       -3.211323   -0.113367   -0.419664
      2          6           0       -1.934474    0.182900    0.367653
      3          6           0       -0.665214   -0.090854   -0.439709
      4          1           0       -3.199932   -1.163306   -0.742840
      5          1           0       -3.219191    0.495205   -1.334526
      6          1           0       -1.929678   -0.425028    1.281445
      7          1           0       -1.948995    1.232205    0.689156
      8          1           0       -0.643164    0.526158   -1.343817
      9          1           0       -0.623738   -1.140491   -0.748163
     10          1           0        0.235647    0.127608    0.142170
     11          6           0       -4.488598    0.155430    0.374090
     12          6           0       -5.765447   -0.140837   -0.413226
     13          6           0       -7.034706    0.132917    0.394136
     14          1           0       -4.480730   -0.453142    1.288953
     15          1           0       -4.499988    1.205369    0.697267
     16          1           0       -5.750926   -1.190142   -0.734730
     17          1           0       -5.770242    0.467091   -1.327019
     18          1           0       -7.076182    1.182554    0.702589
     19          1           0       -7.056756   -0.484095    1.298243
     20          1           0       -7.935567   -0.085545   -0.187744
     21          6           0        3.129496    2.503152   -0.035237
     22          6           0        2.944039    1.786160   -1.221850
     23          6           0        2.875095    0.389919   -1.204366
     24          6           0        2.996014   -0.260015    0.022930
     25          6           0        3.181479    0.426198    1.222098
     26          6           0        3.247417    1.822083    1.180806
     27          1           0        3.181886    3.587647   -0.058067
     28          1           0        2.852143    2.312440   -2.167699
     29          1           0        2.732129   -0.189985   -2.108074
     30          1           0        3.269741   -0.126327    2.149646
     31          1           0        3.391509    2.376304    2.103910
     32          7           0        2.924619   -1.737964    0.054042
     33          8           0        3.033972   -2.286999    1.148227
     34          8           0        2.760657   -2.319361   -1.016347
 ---------------------------------------------------------------------

 SCF Done:  E(RHF) =  -669.534385456     A.U. after   15 cycles
 E2 =    -0.2093213641D+01 EUMP2 =    -0.67162759909783D+03

 The electronic state is 1-A.
 Alpha  occ. eigenvalues --  -20.60769 -20.60760 -15.85810 -11.31142 -11.27773
 Alpha  occ. eigenvalues --  -11.27726 -11.27529 -11.26810 -11.26776 -11.21530
 Alpha  occ. eigenvalues --  -11.21478 -11.21312 -11.21243 -11.21019 -11.20841
 Alpha  occ. eigenvalues --   -1.59835  -1.39390  -1.19385  -1.08769  -1.08331
 Alpha  occ. eigenvalues --   -1.04781  -1.03429  -0.95889  -0.95593  -0.86914
 Alpha  occ. eigenvalues --   -0.86171  -0.82430  -0.79508  -0.78149  -0.77472
 Alpha  occ. eigenvalues --   -0.72036  -0.71165  -0.70480  -0.65026  -0.64961
 Alpha  occ. eigenvalues --   -0.64782  -0.62123  -0.60824  -0.59327  -0.57530
 Alpha  occ. eigenvalues --   -0.55283  -0.55167  -0.53628  -0.52869  -0.52337
 Alpha  occ. eigenvalues --   -0.51990  -0.49815  -0.48795  -0.48790  -0.47809
 Alpha  occ. eigenvalues --   -0.46530  -0.45692  -0.45616  -0.44786  -0.43686
 Alpha  occ. eigenvalues --   -0.37289  -0.36366
 Alpha virt. eigenvalues --    0.05052   0.11219   0.16521   0.21387   0.22958
 Alpha virt. eigenvalues --    0.24384   0.26737   0.27179   0.27620   0.27929
 Alpha virt. eigenvalues --    0.28420   0.30873   0.31530   0.31878   0.31972

 Mulliken charges:
               1
     1  C   -0.298631
     2  C   -0.298978
     3  C   -0.483180
     4  H    0.152399
     5  H    0.147411
     6  H    0.153806
     7  H    0.148132
     8  H    0.149063
     9  H    0.163356
    10  H    0.164224
    11  C   -0.298138
    12  C   -0.299599
    13  C   -0.475635
    14  H    0.150393
    15  H    0.147846
    16  H    0.153125
    17  H    0.151005
    18  H    0.154224
    19  H    0.155632
    20  H    0.160156
    21  C   -0.171326
    22  C   -0.216492
    23  C   -0.167607
    24  C    0.156854
    25  C   -0.174097
    26  C   -0.217068
    27  H    0.225702
    28  H    0.223452
    29  H    0.275798
    30  H    0.275772
    31  H    0.223682
    32  N    0.490204
    33  O   -0.460954
    34  O   -0.460529
 Sum of Mulliken charges =  -0.00000

 Dipole moment (field-independent basis, Debye):
    X=              0.3225    Y=              5.1634    Z=             -0.1249  Tot=              5.1750
 Quadrupole moment (field-independent basis, Debye-Ang):
   XX=            -95.2154   YY=            -97.1610   ZZ=            -89.9542
   XY=             16.0866   XZ=              0.7987   YZ=             -0.1596

 Normal termination of Gaussian 16 at Thu May  6 12:18:29 2021.
