 Gaussian 16, Revision A.03,
 Gaussian 16:  EM64L-G16RevA.03 25-Dec-2016

 -------------
 #p 6-31g* mp2
 -------------

 ------------------------------------------------------
 Input file generated by CHIRIPA (05-May-2021 14:53:15)
 ------------------------------------------------------
 Symbolic Z-matrix:
 Charge =  0 Multiplicity = 1

                         Standard orientation:
 ---------------------------------------------------------------------
 Center     Atomic      Atomic             Coordinates (Angstroms)
 Number     Number       Type             X           Y           Z
 ---------------------------------------------------------------------
      1          6           0       -2.856439    0.586058    0.249820
      2          6           0       -2.998430    1.937425   -0.451345
      3          6           0       -2.141747    3.029264    0.190352
      4          1           0       -3.133689    0.697738    1.306988
      5          1           0       -1.800716    0.281765    0.234016
      6          1           0       -4.053780    2.238423   -0.435440
      7          1           0       -2.720993    1.822472   -1.507010
      8          1           0       -1.082327    2.754728    0.161026
      9          1           0       -2.422686    3.173043    1.238685
     10          1           0       -2.258495    3.986876   -0.326571
     11          6           0       -3.706792   -0.515636   -0.380179
     12          6           0       -3.564801   -1.867002    0.320985
     13          6           0       -4.421484   -2.958842   -0.320712
     14          1           0       -4.762515   -0.211343   -0.364375
     15          1           0       -3.429542   -0.627316   -1.437348
     16          1           0       -3.842238   -1.752049    1.376651
     17          1           0       -2.509451   -2.168001    0.305080
     18          1           0       -4.140545   -3.102621   -1.369045
     19          1           0       -5.480904   -2.684306   -0.291385
     20          1           0       -4.304736   -3.916453    0.196212
     21          6           0        1.675392    2.332671    0.130142
     22          6           0        2.343061    1.873942   -1.010168
     23          6           0        2.839467    0.568145   -1.065145
     24          6           0        2.649646   -0.255682    0.043263
     25          6           0        1.988719    0.172105    1.193682
     26          6           0        1.500660    1.481788    1.226495
     27          1           0        1.293015    3.348554    0.164241
     28          1           0        2.480215    2.532536   -1.863098
     29          1           0        3.360137    0.187198   -1.935317
     30          1           0        1.867328   -0.507733    2.028249
     31          1           0        0.982537    1.835337    2.113397
     32          7           0        3.170751   -1.640128   -0.003206
     33          8           0        2.990575   -2.346233    0.986536
     34          8           0        3.749501   -1.992938   -1.028492
 ---------------------------------------------------------------------

 SCF Done:  E(RHF) =  -669.535058977     A.U. after   15 cycles
 E2 =    -0.2092688616D+01 EUMP2 =    -0.67162774759274D+03

 The electronic state is 1-A.
 Alpha  occ. eigenvalues --  -20.60830 -20.60824 -15.85884 -11.31274 -11.27843
 Alpha  occ. eigenvalues --  -11.27839 -11.27559 -11.26858 -11.26847 -11.22085
 Alpha  occ. eigenvalues --  -11.21758 -11.21714 -11.21688 -11.21565 -11.21086
 Alpha  occ. eigenvalues --   -1.59905  -1.39458  -1.19454  -1.08856  -1.08712
 Alpha  occ. eigenvalues --   -1.04852  -1.03843  -0.96323  -0.95669  -0.87345
 Alpha  occ. eigenvalues --   -0.86245  -0.82499  -0.79928  -0.78510  -0.77538
 Alpha  occ. eigenvalues --   -0.72101  -0.71230  -0.70574  -0.65356  -0.65100
 Alpha  occ. eigenvalues --   -0.64842  -0.62192  -0.61249  -0.59695  -0.57916
 Alpha  occ. eigenvalues --   -0.55767  -0.55230  -0.53246  -0.53008  -0.52933
 Alpha  occ. eigenvalues --   -0.52693  -0.50247  -0.48861  -0.48855  -0.48233
 Alpha  occ. eigenvalues --   -0.46939  -0.46062  -0.45952  -0.44858  -0.44085
 Alpha  occ. eigenvalues --   -0.37363  -0.36441
 Alpha virt. eigenvalues --    0.04946   0.11133   0.16361   0.20992   0.22690
 Alpha virt. eigenvalues --    0.24163   0.26367   0.26625   0.27214   0.27623
 Alpha virt. eigenvalues --    0.28915   0.30607   0.31278   0.31634   0.31914

 Mulliken charges:
               1
     1  C   -0.301102
     2  C   -0.297412
     3  C   -0.485174
     4  H    0.147676
     5  H    0.152378
     6  H    0.153528
     7  H    0.152848
     8  H    0.154938
     9  H    0.153889
    10  H    0.159018
    11  C   -0.298465
    12  C   -0.300508
    13  C   -0.475936
    14  H    0.149462
    15  H    0.150663
    16  H    0.151074
    17  H    0.154785
    18  H    0.156167
    19  H    0.154433
    20  H    0.162245
    21  C   -0.172495
    22  C   -0.220189
    23  C   -0.171070
    24  C    0.158430
    25  C   -0.171943
    26  C   -0.216449
    27  H    0.229128
    28  H    0.224148
    29  H    0.275932
    30  H    0.276297
    31  H    0.225991
    32  N    0.488034
    33  O   -0.460112
    34  O   -0.460210
 Sum of Mulliken charges =  -0.00000

 Dipole moment (field-independent basis, Debye):
    X=             -1.7967    Y=              4.7931    Z=              0.1405  Tot=              5.1207
 Quadrupole moment (field-independent basis, Debye-Ang):
   XX=           -104.2762   YY=            -98.6484   ZZ=            -90.2908
   XY=             13.4539   XZ=             -2.0938   YZ=             -0.9020

 Normal termination of Gaussian 16 at Thu May  6 09:01:02 2021.
