 Gaussian 16, Revision A.03,
 Gaussian 16:  EM64L-G16RevA.03 25-Dec-2016

 -------------
 #p 6-31g* mp2
 -------------

 ------------------------------------------------------
 Input file generated by CHIRIPA (05-May-2021 14:57:22)
 ------------------------------------------------------
 Symbolic Z-matrix:
 Charge =  0 Multiplicity = 1

                         Standard orientation:
 ---------------------------------------------------------------------
 Center     Atomic      Atomic             Coordinates (Angstroms)
 Number     Number       Type             X           Y           Z
 ---------------------------------------------------------------------
      1          6           0        2.196917    1.967373    0.119028
      2          6           0        3.498517    2.180001    0.585018
      3          6           0        4.449249    1.156592    0.527644
      4          6           0        4.062386   -0.072507   -0.004279
      5          6           0        2.773464   -0.315209   -0.476576
      6          6           0        1.839175    0.722641   -0.409350
      7          1           0        1.464752    2.767991    0.167425
      8          1           0        3.779160    3.145654    0.995871
      9          1           0        5.463871    1.293976    0.881320
     10          1           0        2.523367   -1.288597   -0.880788
     11          1           0        0.829065    0.554657   -0.771985
     12          7           0        5.060179   -1.163588   -0.070233
     13          8           0        4.694310   -2.237327   -0.543373
     14          8           0        6.189226   -0.924379    0.352461
     15          6           0       -3.482290    2.358044   -0.345935
     16          6           0       -2.428998    1.446534   -0.473388
     17          6           0       -2.647722    0.078259   -0.287558
     18          6           0       -3.938120   -0.345658    0.026216
     19          6           0       -5.008100    0.537815    0.160033
     20          6           0       -4.766216    1.901581   -0.030188
     21          1           0       -3.303384    3.419202   -0.491998
     22          1           0       -1.430849    1.798174   -0.718526
     23          1           0       -1.850437   -0.649185   -0.380198
     24          1           0       -5.992197    0.157201    0.405192
     25          1           0       -5.586118    2.607189    0.069425
     26          7           0       -4.181933   -1.791803    0.225270
     27          8           0       -5.327985   -2.139878    0.501036
     28          8           0       -3.222366   -2.549833    0.101754
 ---------------------------------------------------------------------

 SCF Done:  E(RHF) =  -868.335856476     A.U. after   16 cycles
 E2 =    -0.2600143845D+01 EUMP2 =    -0.87093600032081D+03

 The electronic state is 1-A.
 Alpha  occ. eigenvalues --  -20.61311 -20.61304 -20.61044 -20.61035 -15.86373
 Alpha  occ. eigenvalues --  -15.86104 -11.31912 -11.31635 -11.28600 -11.28461
 Alpha  occ. eigenvalues --  -11.28303 -11.28259 -11.28224 -11.28126 -11.27704
 Alpha  occ. eigenvalues --  -11.27492 -11.27440 -11.27284  -1.60382  -1.60114
 Alpha  occ. eigenvalues --   -1.39931  -1.39663  -1.20113  -1.19853  -1.09473
 Alpha  occ. eigenvalues --   -1.09238  -1.05569  -1.05287  -0.96276  -0.96032
 Alpha  occ. eigenvalues --   -0.86958  -0.86699  -0.83130  -0.82861  -0.78162
 Alpha  occ. eigenvalues --   -0.77848  -0.72587  -0.72321  -0.71708  -0.71439
 Alpha  occ. eigenvalues --   -0.71223  -0.71004  -0.65795  -0.65702  -0.65508
 Alpha  occ. eigenvalues --   -0.65280  -0.63008  -0.62529  -0.56046  -0.55852
 Alpha  occ. eigenvalues --   -0.53852  -0.53708  -0.53596  -0.53380  -0.49360
 Alpha  occ. eigenvalues --   -0.49332  -0.49096  -0.49061  -0.45299  -0.45030
 Alpha  occ. eigenvalues --   -0.38085  -0.37867  -0.37163  -0.36876
 Alpha virt. eigenvalues --    0.04432   0.04691   0.10487   0.10753   0.15873
 Alpha virt. eigenvalues --    0.16112   0.17117   0.22172   0.24423   0.25240
 Alpha virt. eigenvalues --    0.28031   0.28832   0.30404   0.30842   0.32559

 Mulliken charges:
               1
     1  C   -0.170487
     2  C   -0.218097
     3  C   -0.169630
     4  C    0.159266
     5  C   -0.169281
     6  C   -0.220745
     7  H    0.219443
     8  H    0.224659
     9  H    0.277686
    10  H    0.279780
    11  H    0.216493
    12  N    0.487871
    13  O   -0.457554
    14  O   -0.459238
    15  C   -0.170192
    16  C   -0.219722
    17  C   -0.170743
    18  C    0.159696
    19  C   -0.169274
    20  C   -0.218122
    21  H    0.226122
    22  H    0.213820
    23  H    0.272312
    24  H    0.278464
    25  H    0.226205
    26  N    0.488230
    27  O   -0.457774
    28  O   -0.459189
 Sum of Mulliken charges =  -0.00000

 Dipole moment (field-independent basis, Debye):
    X=             -2.6942    Y=              8.8261    Z=             -0.3916  Tot=              9.2365
 Quadrupole moment (field-independent basis, Debye-Ang):
   XX=           -131.1599   YY=           -107.7825   ZZ=           -105.4759
   XY=             -3.3671   XZ=              4.3360   YZ=              2.0990

 Normal termination of Gaussian 16 at Thu May  6 11:13:36 2021.
