 Gaussian 16, Revision A.03,
 Gaussian 16:  EM64L-G16RevA.03 25-Dec-2016

 -------------
 #p 6-31g* mp2
 -------------

 ------------------------------------------------------
 Input file generated by CHIRIPA (05-May-2021 14:53:14)
 ------------------------------------------------------
 Symbolic Z-matrix:
 Charge =  0 Multiplicity = 1

                         Standard orientation:
 ---------------------------------------------------------------------
 Center     Atomic      Atomic             Coordinates (Angstroms)
 Number     Number       Type             X           Y           Z
 ---------------------------------------------------------------------
      1          6           0       -2.846355   -1.254751   -0.079815
      2          6           0       -1.591205   -1.531153    0.748549
      3          6           0       -0.842279   -2.781926    0.287603
      4          1           0       -3.514140   -2.125293   -0.023571
      5          1           0       -2.563490   -1.145513   -1.135964
      6          1           0       -1.876177   -1.638464    1.803012
      7          1           0       -0.926416   -0.659776    0.690482
      8          1           0       -0.529803   -2.680862   -0.756785
      9          1           0       -1.484961   -3.665112    0.362065
     10          1           0        0.051553   -2.960732    0.893368
     11          6           0       -3.605878   -0.007563    0.368931
     12          6           0       -4.861027    0.268840   -0.459433
     13          6           0       -5.609953    1.519613    0.001513
     14          1           0       -3.888742   -0.116801    1.425080
     15          1           0       -2.938092    0.862980    0.312687
     16          1           0       -5.525816   -0.602538   -0.401366
     17          1           0       -4.576055    0.376151   -1.513896
     18          1           0       -4.967272    2.402798   -0.072949
     19          1           0       -5.922429    1.418549    1.045901
     20          1           0       -6.503786    1.698418   -0.604252
     21          6           0        1.395550    2.749128   -0.008397
     22          6           0        0.706520    1.646633   -0.524405
     23          6           0        1.319865    0.391874   -0.587154
     24          6           0        2.629150    0.274985   -0.123042
     25          6           0        3.341920    1.354485    0.396507
     26          6           0        2.708736    2.599798    0.449604
     27          1           0        0.911383    3.720186    0.036599
     28          1           0       -0.313402    1.759654   -0.880816
     29          1           0        0.809623   -0.478357   -0.981832
     30          1           0        4.357728    1.210737    0.744200
     31          1           0        3.246275    3.454258    0.850845
     32          7           0        3.288972   -1.048372   -0.184364
     33          8           0        4.443216   -1.125109    0.230933
     34          8           0        2.639404   -1.983824   -0.646561
 ---------------------------------------------------------------------

 SCF Done:  E(RHF) =  -669.534319324     A.U. after   15 cycles
 E2 =    -0.2094159820D+01 EUMP2 =    -0.67162847914337D+03

 The electronic state is 1-A.
 Alpha  occ. eigenvalues --  -20.60826 -20.60819 -15.85866 -11.31224 -11.27813
 Alpha  occ. eigenvalues --  -11.27776 -11.27555 -11.26819 -11.26810 -11.22051
 Alpha  occ. eigenvalues --  -11.21887 -11.21741 -11.21666 -11.21525 -11.20787
 Alpha  occ. eigenvalues --   -1.59894  -1.39447  -1.19418  -1.08812  -1.08797
 Alpha  occ. eigenvalues --   -1.04837  -1.03782  -0.96220  -0.95634  -0.87208
 Alpha  occ. eigenvalues --   -0.86215  -0.82485  -0.79845  -0.78613  -0.77528
 Alpha  occ. eigenvalues --   -0.72092  -0.71216  -0.70544  -0.65522  -0.65058
 Alpha  occ. eigenvalues --   -0.64838  -0.62306  -0.61037  -0.59577  -0.57809
 Alpha  occ. eigenvalues --   -0.55583  -0.55271  -0.53165  -0.52876  -0.52814
 Alpha  occ. eigenvalues --   -0.52609  -0.50187  -0.48847  -0.48835  -0.48137
 Alpha  occ. eigenvalues --   -0.46919  -0.46138  -0.46088  -0.44855  -0.44005
 Alpha  occ. eigenvalues --   -0.37395  -0.36344
 Alpha virt. eigenvalues --    0.04960   0.11176   0.16320   0.19282   0.22975
 Alpha virt. eigenvalues --    0.23618   0.25286   0.26363   0.27470   0.28447
 Alpha virt. eigenvalues --    0.29597   0.31339   0.31543   0.31635   0.32058

 Mulliken charges:
               1
     1  C   -0.298043
     2  C   -0.311455
     3  C   -0.477998
     4  H    0.153741
     5  H    0.143766
     6  H    0.154129
     7  H    0.149448
     8  H    0.156038
     9  H    0.155219
    10  H    0.173546
    11  C   -0.297787
    12  C   -0.299800
    13  C   -0.475217
    14  H    0.152696
    15  H    0.140904
    16  H    0.154947
    17  H    0.150428
    18  H    0.151506
    19  H    0.156758
    20  H    0.161883
    21  C   -0.170548
    22  C   -0.222316
    23  C   -0.171413
    24  C    0.154738
    25  C   -0.170442
    26  C   -0.218823
    27  H    0.226029
    28  H    0.226207
    29  H    0.284980
    30  H    0.275818
    31  H    0.223694
    32  N    0.487896
    33  O   -0.460022
    34  O   -0.460509
 Sum of Mulliken charges =  -0.00000

 Dipole moment (field-independent basis, Debye):
    X=             -2.2566    Y=              4.5341    Z=              0.2694  Tot=              5.0718
 Quadrupole moment (field-independent basis, Debye-Ang):
   XX=           -103.6312   YY=            -91.9292   ZZ=            -94.3763
   XY=             14.6011   XZ=              2.4655   YZ=             -0.2384

 Normal termination of Gaussian 16 at Thu May  6 20:22:01 2021.
