 Gaussian 16, Revision A.03,
 Gaussian 16:  EM64L-G16RevA.03 25-Dec-2016

 -------------
 #p 6-31g* mp2
 -------------

 ------------------------------------------------------
 Input file generated by CHIRIPA (05-May-2021 14:57:27)
 ------------------------------------------------------
 Symbolic Z-matrix:
 Charge =  0 Multiplicity = 1

                         Standard orientation:
 ---------------------------------------------------------------------
 Center     Atomic      Atomic             Coordinates (Angstroms)
 Number     Number       Type             X           Y           Z
 ---------------------------------------------------------------------
      1          6           0        1.652006    2.298036    0.342665
      2          6           0        3.027435    2.263175    0.594657
      3          6           0        3.776766    1.123409    0.288087
      4          6           0        3.115408    0.031585   -0.272107
      5          6           0        1.746413    0.035719   -0.535025
      6          6           0        1.017004    1.186157   -0.220379
      7          1           0        1.077646    3.187579    0.583952
      8          1           0        3.523239    3.125198    1.031852
      9          1           0        4.842794    1.069419    0.472714
     10          1           0        1.280131   -0.839152   -0.971604
     11          1           0       -0.051045    1.210401   -0.417176
     12          7           0        3.898146   -1.180683   -0.600934
     13          8           0        3.291883   -2.129441   -1.093824
     14          8           0        5.103097   -1.159147   -0.359551
     15          6           0       -1.698586   -1.216870    2.150854
     16          6           0       -2.364670   -2.057058    1.252559
     17          6           0       -3.081291   -1.522049    0.177956
     18          6           0       -3.110905   -0.136108    0.031043
     19          6           0       -2.457583    0.727223    0.909177
     20          6           0       -1.747082    0.170144    1.976604
     21          1           0       -1.144274   -1.641050    2.982844
     22          1           0       -2.328737   -3.134603    1.385414
     23          1           0       -3.606053   -2.149349   -0.532351
     24          1           0       -2.511632    1.797451    0.750722
     25          1           0       -1.230745    0.825071    2.672673
     26          7           0       -3.866320    0.441964   -1.102792
     27          8           0       -3.877020    1.666290   -1.210257
     28          8           0       -4.433409   -0.340215   -1.862556
 ---------------------------------------------------------------------

 SCF Done:  E(RHF) =  -868.336844670     A.U. after   16 cycles
 E2 =    -0.2602063452D+01 EUMP2 =    -0.87093890812136D+03

 The electronic state is 1-A.
 Alpha  occ. eigenvalues --  -20.61526 -20.61498 -20.61019 -20.61012 -15.86570
 Alpha  occ. eigenvalues --  -15.86067 -11.32036 -11.31432 -11.28594 -11.28478
 Alpha  occ. eigenvalues --  -11.28191 -11.27973 -11.27933 -11.27724 -11.27582
 Alpha  occ. eigenvalues --  -11.27489 -11.27029 -11.26887  -1.60592  -1.60093
 Alpha  occ. eigenvalues --   -1.40142  -1.39646  -1.20182  -1.19588  -1.09522
 Alpha  occ. eigenvalues --   -1.08998  -1.05591  -1.04963  -0.96356  -0.95832
 Alpha  occ. eigenvalues --   -0.86946  -0.86385  -0.83178  -0.82650  -0.78246
 Alpha  occ. eigenvalues --   -0.77696  -0.72771  -0.72285  -0.71932  -0.71418
 Alpha  occ. eigenvalues --   -0.71213  -0.70711  -0.65798  -0.65530  -0.65234
 Alpha  occ. eigenvalues --   -0.64993  -0.62911  -0.62326  -0.55981  -0.55530
 Alpha  occ. eigenvalues --   -0.54090  -0.53636  -0.53280  -0.52873  -0.49545
 Alpha  occ. eigenvalues --   -0.49527  -0.49042  -0.49040  -0.45523  -0.45051
 Alpha  occ. eigenvalues --   -0.38165  -0.37729  -0.37222  -0.36305
 Alpha virt. eigenvalues --    0.04258   0.04807   0.10249   0.11114   0.15797
 Alpha virt. eigenvalues --    0.16333   0.20328   0.21589   0.26055   0.27214
 Alpha virt. eigenvalues --    0.27659   0.28669   0.30169   0.31049   0.31674

 Mulliken charges:
               1
     1  C   -0.177823
     2  C   -0.218129
     3  C   -0.172453
     4  C    0.158415
     5  C   -0.174591
     6  C   -0.218401
     7  H    0.223789
     8  H    0.223586
     9  H    0.275655
    10  H    0.276311
    11  H    0.231981
    12  N    0.487857
    13  O   -0.460612
    14  O   -0.460045
    15  C   -0.171366
    16  C   -0.217424
    17  C   -0.172187
    18  C    0.160002
    19  C   -0.191173
    20  C   -0.210557
    21  H    0.230885
    22  H    0.229435
    23  H    0.279192
    24  H    0.272536
    25  H    0.225037
    26  N    0.488026
    27  O   -0.462251
    28  O   -0.455694
 Sum of Mulliken charges =  -0.00000

 Dipole moment (field-independent basis, Debye):
    X=             -0.2473    Y=              1.9904    Z=              5.2217  Tot=              5.5936
 Quadrupole moment (field-independent basis, Debye-Ang):
   XX=           -135.5618   YY=            -99.1810   ZZ=           -105.2294
   XY=             23.2553   XZ=             -6.0438   YZ=              0.4577

 Normal termination of Gaussian 16 at Fri May  7 12:44:52 2021.
