 Gaussian 16, Revision A.03,
 Gaussian 16:  EM64L-G16RevA.03 25-Dec-2016

 -------------
 #p 6-31g* mp2
 -------------

 ------------------------------------------------------
 Input file generated by CHIRIPA (05-May-2021 14:55:23)
 ------------------------------------------------------
 Symbolic Z-matrix:
 Charge =  0 Multiplicity = 1

                         Standard orientation:
 ---------------------------------------------------------------------
 Center     Atomic      Atomic             Coordinates (Angstroms)
 Number     Number       Type             X           Y           Z
 ---------------------------------------------------------------------
      1          6           0        1.151247   -1.599421   -0.119118
      2          6           0        2.326978   -2.293343    0.185269
      3          6           0        3.553464   -1.624231    0.235948
      4          6           0        3.567708   -0.254796   -0.024312
      5          6           0        2.413458    0.464437   -0.330416
      6          6           0        1.198157   -0.225169   -0.375537
      7          1           0        0.202828   -2.127163   -0.156328
      8          1           0        2.293552   -3.360627    0.384850
      9          1           0        4.478816   -2.136857    0.469093
     10          1           0        2.478445    1.528132   -0.524706
     11          1           0        0.286656    0.316317   -0.612191
     12          7           0        4.860213    0.464411    0.026398
     13          8           0        4.846027    1.671077   -0.206827
     14          8           0        5.862991   -0.192158    0.298408
     15          6           0       -4.516024   -0.209280   -0.207130
     16          6           0       -5.889283   -0.629717    0.317633
     17          6           0       -6.319615   -2.006587   -0.189159
     18          1           0       -4.535023   -0.207786   -1.305575
     19          1           0       -3.771461   -0.960139    0.091586
     20          1           0       -6.630797    0.122419    0.019198
     21          1           0       -5.867068   -0.630024    1.414958
     22          1           0       -5.601794   -2.772866    0.120920
     23          1           0       -6.369862   -2.016147   -1.282770
     24          1           0       -7.304018   -2.287297    0.198155
     25          6           0       -4.071977    1.165003    0.290763
     26          6           0       -2.698717    1.585441   -0.234000
     27          6           0       -2.268385    2.962310    0.272792
     28          1           0       -4.816539    1.915863   -0.007953
     29          1           0       -4.052977    1.163510    1.389208
     30          1           0       -2.720932    1.585748   -1.331325
     31          1           0       -1.957202    0.833305    0.064435
     32          1           0       -2.218137    2.971871    1.366403
     33          1           0       -2.986206    3.728591   -0.037287
     34          1           0       -1.283982    3.243021   -0.114523
 ---------------------------------------------------------------------

 SCF Done:  E(RHF) =  -669.535566425     A.U. after   15 cycles
 E2 =    -0.2091090078D+01 EUMP2 =    -0.67162665650366D+03

 The electronic state is 1-A.
 Alpha  occ. eigenvalues --  -20.60733 -20.60728 -15.85786 -11.31147 -11.27717
 Alpha  occ. eigenvalues --  -11.27704 -11.27455 -11.26735 -11.26679 -11.22670
 Alpha  occ. eigenvalues --  -11.22271 -11.22229 -11.22170 -11.21920 -11.21675
 Alpha  occ. eigenvalues --   -1.59808  -1.39362  -1.19317  -1.09263  -1.08713
 Alpha  occ. eigenvalues --   -1.04719  -1.04338  -0.96755  -0.95550  -0.87768
 Alpha  occ. eigenvalues --   -0.86120  -0.82382  -0.80429  -0.79084  -0.77427
 Alpha  occ. eigenvalues --   -0.72004  -0.71131  -0.70429  -0.65908  -0.64968
 Alpha  occ. eigenvalues --   -0.64729  -0.62128  -0.61678  -0.60132  -0.58380
 Alpha  occ. eigenvalues --   -0.56024  -0.55219  -0.53453  -0.53178  -0.53049
 Alpha  occ. eigenvalues --   -0.52818  -0.50683  -0.48808  -0.48760  -0.48677
 Alpha  occ. eigenvalues --   -0.47447  -0.46607  -0.46527  -0.44768  -0.44589
 Alpha  occ. eigenvalues --   -0.37300  -0.36319
 Alpha virt. eigenvalues --    0.05104   0.11288   0.16589   0.19712   0.22416
 Alpha virt. eigenvalues --    0.23525   0.25341   0.25915   0.26482   0.28425
 Alpha virt. eigenvalues --    0.28969   0.30250   0.30681   0.31115   0.32314

 Mulliken charges:
               1
     1  C   -0.173022
     2  C   -0.218449
     3  C   -0.171303
     4  C    0.158903
     5  C   -0.172309
     6  C   -0.225993
     7  H    0.225247
     8  H    0.223176
     9  H    0.275437
    10  H    0.275606
    11  H    0.235012
    12  N    0.488009
    13  O   -0.460464
    14  O   -0.460597
    15  C   -0.297902
    16  C   -0.300289
    17  C   -0.475976
    18  H    0.150595
    19  H    0.143968
    20  H    0.154189
    21  H    0.153312
    22  H    0.153726
    23  H    0.155940
    24  H    0.162720
    25  C   -0.297969
    26  C   -0.305656
    27  C   -0.476038
    28  H    0.153432
    29  H    0.152295
    30  H    0.153376
    31  H    0.143635
    32  H    0.159154
    33  H    0.160159
    34  H    0.158075
 Sum of Mulliken charges =  -0.00000

 Dipole moment (field-independent basis, Debye):
    X=             -4.7912    Y=             -2.4533    Z=             -0.1520  Tot=              5.3849
 Quadrupole moment (field-independent basis, Debye-Ang):
   XX=           -125.7413   YY=            -90.4251   ZZ=            -94.7328
   XY=            -11.1407   XZ=              0.2557   YZ=             -1.6305

 Normal termination of Gaussian 16 at Thu May  6 17:35:35 2021.
