 Gaussian 16, Revision A.03,
 Gaussian 16:  EM64L-G16RevA.03 25-Dec-2016

 -------------
 #p 6-31g* mp2
 -------------

 ------------------------------------------------------
 Input file generated by CHIRIPA (05-May-2021 14:55:23)
 ------------------------------------------------------
 Symbolic Z-matrix:
 Charge =  0 Multiplicity = 1

                         Standard orientation:
 ---------------------------------------------------------------------
 Center     Atomic      Atomic             Coordinates (Angstroms)
 Number     Number       Type             X           Y           Z
 ---------------------------------------------------------------------
      1          6           0       -2.986361    2.597171    0.141217
      2          6           0       -2.103122    1.725724    0.786965
      3          6           0       -2.315762    0.344390    0.751634
      4          6           0       -3.426738   -0.133299    0.058210
      5          6           0       -4.324766    0.709348   -0.595075
      6          6           0       -4.092414    2.087101   -0.546530
      7          1           0       -2.813521    3.668834    0.173796
      8          1           0       -1.243316    2.119030    1.321837
      9          1           0       -1.647903   -0.352841    1.242806
     10          1           0       -5.173105    0.287550   -1.120266
     11          1           0       -4.780017    2.761510   -1.048943
     12          7           0       -3.662284   -1.593760    0.013811
     13          8           0       -4.648450   -1.989504   -0.603847
     14          8           0       -2.856280   -2.315071    0.597510
     15          6           0        4.990833   -0.022077   -0.460714
     16          6           0        6.216468    0.023889    0.452354
     17          6           0        7.517825    0.255411   -0.316190
     18          1           0        5.125584   -0.818935   -1.204893
     19          1           0        4.924090    0.920807   -1.020991
     20          1           0        6.280097   -0.918252    1.011763
     21          1           0        6.078699    0.820605    1.194566
     22          1           0        7.479718    1.204070   -0.861346
     23          1           0        7.682259   -0.544666   -1.045188
     24          1           0        8.381175    0.284756    0.355842
     25          6           0        3.682233   -0.252874    0.292964
     26          6           0        2.456599   -0.298840   -0.620104
     27          6           0        1.155242   -0.530362    0.148440
     28          1           0        3.748976   -1.195758    0.853241
     29          1           0        3.547484    0.543984    1.037144
     30          1           0        2.594367   -1.095556   -1.362316
     31          1           0        2.392969    0.643301   -1.179513
     32          1           0        0.990807    0.269716    0.877438
     33          1           0        1.193349   -1.479021    0.693596
     34          1           0        0.291893   -0.559706   -0.523592
 ---------------------------------------------------------------------

 SCF Done:  E(RHF) =  -669.535010410     A.U. after   15 cycles
 E2 =    -0.2091845893D+01 EUMP2 =    -0.67162685630275D+03

 The electronic state is 1-A.
 Alpha  occ. eigenvalues --  -20.60721 -20.60716 -15.85773 -11.31115 -11.27707
 Alpha  occ. eigenvalues --  -11.27641 -11.27454 -11.26714 -11.26691 -11.21871
 Alpha  occ. eigenvalues --  -11.21761 -11.21626 -11.21548 -11.21446 -11.21203
 Alpha  occ. eigenvalues --   -1.59797  -1.39350  -1.19303  -1.08702  -1.08650
 Alpha  occ. eigenvalues --   -1.04707  -1.03761  -0.96236  -0.95532  -0.87269
 Alpha  occ. eigenvalues --   -0.86096  -0.82368  -0.79847  -0.78460  -0.77402
 Alpha  occ. eigenvalues --   -0.71991  -0.71122  -0.70413  -0.65284  -0.64952
 Alpha  occ. eigenvalues --   -0.64710  -0.62084  -0.61146  -0.59577  -0.57827
 Alpha  occ. eigenvalues --   -0.55528  -0.55212  -0.53265  -0.52901  -0.52645
 Alpha  occ. eigenvalues --   -0.52562  -0.50171  -0.48750  -0.48744  -0.48149
 Alpha  occ. eigenvalues --   -0.46857  -0.46004  -0.45918  -0.44763  -0.44005
 Alpha  occ. eigenvalues --   -0.37295  -0.36258
 Alpha virt. eigenvalues --    0.05104   0.11297   0.16575   0.20758   0.22681
 Alpha virt. eigenvalues --    0.24019   0.25652   0.26478   0.27424   0.28008
 Alpha virt. eigenvalues --    0.28945   0.29628   0.31423   0.31659   0.32233

 Mulliken charges:
               1
     1  C   -0.170877
     2  C   -0.219937
     3  C   -0.171381
     4  C    0.156675
     5  C   -0.170956
     6  C   -0.218901
     7  H    0.225210
     8  H    0.223232
     9  H    0.282764
    10  H    0.275305
    11  H    0.223085
    12  N    0.488287
    13  O   -0.460781
    14  O   -0.460577
    15  C   -0.298472
    16  C   -0.299741
    17  C   -0.475815
    18  H    0.151280
    19  H    0.148693
    20  H    0.153025
    21  H    0.150980
    22  H    0.154759
    23  H    0.156043
    24  H    0.160681
    25  C   -0.298601
    26  C   -0.300513
    27  C   -0.481001
    28  H    0.151874
    29  H    0.146717
    30  H    0.156348
    31  H    0.150454
    32  H    0.141927
    33  H    0.163432
    34  H    0.166781
 Sum of Mulliken charges =  -0.00000

 Dipole moment (field-independent basis, Debye):
    X=              0.9164    Y=              5.0571    Z=              0.1170  Tot=              5.1408
 Quadrupole moment (field-independent basis, Debye-Ang):
   XX=            -98.3157   YY=            -95.5957   ZZ=            -94.0443
   XY=            -19.1055   XZ=              2.4394   YZ=             -0.0285

 Normal termination of Gaussian 16 at Thu May  6 09:27:08 2021.
