 Gaussian 16, Revision A.03,
 Gaussian 16:  EM64L-G16RevA.03 25-Dec-2016

 -------------
 #p 6-31g* mp2
 -------------

 ------------------------------------------------------
 Input file generated by CHIRIPA (05-May-2021 14:53:18)
 ------------------------------------------------------
 Symbolic Z-matrix:
 Charge =  0 Multiplicity = 1

                         Standard orientation:
 ---------------------------------------------------------------------
 Center     Atomic      Atomic             Coordinates (Angstroms)
 Number     Number       Type             X           Y           Z
 ---------------------------------------------------------------------
      1          6           0       -3.751312    0.824233    0.392548
      2          6           0       -3.319216    2.034715   -0.435709
      3          6           0       -2.333178    2.937303    0.306490
      4          1           0       -4.205394    1.172772    1.330244
      5          1           0       -2.861305    0.244030    0.672988
      6          1           0       -4.209900    2.611706   -0.715673
      7          1           0       -2.866283    1.683257   -1.371629
      8          1           0       -1.427747    2.382190    0.572280
      9          1           0       -2.778997    3.315914    1.231963
     10          1           0       -2.037559    3.796333   -0.303868
     11          6           0       -4.737029   -0.087593   -0.335920
     12          6           0       -5.169126   -1.298075    0.492337
     13          6           0       -6.155163   -2.200663   -0.249862
     14          1           0       -5.627037    0.492610   -0.616360
     15          1           0       -4.282948   -0.436132   -1.273616
     16          1           0       -5.622058   -0.946617    1.428257
     17          1           0       -4.278442   -1.875066    0.772301
     18          1           0       -5.709344   -2.579274   -1.175335
     19          1           0       -7.060595   -1.645550   -0.515652
     20          1           0       -6.450782   -3.059693    0.360496
     21          6           0        0.822051   -0.669218   -0.064868
     22          6           0        1.332486    0.631368   -0.131602
     23          6           0        2.712414    0.854573   -0.108694
     24          6           0        3.556841   -0.250871   -0.017987
     25          6           0        3.078842   -1.558609    0.050050
     26          6           0        1.695319   -1.758136    0.025585
     27          1           0       -0.251307   -0.833411   -0.083268
     28          1           0        0.656665    1.478935   -0.201903
     29          1           0        3.134542    1.850914   -0.158990
     30          1           0        3.777514   -2.383499    0.119558
     31          1           0        1.301734   -2.769291    0.077555
     32          7           0        5.019613   -0.027108    0.007087
     33          8           0        5.742463   -1.017896    0.087482
     34          8           0        5.415584    1.134828   -0.054128
 ---------------------------------------------------------------------

 SCF Done:  E(RHF) =  -669.535440432     A.U. after   15 cycles
 E2 =    -0.2091394995D+01 EUMP2 =    -0.67162683542667D+03

 The electronic state is 1-A.
 Alpha  occ. eigenvalues --  -20.60746 -20.60741 -15.85800 -11.31169 -11.27740
 Alpha  occ. eigenvalues --  -11.27730 -11.27488 -11.26760 -11.26724 -11.22664
 Alpha  occ. eigenvalues --  -11.22466 -11.22413 -11.22268 -11.22236 -11.21745
 Alpha  occ. eigenvalues --   -1.59822  -1.39375  -1.19342  -1.09406  -1.08738
 Alpha  occ. eigenvalues --   -1.04746  -1.04471  -0.96927  -0.95572  -0.87941
 Alpha  occ. eigenvalues --   -0.86146  -0.82403  -0.80534  -0.79198  -0.77450
 Alpha  occ. eigenvalues --   -0.72018  -0.71145  -0.70461  -0.66072  -0.64994
 Alpha  occ. eigenvalues --   -0.64767  -0.62192  -0.61780  -0.60287  -0.58518
 Alpha  occ. eigenvalues --   -0.56268  -0.55234  -0.53598  -0.53359  -0.53073
 Alpha  occ. eigenvalues --   -0.52820  -0.50850  -0.48851  -0.48773  -0.48760
 Alpha  occ. eigenvalues --   -0.47576  -0.46736  -0.46669  -0.44780  -0.44727
 Alpha  occ. eigenvalues --   -0.37326  -0.36346
 Alpha virt. eigenvalues --    0.05084   0.11265   0.16564   0.18000   0.22506
 Alpha virt. eigenvalues --    0.23697   0.24725   0.25616   0.26394   0.28288
 Alpha virt. eigenvalues --    0.29377   0.30431   0.30800   0.31199   0.31603

 Mulliken charges:
               1
     1  C   -0.299705
     2  C   -0.301500
     3  C   -0.480537
     4  H    0.154440
     5  H    0.141804
     6  H    0.157616
     7  H    0.150551
     8  H    0.147663
     9  H    0.161753
    10  H    0.164071
    11  C   -0.299115
    12  C   -0.299398
    13  C   -0.476194
    14  H    0.153251
    15  H    0.148720
    16  H    0.154462
    17  H    0.148160
    18  H    0.155240
    19  H    0.157301
    20  H    0.162319
    21  C   -0.175428
    22  C   -0.225731
    23  C   -0.171758
    24  C    0.158837
    25  C   -0.170962
    26  C   -0.218905
    27  H    0.228194
    28  H    0.232579
    29  H    0.276169
    30  H    0.275533
    31  H    0.223448
    32  N    0.487966
    33  O   -0.460515
    34  O   -0.460328
 Sum of Mulliken charges =  -0.00000

 Dipole moment (field-independent basis, Debye):
    X=             -5.4169    Y=             -0.7193    Z=             -0.0834  Tot=              5.4651
 Quadrupole moment (field-independent basis, Debye-Ang):
   XX=           -130.5726   YY=            -89.3661   ZZ=            -95.6454
   XY=             -3.6010   XZ=             -0.8171   YZ=             -0.3969

 Normal termination of Gaussian 16 at Wed May  5 23:41:09 2021.
