 Gaussian 16, Revision A.03,
 Gaussian 16:  EM64L-G16RevA.03 25-Dec-2016

 -------------
 #p 6-31g* mp2
 -------------

 ------------------------------------------------------
 Input file generated by CHIRIPA (05-May-2021 14:57:25)
 ------------------------------------------------------
 Symbolic Z-matrix:
 Charge =  0 Multiplicity = 1

                         Standard orientation:
 ---------------------------------------------------------------------
 Center     Atomic      Atomic             Coordinates (Angstroms)
 Number     Number       Type             X           Y           Z
 ---------------------------------------------------------------------
      1          6           0        2.614730    2.064224   -1.084626
      2          6           0        2.209697    0.795955   -1.513535
      3          6           0        2.838354   -0.353160   -1.024788
      4          6           0        3.873192   -0.196511   -0.103994
      5          6           0        4.299492    1.053331    0.342610
      6          6           0        3.656498    2.188645   -0.159554
      7          1           0        2.120805    2.951524   -1.469507
      8          1           0        1.400933    0.696305   -2.231877
      9          1           0        2.544871   -1.347158   -1.339830
     10          1           0        5.108732    1.120812    1.059545
     11          1           0        3.973157    3.172326    0.175325
     12          7           0        4.546312   -1.405722    0.420522
     13          8           0        5.455453   -1.240821    1.231020
     14          8           0        4.152018   -2.495507    0.011208
     15          6           0       -1.503323    0.789593    0.987497
     16          6           0       -2.614795    0.879895    1.831890
     17          6           0       -3.871237    0.443925    1.400811
     18          6           0       -3.980639   -0.079386    0.113383
     19          6           0       -2.892119   -0.182496   -0.751360
     20          6           0       -1.645282    0.259621   -0.299165
     21          1           0       -0.531020    1.130653    1.330571
     22          1           0       -2.507510    1.291042    2.831636
     23          1           0       -4.748348    0.502238    2.033815
     24          1           0       -3.030286   -0.596943   -1.742602
     25          1           0       -0.783845    0.188276   -0.957100
     26          7           0       -5.305693   -0.544181   -0.354158
     27          8           0       -5.375717   -1.001339   -1.492903
     28          8           0       -6.249158   -0.442529    0.426981
 ---------------------------------------------------------------------

 SCF Done:  E(RHF) =  -868.337222195     A.U. after   16 cycles
 E2 =    -0.2600151298D+01 EUMP2 =    -0.87093737349335D+03

 The electronic state is 1-A.
 Alpha  occ. eigenvalues --  -20.61517 -20.61511 -20.61025 -20.61019 -15.86580
 Alpha  occ. eigenvalues --  -15.86082 -11.32144 -11.31504 -11.28797 -11.28734
 Alpha  occ. eigenvalues --  -11.28549 -11.28122 -11.28071 -11.27883 -11.27831
 Alpha  occ. eigenvalues --  -11.27749 -11.27157 -11.27079  -1.60590  -1.60099
 Alpha  occ. eigenvalues --   -1.40137  -1.39651  -1.20365  -1.19690  -1.09714
 Alpha  occ. eigenvalues --   -1.09069  -1.05803  -1.05113  -0.96503  -0.95891
 Alpha  occ. eigenvalues --   -0.87184  -0.86504  -0.83339  -0.82732  -0.78355
 Alpha  occ. eigenvalues --   -0.77772  -0.72790  -0.72298  -0.71921  -0.71431
 Alpha  occ. eigenvalues --   -0.71424  -0.70782  -0.66005  -0.65873  -0.65343
 Alpha  occ. eigenvalues --   -0.65098  -0.63144  -0.62440  -0.56264  -0.55588
 Alpha  occ. eigenvalues --   -0.54138  -0.53908  -0.53428  -0.53156  -0.49567
 Alpha  occ. eigenvalues --   -0.49534  -0.49062  -0.49050  -0.45498  -0.45044
 Alpha  occ. eigenvalues --   -0.38358  -0.37665  -0.37414  -0.36722
 Alpha virt. eigenvalues --    0.04186   0.04780   0.10115   0.10937   0.15502
 Alpha virt. eigenvalues --    0.16252   0.19240   0.21703   0.24872   0.27430
 Alpha virt. eigenvalues --    0.27906   0.28190   0.29512   0.31398   0.31852

 Mulliken charges:
               1
     1  C   -0.173460
     2  C   -0.226480
     3  C   -0.171060
     4  C    0.158335
     5  C   -0.169606
     6  C   -0.220152
     7  H    0.229194
     8  H    0.221308
     9  H    0.278540
    10  H    0.278856
    11  H    0.226813
    12  N    0.487999
    13  O   -0.457983
    14  O   -0.457801
    15  C   -0.172682
    16  C   -0.218392
    17  C   -0.170246
    18  C    0.159049
    19  C   -0.171401
    20  C   -0.220497
    21  H    0.227655
    22  H    0.224620
    23  H    0.276818
    24  H    0.274969
    25  H    0.217129
    26  N    0.488105
    27  O   -0.460343
    28  O   -0.459289
 Sum of Mulliken charges =  -0.00000

 Dipole moment (field-independent basis, Debye):
    X=              2.5076    Y=              5.9089    Z=             -0.0812  Tot=              6.4194
 Quadrupole moment (field-independent basis, Debye-Ang):
   XX=           -157.5427   YY=           -105.7043   ZZ=            -99.2513
   XY=             11.6336   XZ=            -13.1719   YZ=              3.1889

 Normal termination of Gaussian 16 at Thu May  6 11:26:26 2021.
