 Gaussian 16, Revision A.03,
 Gaussian 16:  EM64L-G16RevA.03 25-Dec-2016

 -------------
 #p 6-31g* mp2
 -------------

 ------------------------------------------------------
 Input file generated by CHIRIPA (05-May-2021 14:53:12)
 ------------------------------------------------------
 Symbolic Z-matrix:
 Charge =  0 Multiplicity = 1

                         Standard orientation:
 ---------------------------------------------------------------------
 Center     Atomic      Atomic             Coordinates (Angstroms)
 Number     Number       Type             X           Y           Z
 ---------------------------------------------------------------------
      1          6           0        2.280847    0.700969   -0.094372
      2          6           0        2.607945    1.973624   -0.876256
      3          6           0        1.918549    3.212613   -0.304040
      4          1           0        1.192813    0.548903   -0.092404
      5          1           0        2.579427    0.836368    0.954394
      6          1           0        2.310104    1.835355   -1.923533
      7          1           0        3.695340    2.122574   -0.876526
      8          1           0        2.223886    3.378424    0.734169
      9          1           0        0.830779    3.089573   -0.318787
     10          1           0        2.166174    4.110948   -0.878092
     11          6           0        2.962660   -0.546152   -0.654326
     12          6           0        2.635562   -1.818806    0.127558
     13          6           0        3.324958   -3.057796   -0.444659
     14          1           0        2.664079   -0.681551   -1.703093
     15          1           0        4.050693   -0.394086   -0.656294
     16          1           0        1.548166   -1.967757    0.127827
     17          1           0        2.933403   -1.680538    1.174835
     18          1           0        4.412728   -2.934756   -0.429912
     19          1           0        3.019620   -3.223607   -1.482868
     20          1           0        3.077333   -3.956131    0.129394
     21          6           0       -0.698689    0.368022    2.380764
     22          6           0       -1.201387   -0.911462    2.122430
     23          6           0       -1.950427   -1.160387    0.968514
     24          6           0       -2.178715   -0.101901    0.090571
     25          6           0       -1.691327    1.183819    0.320066
     26          6           0       -0.944829    1.409742    1.480344
     27          1           0       -0.117804    0.552458    3.279626
     28          1           0       -1.011798   -1.722381    2.819934
     29          1           0       -2.351478   -2.141268    0.743911
     30          1           0       -1.896835    1.972112   -0.393921
     31          1           0       -0.555672    2.404418    1.678391
     32          7           0       -2.970345   -0.353251   -1.134397
     33          8           0       -3.157522    0.596220   -1.892094
     34          8           0       -3.388656   -1.494971   -1.313634
 ---------------------------------------------------------------------

 SCF Done:  E(RHF) =  -669.533546115     A.U. after   15 cycles
 E2 =    -0.2095675744D+01 EUMP2 =    -0.67162922185847D+03

 The electronic state is 1-A.
 Alpha  occ. eigenvalues --  -20.60856 -20.60851 -15.85909 -11.31311 -11.27858
 Alpha  occ. eigenvalues --  -11.27809 -11.27520 -11.26882 -11.26778 -11.21959
 Alpha  occ. eigenvalues --  -11.21833 -11.21738 -11.21575 -11.21501 -11.21255
 Alpha  occ. eigenvalues --   -1.59932  -1.39484  -1.19470  -1.08866  -1.08673
 Alpha  occ. eigenvalues --   -1.04878  -1.03863  -0.96328  -0.95675  -0.87355
 Alpha  occ. eigenvalues --   -0.86248  -0.82514  -0.79938  -0.78526  -0.77553
 Alpha  occ. eigenvalues --   -0.72123  -0.71258  -0.70539  -0.65359  -0.65093
 Alpha  occ. eigenvalues --   -0.64852  -0.62250  -0.61258  -0.59690  -0.57945
 Alpha  occ. eigenvalues --   -0.55642  -0.55324  -0.53420  -0.53039  -0.52963
 Alpha  occ. eigenvalues --   -0.52626  -0.50281  -0.48887  -0.48879  -0.48257
 Alpha  occ. eigenvalues --   -0.46970  -0.46037  -0.45848  -0.44880  -0.44076
 Alpha  occ. eigenvalues --   -0.37381  -0.36337
 Alpha virt. eigenvalues --    0.04915   0.11134   0.16301   0.20525   0.22839
 Alpha virt. eigenvalues --    0.23910   0.25765   0.26273   0.27217   0.28184
 Alpha virt. eigenvalues --    0.28771   0.30829   0.30924   0.31404   0.32218

 Mulliken charges:
               1
     1  C   -0.304637
     2  C   -0.299278
     3  C   -0.477381
     4  H    0.163772
     5  H    0.140504
     6  H    0.156169
     7  H    0.152715
     8  H    0.150135
     9  H    0.148290
    10  H    0.164316
    11  C   -0.298127
    12  C   -0.300664
    13  C   -0.475767
    14  H    0.152460
    15  H    0.148756
    16  H    0.153098
    17  H    0.146587
    18  H    0.155234
    19  H    0.158138
    20  H    0.158726
    21  C   -0.168383
    22  C   -0.216417
    23  C   -0.173151
    24  C    0.160282
    25  C   -0.176291
    26  C   -0.216948
    27  H    0.226046
    28  H    0.224457
    29  H    0.276102
    30  H    0.275766
    31  H    0.227622
    32  N    0.488056
    33  O   -0.460168
    34  O   -0.460020
 Sum of Mulliken charges =  -0.00000

 Dipole moment (field-independent basis, Debye):
    X=              2.7203    Y=              0.8569    Z=              4.2903  Tot=              5.1518
 Quadrupole moment (field-independent basis, Debye-Ang):
   XX=           -107.4768   YY=            -91.5410   ZZ=            -93.7786
   XY=             -1.0438   XZ=             -9.0250   YZ=             -2.0316

 Normal termination of Gaussian 16 at Thu May  6 07:16:11 2021.
