 Gaussian 16, Revision A.03,
 Gaussian 16:  EM64L-G16RevA.03 25-Dec-2016

 -------------
 #p 6-31g* mp2
 -------------

 ------------------------------------------------------
 Input file generated by CHIRIPA (05-May-2021 14:55:21)
 ------------------------------------------------------
 Symbolic Z-matrix:
 Charge =  0 Multiplicity = 1

                         Standard orientation:
 ---------------------------------------------------------------------
 Center     Atomic      Atomic             Coordinates (Angstroms)
 Number     Number       Type             X           Y           Z
 ---------------------------------------------------------------------
      1          6           0        5.586594    1.392254   -0.594890
      2          6           0        5.453080    0.054999   -0.982759
      3          6           0        4.342750   -0.693408   -0.580758
      4          6           0        3.380641   -0.070062    0.212384
      5          6           0        3.485233    1.260396    0.615164
      6          6           0        4.603977    1.989632    0.201430
      7          1           0        6.452392    1.966188   -0.911731
      8          1           0        6.214630   -0.411537   -1.601168
      9          1           0        4.214302   -1.730328   -0.866618
     10          1           0        2.709616    1.698015    1.231869
     11          1           0        4.705036    3.027988    0.504165
     12          7           0        2.200731   -0.852219    0.644175
     13          8           0        1.367013   -0.279878    1.342729
     14          8           0        2.131977   -2.022805    0.275883
     15          6           0       -4.013996   -0.482038    0.138641
     16          6           0       -2.827658   -0.716075   -0.797208
     17          6           0       -1.711173   -1.531206   -0.143897
     18          1           0       -3.663134    0.033160    1.043302
     19          1           0       -4.410973   -1.452951    0.465952
     20          1           0       -2.433905    0.254979   -1.123751
     21          1           0       -3.181419   -1.230603   -1.699831
     22          1           0       -2.082262   -2.513323    0.166493
     23          1           0       -1.330502   -1.019299    0.745845
     24          1           0       -0.873128   -1.686656   -0.830465
     25          6           0       -5.138270    0.331390   -0.500164
     26          6           0       -6.324608    0.565426    0.435685
     27          6           0       -7.441094    1.380558   -0.217626
     28          1           0       -4.741293    1.302303   -0.827475
     29          1           0       -5.489133   -0.183808   -1.404825
     30          1           0       -5.970848    1.079955    1.338308
     31          1           0       -6.718361   -0.405627    0.762229
     32          1           0       -7.821765    0.868651   -1.107368
     33          1           0       -7.070004    2.362675   -0.528015
     34          1           0       -8.279139    1.536008    0.468942
 ---------------------------------------------------------------------

 SCF Done:  E(RHF) =  -669.536081687     A.U. after   15 cycles
 E2 =    -0.2091367590D+01 EUMP2 =    -0.67162744927713D+03

 The electronic state is 1-A.
 Alpha  occ. eigenvalues --  -20.60941 -20.60936 -15.85959 -11.31297 -11.27859
 Alpha  occ. eigenvalues --  -11.27854 -11.27596 -11.26866 -11.26856 -11.21001
 Alpha  occ. eigenvalues --  -11.20645 -11.20596 -11.20412 -11.20345 -11.19183
 Alpha  occ. eigenvalues --   -1.59985  -1.39545  -1.19462  -1.08864  -1.07541
 Alpha  occ. eigenvalues --   -1.04860  -1.02534  -0.95708  -0.94939  -0.86260
 Alpha  occ. eigenvalues --   -0.85945  -0.82539  -0.78633  -0.77591  -0.77312
 Alpha  occ. eigenvalues --   -0.72183  -0.71301  -0.70571  -0.65118  -0.64863
 Alpha  occ. eigenvalues --   -0.64183  -0.62207  -0.59936  -0.58403  -0.56556
 Alpha  occ. eigenvalues --   -0.55367  -0.54235  -0.53191  -0.52952  -0.51618
 Alpha  occ. eigenvalues --   -0.51373  -0.49205  -0.48924  -0.48603  -0.46918
 Alpha  occ. eigenvalues --   -0.45693  -0.44984  -0.44832  -0.44679  -0.42774
 Alpha  occ. eigenvalues --   -0.37440  -0.36461
 Alpha virt. eigenvalues --    0.04921   0.11194   0.16413   0.21329   0.23683
 Alpha virt. eigenvalues --    0.25375   0.27245   0.27497   0.28196   0.28324
 Alpha virt. eigenvalues --    0.29181   0.30902   0.32346   0.32472   0.32599

 Mulliken charges:
               1
     1  C   -0.170605
     2  C   -0.218558
     3  C   -0.170802
     4  C    0.158719
     5  C   -0.170812
     6  C   -0.218541
     7  H    0.225991
     8  H    0.223845
     9  H    0.275901
    10  H    0.275589
    11  H    0.223785
    12  N    0.488979
    13  O   -0.459235
    14  O   -0.458783
    15  C   -0.297460
    16  C   -0.300290
    17  C   -0.478254
    18  H    0.150411
    19  H    0.148240
    20  H    0.146548
    21  H    0.145847
    22  H    0.149124
    23  H    0.176392
    24  H    0.160846
    25  C   -0.297161
    26  C   -0.298975
    27  C   -0.475125
    28  H    0.147217
    29  H    0.147781
    30  H    0.151398
    31  H    0.151434
    32  H    0.154243
    33  H    0.153816
    34  H    0.158496
 Sum of Mulliken charges =  -0.00000

 Dipole moment (field-independent basis, Debye):
    X=              4.5264    Y=              2.7276    Z=             -1.4019  Tot=              5.4675
 Quadrupole moment (field-independent basis, Debye-Ang):
   XX=            -68.4141   YY=            -91.8391   ZZ=            -94.9976
   XY=              8.5756   XZ=             -5.8837   YZ=              3.3810

 Normal termination of Gaussian 16 at Thu May  6 10:53:48 2021.
