 Gaussian 16, Revision A.03,
 Gaussian 16:  EM64L-G16RevA.03 25-Dec-2016

 -------------
 #p 6-31g* mp2
 -------------

 ------------------------------------------------------
 Input file generated by CHIRIPA (05-May-2021 14:51:11)
 ------------------------------------------------------
 Symbolic Z-matrix:
 Charge =  0 Multiplicity = 1

                         Standard orientation:
 ---------------------------------------------------------------------
 Center     Atomic      Atomic             Coordinates (Angstroms)
 Number     Number       Type             X           Y           Z
 ---------------------------------------------------------------------
      1          6           0        3.637480    0.990830   -0.211857
      2          6           0        2.622647    2.080384    0.135952
      3          6           0        3.208770    3.488801    0.032931
      4          1           0        4.504162    1.078717    0.457533
      5          1           0        4.011431    1.159704   -1.231189
      6          1           0        2.249692    1.908707    1.153816
      7          1           0        1.758195    1.989773   -0.534218
      8          1           0        3.564185    3.684731   -0.983874
      9          1           0        4.058474    3.603205    0.713751
     10          1           0        2.466288    4.252117    0.285774
     11          6           0        3.066420   -0.422655   -0.113466
     12          6           0        4.081253   -1.512209   -0.461275
     13          6           0        3.495130   -2.920627   -0.358254
     14          1           0        2.692468   -0.591529    0.905866
     15          1           0        2.199738   -0.510542   -0.782855
     16          1           0        4.945705   -1.421598    0.208895
     17          1           0        4.454208   -1.340532   -1.479139
     18          1           0        2.645425   -3.035030   -1.039074
     19          1           0        3.139715   -3.116557    0.658551
     20          1           0        4.237612   -3.683943   -0.611096
     21          6           0       -2.787684   -0.797843    0.129632
     22          6           0       -1.550735   -0.392373    0.931838
     23          6           0       -0.430566   -1.430284    0.855984
     24          1           0       -3.155980   -1.764595    0.499354
     25          1           0       -2.500924   -0.953181   -0.919670
     26          1           0       -1.840010   -0.236502    1.979044
     27          1           0       -1.185454    0.573618    0.560290
     28          1           0       -0.113731   -1.580041   -0.181219
     29          1           0       -0.772005   -2.394763    1.245596
     30          1           0        0.443962   -1.120282    1.436468
     31          6           0       -3.916215    0.229668    0.195691
     32          6           0       -5.153164   -0.175802   -0.606515
     33          6           0       -6.273334    0.862109   -0.530661
     34          1           0       -4.202976    0.385006    1.244992
     35          1           0       -3.547919    1.196420   -0.174032
     36          1           0       -5.518445   -1.141793   -0.234967
     37          1           0       -4.863890   -0.331673   -1.653721
     38          1           0       -5.931894    1.826588   -0.920274
     39          1           0       -6.590169    1.011866    0.506542
     40          1           0       -7.147862    0.552109   -1.111146
 ---------------------------------------------------------------------

 SCF Done:  E(RHF) =  -470.732318278     A.U. after   11 cycles
 E2 =    -0.1583624418D+01 EUMP2 =    -0.47231594269630D+03

 The electronic state is 1-A.
 Alpha  occ. eigenvalues --  -11.21616 -11.21586 -11.21560 -11.21533 -11.21375
 Alpha  occ. eigenvalues --  -11.21367 -11.21315 -11.21281 -11.21081 -11.21060
 Alpha  occ. eigenvalues --  -11.21021 -11.20920  -1.08429  -1.08375  -1.03523
 Alpha  occ. eigenvalues --   -1.03471  -0.95988  -0.95902  -0.87022  -0.86908
 Alpha  occ. eigenvalues --   -0.79661  -0.79482  -0.78255  -0.78164  -0.65081
 Alpha  occ. eigenvalues --   -0.64998  -0.60932  -0.60869  -0.59400  -0.59252
 Alpha  occ. eigenvalues --   -0.57664  -0.57456  -0.55277  -0.55200  -0.52778
 Alpha  occ. eigenvalues --   -0.52622  -0.52398  -0.52250  -0.49938  -0.49858
 Alpha  occ. eigenvalues --   -0.47902  -0.47870  -0.46674  -0.46538  -0.45821
 Alpha  occ. eigenvalues --   -0.45715  -0.45686  -0.45544  -0.43769  -0.43641
 Alpha virt. eigenvalues --    0.21356   0.23126   0.23724   0.24224   0.24871
 Alpha virt. eigenvalues --    0.26343   0.27194   0.27419   0.27982   0.29745
 Alpha virt. eigenvalues --    0.30567   0.31094   0.31721   0.32074   0.32281

 Mulliken charges:
               1
     1  C   -0.298037
     2  C   -0.300185
     3  C   -0.475628
     4  H    0.149340
     5  H    0.149160
     6  H    0.151867
     7  H    0.151711
     8  H    0.155197
     9  H    0.155300
    10  H    0.160213
    11  C   -0.300626
    12  C   -0.299644
    13  C   -0.475861
    14  H    0.151806
    15  H    0.152472
    16  H    0.151447
    17  H    0.151382
    18  H    0.155412
    19  H    0.155932
    20  H    0.159842
    21  C   -0.298360
    22  C   -0.300969
    23  C   -0.476845
    24  H    0.149627
    25  H    0.148978
    26  H    0.151325
    27  H    0.152560
    28  H    0.155406
    29  H    0.153620
    30  H    0.163873
    31  C   -0.298164
    32  C   -0.299588
    33  C   -0.475672
    34  H    0.149478
    35  H    0.149480
    36  H    0.151930
    37  H    0.151767
    38  H    0.155111
    39  H    0.155168
    40  H    0.160178
 Sum of Mulliken charges =  -0.00000

 Dipole moment (field-independent basis, Debye):
    X=              0.0251    Y=             -0.0061    Z=              0.0060  Tot=              0.0265
 Quadrupole moment (field-independent basis, Debye-Ang):
   XX=            -85.6224   YY=            -86.2123   ZZ=            -83.1262
   XY=              0.4265   XZ=             -0.0234   YZ=             -0.3890

 Normal termination of Gaussian 16 at Wed May  5 23:04:33 2021.
