 Gaussian 16, Revision A.03,
 Gaussian 16:  EM64L-G16RevA.03 25-Dec-2016

 -------------
 #p 6-31g* mp2
 -------------

 ------------------------------------------------------
 Input file generated by CHIRIPA (05-May-2021 14:51:13)
 ------------------------------------------------------
 Symbolic Z-matrix:
 Charge =  0 Multiplicity = 1

                         Standard orientation:
 ---------------------------------------------------------------------
 Center     Atomic      Atomic             Coordinates (Angstroms)
 Number     Number       Type             X           Y           Z
 ---------------------------------------------------------------------
      1          6           0        3.905647   -0.100636    0.009887
      2          6           0        4.393277    1.178412   -0.671463
      3          6           0        5.757587    1.008578   -1.340497
      4          1           0        4.645997   -0.415014    0.758214
      5          1           0        3.852092   -0.906909   -0.734728
      6          1           0        4.444573    1.982384    0.073932
      7          1           0        3.651589    1.489887   -1.418122
      8          1           0        5.717199    0.225422   -2.104458
      9          1           0        6.514689    0.720717   -0.603928
     10          1           0        6.087022    1.934922   -1.821350
     11          6           0        2.543069    0.053314    0.683243
     12          6           0        2.055439   -1.225734    1.364593
     13          6           0        0.691128   -1.055900    2.033627
     14          1           0        2.596623    0.859586    1.427858
     15          1           0        1.802719    0.367691   -0.065084
     16          1           0        2.797126   -1.537210    2.111251
     17          1           0        2.004142   -2.029706    0.619198
     18          1           0       -0.065974   -0.768039    1.297057
     19          1           0        0.731516   -0.272744    2.797588
     20          1           0        0.361693   -1.982244    2.514480
     21          6           0       -3.374515   -0.652076   -0.669464
     22          6           0       -2.251719   -1.673938   -0.487502
     23          6           0       -2.566884   -3.020802   -1.138980
     24          1           0       -4.303195   -1.057786   -0.245320
     25          1           0       -3.558424   -0.507054   -1.743029
     26          1           0       -2.069042   -1.815958    0.585380
     27          1           0       -1.325560   -1.265670   -0.911957
     28          1           0       -2.728493   -2.899835   -2.215014
     29          1           0       -3.476199   -3.453249   -0.709170
     30          1           0       -1.750947   -3.736264   -0.996778
     31          6           0       -3.074200    0.699398   -0.023665
     32          6           0       -4.196996    1.721261   -0.205628
     33          6           0       -3.881831    3.068124    0.445850
     34          1           0       -2.890292    0.554376    1.049900
     35          1           0       -2.145519    1.105108   -0.447808
     36          1           0       -5.123155    1.312992    0.218828
     37          1           0       -4.379673    1.863280   -1.278509
     38          1           0       -2.972516    3.500572    0.016040
     39          1           0       -3.720222    2.947157    1.521886
     40          1           0       -4.697768    3.783586    0.303649
 ---------------------------------------------------------------------

 SCF Done:  E(RHF) =  -470.732627872     A.U. after   11 cycles
 E2 =    -0.1583341791D+01 EUMP2 =    -0.47231596966298D+03

 The electronic state is 1-A.
 Alpha  occ. eigenvalues --  -11.21617 -11.21603 -11.21594 -11.21540 -11.21427
 Alpha  occ. eigenvalues --  -11.21382 -11.21368 -11.21322 -11.21092 -11.21073
 Alpha  occ. eigenvalues --  -11.21066 -11.20892  -1.08464  -1.08392  -1.03568
 Alpha  occ. eigenvalues --   -1.03468  -0.95999  -0.95932  -0.87038  -0.86934
 Alpha  occ. eigenvalues --   -0.79710  -0.79487  -0.78321  -0.78163  -0.65086
 Alpha  occ. eigenvalues --   -0.65032  -0.60962  -0.60894  -0.59369  -0.59302
 Alpha  occ. eigenvalues --   -0.57612  -0.57543  -0.55287  -0.55231  -0.52718
 Alpha  occ. eigenvalues --   -0.52625  -0.52443  -0.52327  -0.49988  -0.49890
 Alpha  occ. eigenvalues --   -0.48041  -0.47763  -0.46714  -0.46577  -0.45914
 Alpha  occ. eigenvalues --   -0.45738  -0.45702  -0.45393  -0.43802  -0.43741
 Alpha virt. eigenvalues --    0.21468   0.23140   0.23781   0.24648   0.25766
 Alpha virt. eigenvalues --    0.25924   0.27094   0.27874   0.28029   0.29302
 Alpha virt. eigenvalues --    0.30780   0.31324   0.31781   0.31890   0.32103

 Mulliken charges:
               1
     1  C   -0.298269
     2  C   -0.299577
     3  C   -0.475683
     4  H    0.149716
     5  H    0.149368
     6  H    0.151970
     7  H    0.151623
     8  H    0.155126
     9  H    0.155215
    10  H    0.160184
    11  C   -0.298383
    12  C   -0.299242
    13  C   -0.483614
    14  H    0.149645
    15  H    0.148940
    16  H    0.151491
    17  H    0.151375
    18  H    0.166784
    19  H    0.153774
    20  H    0.158263
    21  C   -0.297784
    22  C   -0.304750
    23  C   -0.475103
    24  H    0.149758
    25  H    0.149282
    26  H    0.158225
    27  H    0.151138
    28  H    0.154945
    29  H    0.155310
    30  H    0.160251
    31  C   -0.299996
    32  C   -0.299595
    33  C   -0.475740
    34  H    0.151163
    35  H    0.149218
    36  H    0.152079
    37  H    0.151926
    38  H    0.155269
    39  H    0.155451
    40  H    0.160248
 Sum of Mulliken charges =  -0.00000

 Dipole moment (field-independent basis, Debye):
    X=             -0.0528    Y=             -0.0011    Z=             -0.0027  Tot=              0.0529
 Quadrupole moment (field-independent basis, Debye-Ang):
   XX=            -85.3374   YY=            -85.6770   ZZ=            -83.8216
   XY=              0.2013   XZ=              0.4255   YZ=             -0.4251

 Normal termination of Gaussian 16 at Wed May  5 18:24:05 2021.
