 Gaussian 16, Revision A.03,
 Gaussian 16:  EM64L-G16RevA.03 25-Dec-2016

 -------------
 #p 6-31g* mp2
 -------------

 ------------------------------------------------------
 Input file generated by CHIRIPA (05-May-2021 14:57:24)
 ------------------------------------------------------
 Symbolic Z-matrix:
 Charge =  0 Multiplicity = 1

                         Standard orientation:
 ---------------------------------------------------------------------
 Center     Atomic      Atomic             Coordinates (Angstroms)
 Number     Number       Type             X           Y           Z
 ---------------------------------------------------------------------
      1          6           0       -5.924732    0.588603   -0.334304
      2          6           0       -5.318047    0.755880    0.914885
      3          6           0       -4.007058    0.321174    1.131419
      4          6           0       -3.328968   -0.279378    0.071786
      5          6           0       -3.906076   -0.460212   -1.184214
      6          6           0       -5.218056   -0.017840   -1.378026
      7          1           0       -6.943524    0.929271   -0.493687
      8          1           0       -5.864457    1.226513    1.727280
      9          1           0       -3.513253    0.438168    2.088438
     10          1           0       -3.336059   -0.932932   -1.974806
     11          1           0       -5.686686   -0.149059   -2.349217
     12          7           0       -1.940559   -0.743640    0.288993
     13          8           0       -1.364544   -1.269714   -0.660791
     14          8           0       -1.454627   -0.572664    1.404912
     15          6           0        3.010191    2.663277   -0.147390
     16          6           0        1.994322    1.729788    0.083117
     17          6           0        2.286171    0.364023    0.146821
     18          6           0        3.610735   -0.035001   -0.025217
     19          6           0        4.644903    0.870743   -0.256333
     20          6           0        4.329912    2.231536   -0.316081
     21          1           0        2.774487    3.722305   -0.195340
     22          1           0        0.968513    2.062205    0.214491
     23          1           0        1.519162   -0.380105    0.323986
     24          1           0        5.658034    0.509036   -0.383429
     25          1           0        5.120886    2.954247   -0.495230
     26          7           0        3.931953   -1.478244    0.040129
     27          8           0        5.106871   -1.804173   -0.114701
     28          8           0        3.002721   -2.256202    0.244940
 ---------------------------------------------------------------------

 SCF Done:  E(RHF) =  -868.339708916     A.U. after   16 cycles
 E2 =    -0.2599504696D+01 EUMP2 =    -0.87093921361196D+03

 The electronic state is 1-A.
 Alpha  occ. eigenvalues --  -20.61561 -20.61532 -20.59590 -20.59533 -15.86528
 Alpha  occ. eigenvalues --  -15.84615 -11.31715 -11.29955 -11.28262 -11.28238
 Alpha  occ. eigenvalues --  -11.27959 -11.27224 -11.27206 -11.26677 -11.26452
 Alpha  occ. eigenvalues --  -11.26328 -11.25709 -11.25554  -1.60595  -1.58646
 Alpha  occ. eigenvalues --   -1.40145  -1.38192  -1.19866  -1.18181  -1.09297
 Alpha  occ. eigenvalues --   -1.07612  -1.05233  -1.03566  -0.96157  -0.94421
 Alpha  occ. eigenvalues --   -0.86640  -0.84982  -0.82987  -0.81242  -0.78065
 Alpha  occ. eigenvalues --   -0.76254  -0.72718  -0.71907  -0.70964  -0.70836
 Alpha  occ. eigenvalues --   -0.69974  -0.69305  -0.65513  -0.65229  -0.63838
 Alpha  occ. eigenvalues --   -0.63595  -0.62576  -0.60870  -0.55739  -0.54157
 Alpha  occ. eigenvalues --   -0.53579  -0.53316  -0.51940  -0.51669  -0.49508
 Alpha  occ. eigenvalues --   -0.49466  -0.47620  -0.47566  -0.45582  -0.43602
 Alpha  occ. eigenvalues --   -0.37838  -0.36829  -0.36241  -0.35172
 Alpha virt. eigenvalues --    0.04427   0.06251   0.10829   0.12464   0.15963
 Alpha virt. eigenvalues --    0.17694   0.21000   0.22526   0.26939   0.27834
 Alpha virt. eigenvalues --    0.28390   0.29514   0.30660   0.31995   0.32138

 Mulliken charges:
               1
     1  C   -0.170039
     2  C   -0.218713
     3  C   -0.171545
     4  C    0.157797
     5  C   -0.170667
     6  C   -0.218704
     7  H    0.227424
     8  H    0.224894
     9  H    0.275883
    10  H    0.277747
    11  H    0.225508
    12  N    0.486537
    13  O   -0.455814
    14  O   -0.463628
    15  C   -0.171487
    16  C   -0.221684
    17  C   -0.174615
    18  C    0.155296
    19  C   -0.171563
    20  C   -0.220392
    21  H    0.219783
    22  H    0.220596
    23  H    0.300555
    24  H    0.271887
    25  H    0.218287
    26  N    0.487015
    27  O   -0.467477
    28  O   -0.452882
 Sum of Mulliken charges =  -0.00000

 Dipole moment (field-independent basis, Debye):
    X=             -6.6169    Y=              6.4767    Z=             -0.9963  Tot=              9.3125
 Quadrupole moment (field-independent basis, Debye-Ang):
   XX=            -77.2160   YY=           -107.2148   ZZ=           -101.1346
   XY=             14.8583   XZ=              0.6109   YZ=              1.8653

 Normal termination of Gaussian 16 at Fri May  7 06:29:10 2021.
