 Gaussian 16, Revision A.03,
 Gaussian 16:  EM64L-G16RevA.03 25-Dec-2016

 -------------
 #p 6-31g* mp2
 -------------

 ------------------------------------------------------
 Input file generated by CHIRIPA (05-May-2021 14:55:25)
 ------------------------------------------------------
 Symbolic Z-matrix:
 Charge =  0 Multiplicity = 1

                         Standard orientation:
 ---------------------------------------------------------------------
 Center     Atomic      Atomic             Coordinates (Angstroms)
 Number     Number       Type             X           Y           Z
 ---------------------------------------------------------------------
      1          6           0        5.280132   -1.197777    0.351201
      2          6           0        5.378595    0.161657    0.665474
      3          6           0        4.301973    1.023358    0.435463
      4          6           0        3.136656    0.489460   -0.112514
      5          6           0        3.007830   -0.860312   -0.436258
      6          6           0        4.097149   -1.703530   -0.197694
      7          1           0        6.121410   -1.859988    0.533201
      8          1           0        6.296083    0.557207    1.091854
      9          1           0        4.351089    2.079902    0.669385
     10          1           0        2.080253   -1.225376   -0.860225
     11          1           0        4.017840   -2.758853   -0.442745
     12          7           0        1.990163    1.391921   -0.360543
     13          8           0        0.974475    0.896870   -0.844216
     14          8           0        2.128940    2.577233   -0.066581
     15          6           0       -3.692747   -0.774880   -0.296302
     16          6           0       -2.488813   -1.135186    0.574735
     17          6           0       -1.368717   -1.812170   -0.215752
     18          1           0       -4.077957   -1.686407   -0.773459
     19          1           0       -3.363596   -0.112073   -1.108548
     20          1           0       -2.820388   -1.796004    1.385903
     21          1           0       -2.106542   -0.222724    1.050024
     22          1           0       -1.009999   -1.155520   -1.014961
     23          1           0       -1.727902   -2.737738   -0.677174
     24          1           0       -0.518026   -2.061084    0.426297
     25          6           0       -4.820819   -0.097372    0.479689
     26          6           0       -6.024754    0.262934   -0.391348
     27          6           0       -7.144850    0.939918    0.399139
     28          1           0       -5.149970   -0.760179    1.291934
     29          1           0       -4.435609    0.814155    0.956845
     30          1           0       -6.407024   -0.649528   -0.866637
     31          1           0       -5.693177    0.923751   -1.202516
     32          1           0       -6.785664    1.865486    0.860560
     33          1           0       -7.503567    0.283268    1.198347
     34          1           0       -7.995540    1.188832   -0.242910
 ---------------------------------------------------------------------

 SCF Done:  E(RHF) =  -669.536093929     A.U. after   15 cycles
 E2 =    -0.2091198194D+01 EUMP2 =    -0.67162729212323D+03

 The electronic state is 1-A.
 Alpha  occ. eigenvalues --  -20.60873 -20.60866 -15.85916 -11.31228 -11.27799
 Alpha  occ. eigenvalues --  -11.27772 -11.27537 -11.26807 -11.26792 -11.21055
 Alpha  occ. eigenvalues --  -11.20852 -11.20759 -11.20646 -11.20599 -11.20337
 Alpha  occ. eigenvalues --   -1.59940  -1.39496  -1.19400  -1.08807  -1.07766
 Alpha  occ. eigenvalues --   -1.04795  -1.02886  -0.95657  -0.95346  -0.86385
 Alpha  occ. eigenvalues --   -0.86193  -0.82485  -0.78972  -0.77599  -0.77510
 Alpha  occ. eigenvalues --   -0.72150  -0.71256  -0.70509  -0.65060  -0.64800
 Alpha  occ. eigenvalues --   -0.64375  -0.62144  -0.60249  -0.58743  -0.56972
 Alpha  occ. eigenvalues --   -0.55303  -0.54606  -0.53130  -0.52895  -0.52079
 Alpha  occ. eigenvalues --   -0.51786  -0.49334  -0.48893  -0.48820  -0.47285
 Alpha  occ. eigenvalues --   -0.45961  -0.45132  -0.45019  -0.44890  -0.43164
 Alpha  occ. eigenvalues --   -0.37383  -0.36396
 Alpha virt. eigenvalues --    0.04981   0.11236   0.16477   0.21149   0.23543
 Alpha virt. eigenvalues --    0.24659   0.26593   0.27362   0.27743   0.28180
 Alpha virt. eigenvalues --    0.29251   0.30816   0.31650   0.32152   0.32350

 Mulliken charges:
               1
     1  C   -0.170498
     2  C   -0.218707
     3  C   -0.170812
     4  C    0.157353
     5  C   -0.172850
     6  C   -0.219409
     7  H    0.225753
     8  H    0.223541
     9  H    0.275534
    10  H    0.280487
    11  H    0.224040
    12  N    0.492180
    13  O   -0.464969
    14  O   -0.459922
    15  C   -0.299385
    16  C   -0.298173
    17  C   -0.481668
    18  H    0.145732
    19  H    0.155808
    20  H    0.146340
    21  H    0.159480
    22  H    0.176132
    23  H    0.147223
    24  H    0.149424
    25  C   -0.298428
    26  C   -0.299483
    27  C   -0.475484
    28  H    0.146809
    29  H    0.152118
    30  H    0.150037
    31  H    0.153478
    32  H    0.155826
    33  H    0.153671
    34  H    0.158819
 Sum of Mulliken charges =  -0.00000

 Dipole moment (field-independent basis, Debye):
    X=              4.1800    Y=             -3.0208    Z=              0.8113  Tot=              5.2207
 Quadrupole moment (field-independent basis, Debye-Ang):
   XX=            -69.6579   YY=            -95.0401   ZZ=            -95.2957
   XY=             -5.3898   XZ=              3.9160   YZ=              2.0655

 Normal termination of Gaussian 16 at Thu May  6 04:47:52 2021.
