 Gaussian 16, Revision A.03,
 Gaussian 16:  EM64L-G16RevA.03 25-Dec-2016

 -------------
 #p 6-31g* mp2
 -------------

 ------------------------------------------------------
 Input file generated by CHIRIPA (05-May-2021 14:51:14)
 ------------------------------------------------------
 Symbolic Z-matrix:
 Charge =  0 Multiplicity = 1

                         Standard orientation:
 ---------------------------------------------------------------------
 Center     Atomic      Atomic             Coordinates (Angstroms)
 Number     Number       Type             X           Y           Z
 ---------------------------------------------------------------------
      1          6           0        4.255431    0.192700   -0.238465
      2          6           0        3.024234   -0.256484    0.549172
      3          6           0        1.728898    0.365562    0.026720
      4          1           0        4.330067    1.287975   -0.196680
      5          1           0        4.121547   -0.071327   -1.296652
      6          1           0        3.161004    0.007073    1.605793
      7          1           0        2.952628   -1.350831    0.505668
      8          1           0        1.565363    0.092192   -1.020718
      9          1           0        1.774922    1.457812    0.085658
     10          1           0        0.861432    0.030905    0.604100
     11          6           0        5.558107   -0.420703    0.271928
     12          6           0        6.789305    0.028481   -0.515709
     13          6           0        8.084641   -0.593565    0.006743
     14          1           0        5.691991   -0.156676    1.330115
     15          1           0        5.483472   -1.515978    0.230143
     16          1           0        6.860910    1.122828   -0.472205
     17          1           0        6.652535   -0.235076   -1.572330
     18          1           0        8.038616   -1.685815   -0.052196
     19          1           0        8.248176   -0.320195    1.054181
     20          1           0        8.952107   -0.258908   -0.570638
     21          6           0       -4.150192    0.013513   -0.047135
     22          6           0       -3.359341    1.313623    0.102050
     23          6           0       -1.847194    1.096256    0.039155
     24          1           0       -3.845708   -0.686174    0.743227
     25          1           0       -3.886376   -0.460376   -1.002763
     26          1           0       -3.625603    1.785618    1.056481
     27          1           0       -3.665881    2.010366   -0.688645
     28          1           0       -1.562001    0.647333   -0.917785
     29          1           0       -1.521496    0.421308    0.837257
     30          1           0       -1.301276    2.038596    0.147917
     31          6           0       -5.663347    0.214490    0.013672
     32          6           0       -6.454198   -1.085619   -0.135512
     33          6           0       -7.966344   -0.868253   -0.072618
     34          1           0       -5.927163    0.688379    0.969300
     35          1           0       -5.967830    0.914177   -0.776690
     36          1           0       -6.147658   -1.782364    0.655182
     37          1           0       -6.187935   -1.557615   -1.089944
     38          1           0       -8.292044   -0.193304   -0.870719
     39          1           0       -8.251537   -0.419330    0.884323
     40          1           0       -8.512262   -1.810593   -0.181379
 ---------------------------------------------------------------------

 SCF Done:  E(RHF) =  -470.732681514     A.U. after   11 cycles
 E2 =    -0.1582535433D+01 EUMP2 =    -0.47231521694653D+03

 The electronic state is 1-A.
 Alpha  occ. eigenvalues --  -11.21587 -11.21568 -11.21537 -11.21503 -11.21379
 Alpha  occ. eigenvalues --  -11.21351 -11.21320 -11.21288 -11.21060 -11.21045
 Alpha  occ. eigenvalues --  -11.20986 -11.20889  -1.08402  -1.08368  -1.03518
 Alpha  occ. eigenvalues --   -1.03438  -0.96020  -0.95836  -0.87107  -0.86785
 Alpha  occ. eigenvalues --   -0.79679  -0.79407  -0.78224  -0.78173  -0.65034
 Alpha  occ. eigenvalues --   -0.65001  -0.60912  -0.60851  -0.59366  -0.59249
 Alpha  occ. eigenvalues --   -0.57639  -0.57448  -0.55266  -0.55168  -0.52993
 Alpha  occ. eigenvalues --   -0.52540  -0.52318  -0.52084  -0.49922  -0.49809
 Alpha  occ. eigenvalues --   -0.47930  -0.47775  -0.46609  -0.46538  -0.45764
 Alpha  occ. eigenvalues --   -0.45726  -0.45679  -0.45649  -0.43850  -0.43550
 Alpha virt. eigenvalues --    0.22534   0.22998   0.23608   0.24797   0.26473
 Alpha virt. eigenvalues --    0.26590   0.26678   0.27425   0.27644   0.29182
 Alpha virt. eigenvalues --    0.29750   0.30473   0.31352   0.32149   0.32388

 Mulliken charges:
               1
     1  C   -0.298416
     2  C   -0.300551
     3  C   -0.476261
     4  H    0.149373
     5  H    0.149250
     6  H    0.151243
     7  H    0.151286
     8  H    0.153972
     9  H    0.154101
    10  H    0.166292
    11  C   -0.298127
    12  C   -0.299543
    13  C   -0.475653
    14  H    0.149353
    15  H    0.149485
    16  H    0.151841
    17  H    0.151825
    18  H    0.155109
    19  H    0.155110
    20  H    0.160119
    21  C   -0.298262
    22  C   -0.301289
    23  C   -0.473695
    24  H    0.149321
    25  H    0.149408
    26  H    0.151465
    27  H    0.151590
    28  H    0.156393
    29  H    0.154120
    30  H    0.161301
    31  C   -0.298178
    32  C   -0.299596
    33  C   -0.475683
    34  H    0.149453
    35  H    0.149622
    36  H    0.151853
    37  H    0.151872
    38  H    0.155161
    39  H    0.155151
    40  H    0.160183
 Sum of Mulliken charges =  -0.00000

 Dipole moment (field-independent basis, Debye):
    X=             -0.0240    Y=              0.0094    Z=             -0.0036  Tot=              0.0260
 Quadrupole moment (field-independent basis, Debye-Ang):
   XX=            -87.4548   YY=            -84.2941   ZZ=            -83.4089
   XY=              0.4812   XZ=             -0.1219   YZ=              0.4774

 Normal termination of Gaussian 16 at Thu May  6 03:59:55 2021.
