 Gaussian 16, Revision A.03,
 Gaussian 16:  EM64L-G16RevA.03 25-Dec-2016

 -------------
 #p 6-31g* mp2
 -------------

 ------------------------------------------------------
 Input file generated by CHIRIPA (05-May-2021 14:53:16)
 ------------------------------------------------------
 Symbolic Z-matrix:
 Charge =  0 Multiplicity = 1

                         Standard orientation:
 ---------------------------------------------------------------------
 Center     Atomic      Atomic             Coordinates (Angstroms)
 Number     Number       Type             X           Y           Z
 ---------------------------------------------------------------------
      1          6           0       -2.639064    0.707407   -0.338635
      2          6           0       -3.696998    1.805791   -0.227672
      3          6           0       -3.119909    3.205878   -0.438666
      4          1           0       -1.846998    0.894133    0.399409
      5          1           0       -2.164150    0.764005   -1.327902
      6          1           0       -4.170737    1.746262    0.760580
      7          1           0       -4.486734    1.616322   -0.965937
      8          1           0       -2.664008    3.289191   -1.430541
      9          1           0       -2.346217    3.419869    0.305786
     10          1           0       -3.893361    3.975708   -0.355043
     11          6           0       -3.200635   -0.697895   -0.130089
     12          6           0       -2.142702   -1.796280   -0.241052
     13          6           0       -2.719791   -3.196367   -0.030057
     14          1           0       -3.675550   -0.754494    0.859178
     15          1           0       -3.992701   -0.884622   -0.868133
     16          1           0       -1.352966   -1.606810    0.497213
     17          1           0       -1.668962   -1.736750   -1.229304
     18          1           0       -3.493483   -3.410358   -0.774510
     19          1           0       -3.175691   -3.279680    0.961817
     20          1           0       -1.946338   -3.966197   -0.113681
     21          6           0        3.161771   -0.023957   -2.181220
     22          6           0        3.575633    0.970239   -1.288576
     23          6           0        3.094207    0.991250    0.023801
     24          6           0        2.195995   -0.001758    0.411668
     25          6           0        1.764792   -1.005501   -0.454272
     26          6           0        2.259263   -1.006920   -1.761959
     27          1           0        3.540821   -0.032669   -3.198885
     28          1           0        4.276443    1.734885   -1.611418
     29          1           0        3.397961    1.749275    0.735526
     30          1           0        1.065234   -1.754429   -0.103351
     31          1           0        1.936107   -1.780247   -2.453032
     32          7           0        1.679426    0.010114    1.798541
     33          8           0        0.888908   -0.875964    2.115689
     34          8           0        2.074838    0.905275    2.542164
 ---------------------------------------------------------------------

 SCF Done:  E(RHF) =  -669.536126717     A.U. after   15 cycles
 E2 =    -0.2092573891D+01 EUMP2 =    -0.67162870060737D+03

 The electronic state is 1-A.
 Alpha  occ. eigenvalues --  -20.60941 -20.60935 -15.85962 -11.31215 -11.27793
 Alpha  occ. eigenvalues --  -11.27746 -11.27526 -11.26785 -11.26767 -11.21351
 Alpha  occ. eigenvalues --  -11.21347 -11.21139 -11.21079 -11.20908 -11.20857
 Alpha  occ. eigenvalues --   -1.59997  -1.39556  -1.19389  -1.08808  -1.08179
 Alpha  occ. eigenvalues --   -1.04777  -1.03311  -0.95761  -0.95657  -0.86777
 Alpha  occ. eigenvalues --   -0.86184  -0.82495  -0.79408  -0.78055  -0.77505
 Alpha  occ. eigenvalues --   -0.72189  -0.71305  -0.70505  -0.65061  -0.64836
 Alpha  occ. eigenvalues --   -0.64728  -0.62143  -0.60684  -0.59137  -0.57387
 Alpha  occ. eigenvalues --   -0.55294  -0.55029  -0.53114  -0.52883  -0.52463
 Alpha  occ. eigenvalues --   -0.52190  -0.49696  -0.48975  -0.48935  -0.47692
 Alpha  occ. eigenvalues --   -0.46387  -0.45608  -0.45499  -0.44792  -0.43557
 Alpha  occ. eigenvalues --   -0.37370  -0.36361
 Alpha virt. eigenvalues --    0.04937   0.11247   0.16410   0.21013   0.23203
 Alpha virt. eigenvalues --    0.24266   0.26424   0.26670   0.27812   0.27990
 Alpha virt. eigenvalues --    0.29123   0.30440   0.31589   0.31788   0.32186

 Mulliken charges:
               1
     1  C   -0.299866
     2  C   -0.299478
     3  C   -0.476066
     4  H    0.154879
     5  H    0.144982
     6  H    0.154395
     7  H    0.150094
     8  H    0.152299
     9  H    0.157793
    10  H    0.159715
    11  C   -0.296095
    12  C   -0.317915
    13  C   -0.474315
    14  H    0.153837
    15  H    0.146932
    16  H    0.175542
    17  H    0.140415
    18  H    0.152971
    19  H    0.160252
    20  H    0.155502
    21  C   -0.170213
    22  C   -0.218863
    23  C   -0.170448
    24  C    0.156401
    25  C   -0.169095
    26  C   -0.220956
    27  H    0.225689
    28  H    0.223490
    29  H    0.275430
    30  H    0.281248
    31  H    0.223860
    32  N    0.489109
    33  O   -0.462596
    34  O   -0.458930
 Sum of Mulliken charges =  -0.00000

 Dipole moment (field-independent basis, Debye):
    X=              1.8849    Y=              0.0051    Z=             -4.7138  Tot=              5.0767
 Quadrupole moment (field-independent basis, Debye-Ang):
   XX=            -85.8750   YY=            -93.1366   ZZ=            -98.2699
   XY=              2.2234   XZ=             -9.8017   YZ=              1.0239

 Normal termination of Gaussian 16 at Wed May  5 18:43:33 2021.
