 Gaussian 16, Revision A.03,
 Gaussian 16:  EM64L-G16RevA.03 25-Dec-2016

 -------------
 #p 6-31g* mp2
 -------------

 ------------------------------------------------------
 Input file generated by CHIRIPA (05-May-2021 14:57:22)
 ------------------------------------------------------
 Symbolic Z-matrix:
 Charge =  0 Multiplicity = 1

                         Standard orientation:
 ---------------------------------------------------------------------
 Center     Atomic      Atomic             Coordinates (Angstroms)
 Number     Number       Type             X           Y           Z
 ---------------------------------------------------------------------
      1          6           0        5.695766    0.804783   -0.277801
      2          6           0        4.716455    1.586048    0.344369
      3          6           0        3.442799    1.064722    0.590475
      4          6           0        3.181608   -0.247599    0.199472
      5          6           0        4.136154   -1.051034   -0.422319
      6          6           0        5.403006   -0.508948   -0.658488
      7          1           0        6.682530    1.217825   -0.465123
      8          1           0        4.940996    2.606625    0.641099
      9          1           0        2.665972    1.647455    1.070454
     10          1           0        3.882603   -2.065065   -0.706698
     11          1           0        6.161595   -1.118005   -1.141850
     12          7           0        1.836847   -0.810492    0.454754
     13          8           0        1.631827   -1.969460    0.100640
     14          8           0        1.013307   -0.082061    1.004123
     15          6           0       -3.153339    2.660883   -0.309572
     16          6           0       -2.114913    1.826653   -0.736484
     17          6           0       -2.242403    0.436709   -0.656816
     18          6           0       -3.427400   -0.087449   -0.142687
     19          6           0       -4.479874    0.717366    0.290744
     20          6           0       -4.330430    2.104558    0.201779
     21          1           0       -3.045774    3.739557   -0.375071
     22          1           0       -1.199637    2.255918   -1.134037
     23          1           0       -1.454251   -0.232372   -0.980182
     24          1           0       -5.380345    0.260098    0.682504
     25          1           0       -5.138537    2.749994    0.534072
     26          7           0       -3.573989   -1.557463   -0.053424
     27          8           0       -4.628040   -1.994463    0.403357
     28          8           0       -2.632062   -2.244828   -0.441932
 ---------------------------------------------------------------------

 SCF Done:  E(RHF) =  -868.337433318     A.U. after   16 cycles
 E2 =    -0.2599755409D+01 EUMP2 =    -0.87093718872709D+03

 The electronic state is 1-A.
 Alpha  occ. eigenvalues --  -20.61095 -20.61029 -20.59583 -20.59511 -15.86098
 Alpha  occ. eigenvalues --  -15.84604 -11.31481 -11.30028 -11.28078 -11.28015
 Alpha  occ. eigenvalues --  -11.27781 -11.27076 -11.27032 -11.26721 -11.26553
 Alpha  occ. eigenvalues --  -11.26521 -11.25766 -11.25686  -1.60136  -1.58626
 Alpha  occ. eigenvalues --   -1.39686  -1.38173  -1.19653  -1.18252  -1.09043
 Alpha  occ. eigenvalues --   -1.07660  -1.05054  -1.03668  -0.95871  -0.94467
 Alpha  occ. eigenvalues --   -0.86450  -0.85079  -0.82699  -0.81298  -0.77752
 Alpha  occ. eigenvalues --   -0.76307  -0.72292  -0.71482  -0.70827  -0.70751
 Alpha  occ. eigenvalues --   -0.69945  -0.69400  -0.65299  -0.65050  -0.63920
 Alpha  occ. eigenvalues --   -0.63714  -0.62398  -0.61012  -0.55545  -0.54247
 Alpha  occ. eigenvalues --   -0.53387  -0.53141  -0.51997  -0.51792  -0.49070
 Alpha  occ. eigenvalues --   -0.49032  -0.47612  -0.47562  -0.45085  -0.43563
 Alpha  occ. eigenvalues --   -0.37634  -0.36660  -0.36286  -0.35237
 Alpha virt. eigenvalues --    0.04742   0.06250   0.10993   0.12396   0.16246
 Alpha virt. eigenvalues --    0.17677   0.21140   0.22342   0.27045   0.27877
 Alpha virt. eigenvalues --    0.28354   0.29259   0.30768   0.31751   0.32354

 Mulliken charges:
               1
     1  C   -0.170713
     2  C   -0.218494
     3  C   -0.172859
     4  C    0.157731
     5  C   -0.170749
     6  C   -0.218463
     7  H    0.226453
     8  H    0.223173
     9  H    0.273393
    10  H    0.278286
    11  H    0.225053
    12  N    0.485559
    13  O   -0.450305
    14  O   -0.465799
    15  C   -0.171649
    16  C   -0.217657
    17  C   -0.156622
    18  C    0.155363
    19  C   -0.171439
    20  C   -0.219830
    21  H    0.219727
    22  H    0.217445
    23  H    0.282797
    24  H    0.272587
    25  H    0.218657
    26  N    0.487727
    27  O   -0.467155
    28  O   -0.452218
 Sum of Mulliken charges =  -0.00000

 Dipole moment (field-independent basis, Debye):
    X=              5.6569    Y=              6.8546    Z=             -1.2373  Tot=              8.9731
 Quadrupole moment (field-independent basis, Debye-Ang):
   XX=            -75.3061   YY=           -103.9781   ZZ=           -105.0385
   XY=            -14.4804   XZ=             -3.7978   YZ=              2.3707

 Normal termination of Gaussian 16 at Thu May  6 00:11:42 2021.
