 Gaussian 16, Revision A.03,
 Gaussian 16:  EM64L-G16RevA.03 25-Dec-2016

 -------------
 #p 6-31g* mp2
 -------------

 ------------------------------------------------------
 Input file generated by CHIRIPA (05-May-2021 14:53:15)
 ------------------------------------------------------
 Symbolic Z-matrix:
 Charge =  0 Multiplicity = 1

                         Standard orientation:
 ---------------------------------------------------------------------
 Center     Atomic      Atomic             Coordinates (Angstroms)
 Number     Number       Type             X           Y           Z
 ---------------------------------------------------------------------
      1          6           0       -3.407322    0.635921   -0.603905
      2          6           0       -3.203174    1.995256    0.065809
      3          6           0       -2.463115    2.989932   -0.829024
      4          1           0       -2.429120    0.221785   -0.884188
      5          1           0       -3.966982    0.776072   -1.539070
      6          1           0       -2.645266    1.852418    1.000128
      7          1           0       -4.181963    2.406116    0.344703
      8          1           0       -3.019324    3.161811   -1.756219
      9          1           0       -1.473896    2.604967   -1.097069
     10          1           0       -2.328000    3.954911   -0.330606
     11          6           0       -4.145735   -0.369233    0.278218
     12          6           0       -4.349883   -1.728568   -0.391496
     13          6           0       -5.089942   -2.723245    0.503337
     14          1           0       -3.586075   -0.509384    1.213383
     15          1           0       -5.123937    0.044902    0.558501
     16          1           0       -3.371094   -2.139428   -0.670390
     17          1           0       -4.907791   -1.585730   -1.325815
     18          1           0       -6.079161   -2.338279    0.771383
     19          1           0       -4.533733   -2.895123    1.430532
     20          1           0       -5.225057   -3.688223    0.004919
     21          6           0        0.670777    0.573063    0.970153
     22          6           0        0.823525    0.111981   -0.341561
     23          6           0        2.081883   -0.265974   -0.819297
     24          6           0        3.170800   -0.169648    0.045730
     25          6           0        3.050815    0.285821    1.357767
     26          6           0        1.782949    0.658362    1.814142
     27          1           0       -0.310439    0.864565    1.332973
     28          1           0       -0.038430    0.044688   -0.999247
     29          1           0        2.228547   -0.626387   -1.830242
     30          1           0        3.928735    0.341849    1.989855
     31          1           0        1.667302    1.016082    2.833311
     32          7           0        4.508000   -0.566905   -0.448721
     33          8           0        5.451565   -0.472710    0.333230
     34          8           0        4.587211   -0.964950   -1.608860
 ---------------------------------------------------------------------

 SCF Done:  E(RHF) =  -669.535142491     A.U. after   15 cycles
 E2 =    -0.2092589691D+01 EUMP2 =    -0.67162773218281D+03

 The electronic state is 1-A.
 Alpha  occ. eigenvalues --  -20.60758 -20.60753 -15.85811 -11.31182 -11.27757
 Alpha  occ. eigenvalues --  -11.27753 -11.27485 -11.26764 -11.26749 -11.22835
 Alpha  occ. eigenvalues --  -11.22617 -11.22420 -11.22354 -11.22103 -11.21714
 Alpha  occ. eigenvalues --   -1.59833  -1.39386  -1.19357  -1.09505  -1.08748
 Alpha  occ. eigenvalues --   -1.04764  -1.04498  -0.96929  -0.95584  -0.87940
 Alpha  occ. eigenvalues --   -0.86166  -0.82420  -0.80578  -0.79306  -0.77464
 Alpha  occ. eigenvalues --   -0.72030  -0.71156  -0.70495  -0.66229  -0.65004
 Alpha  occ. eigenvalues --   -0.64724  -0.62170  -0.61829  -0.60302  -0.58538
 Alpha  occ. eigenvalues --   -0.56246  -0.55256  -0.53587  -0.53352  -0.53076
 Alpha  occ. eigenvalues --   -0.52869  -0.50877  -0.48874  -0.48797  -0.48783
 Alpha  occ. eigenvalues --   -0.47625  -0.46813  -0.46747  -0.44791  -0.44770
 Alpha  occ. eigenvalues --   -0.37330  -0.36364
 Alpha virt. eigenvalues --    0.05070   0.11186   0.16550   0.17860   0.22887
 Alpha virt. eigenvalues --    0.23634   0.24023   0.25223   0.27076   0.28386
 Alpha virt. eigenvalues --    0.29537   0.30017   0.30893   0.31301   0.31744

 Mulliken charges:
               1
     1  C   -0.304212
     2  C   -0.303309
     3  C   -0.478409
     4  H    0.142862
     5  H    0.155921
     6  H    0.144051
     7  H    0.158848
     8  H    0.159951
     9  H    0.153140
    10  H    0.164428
    11  C   -0.297824
    12  C   -0.300273
    13  C   -0.476303
    14  H    0.146548
    15  H    0.153686
    16  H    0.151059
    17  H    0.154267
    18  H    0.156628
    19  H    0.155793
    20  H    0.163280
    21  C   -0.176285
    22  C   -0.227203
    23  C   -0.171354
    24  C    0.158700
    25  C   -0.170669
    26  C   -0.219963
    27  H    0.232756
    28  H    0.231170
    29  H    0.276186
    30  H    0.275619
    31  H    0.223779
    32  N    0.487899
    33  O   -0.460423
    34  O   -0.460346
 Sum of Mulliken charges =  -0.00000

 Dipole moment (field-independent basis, Debye):
    X=             -4.9511    Y=              1.4153    Z=              1.7068  Tot=              5.4249
 Quadrupole moment (field-independent basis, Debye-Ang):
   XX=           -122.7211   YY=            -95.9228   ZZ=            -90.8627
   XY=              4.9963   XZ=              8.1783   YZ=              1.1711

 Normal termination of Gaussian 16 at Thu May  6 12:08:43 2021.
