 Gaussian 16, Revision A.03,
 Gaussian 16:  EM64L-G16RevA.03 25-Dec-2016

 -------------
 #p 6-31g* mp2
 -------------

 ------------------------------------------------------
 Input file generated by CHIRIPA (05-May-2021 14:55:20)
 ------------------------------------------------------
 Symbolic Z-matrix:
 Charge =  0 Multiplicity = 1

                         Standard orientation:
 ---------------------------------------------------------------------
 Center     Atomic      Atomic             Coordinates (Angstroms)
 Number     Number       Type             X           Y           Z
 ---------------------------------------------------------------------
      1          6           0        3.883988   -1.682479   -0.525946
      2          6           0        4.484535   -0.609461    0.140760
      3          6           0        3.782660    0.582357    0.344444
      4          6           0        2.476033    0.667048   -0.133933
      5          6           0        1.850232   -0.384390   -0.801870
      6          6           0        2.571068   -1.566723   -0.994308
      7          1           0        4.436586   -2.604628   -0.679805
      8          1           0        5.504030   -0.696525    0.505581
      9          1           0        4.223351    1.428614    0.857337
     10          1           0        0.832518   -0.267740   -1.154104
     11          1           0        2.102136   -2.398412   -1.512421
     12          7           0        1.722953    1.923752    0.075746
     13          8           0        0.573021    1.973153   -0.355362
     14          8           0        2.296879    2.835559    0.667229
     15          6           0       -2.713856   -0.695688    0.656779
     16          6           0       -1.890670   -1.922516    0.262770
     17          6           0       -0.664947   -2.123223    1.154462
     18          1           0       -2.074999    0.196880    0.610670
     19          1           0       -3.033268   -0.797735    1.703181
     20          1           0       -1.574073   -1.818832   -0.782998
     21          1           0       -2.531613   -2.812242    0.309638
     22          1           0       -0.965584   -2.252232    2.199247
     23          1           0       -0.002604   -1.253178    1.100403
     24          1           0       -0.090925   -3.005709    0.855166
     25          6           0       -3.942527   -0.481726   -0.225444
     26          6           0       -4.765714    0.745101    0.168564
     27          6           0       -5.991436    0.945809   -0.723127
     28          1           0       -3.623116   -0.379680   -1.271847
     29          1           0       -4.581385   -1.374295   -0.179335
     30          1           0       -4.124771    1.634826    0.121697
     31          1           0       -5.082311    0.641417    1.214333
     32          1           0       -6.653780    0.075763   -0.669068
     33          1           0       -5.690799    1.074817   -1.767911
     34          1           0       -6.565458    1.828294   -0.423831
 ---------------------------------------------------------------------

 SCF Done:  E(RHF) =  -669.534999272     A.U. after   15 cycles
 E2 =    -0.2093260859D+01 EUMP2 =    -0.67162826013138D+03

 The electronic state is 1-A.
 Alpha  occ. eigenvalues --  -20.60909 -20.60901 -15.85944 -11.31243 -11.27811
 Alpha  occ. eigenvalues --  -11.27801 -11.27544 -11.26804 -11.26787 -11.21695
 Alpha  occ. eigenvalues --  -11.21154 -11.21139 -11.21069 -11.21008 -11.20695
 Alpha  occ. eigenvalues --   -1.59970  -1.39526  -1.19424  -1.08823  -1.08183
 Alpha  occ. eigenvalues --   -1.04822  -1.03352  -0.95808  -0.95652  -0.86816
 Alpha  occ. eigenvalues --   -0.86217  -0.82500  -0.79423  -0.77955  -0.77558
 Alpha  occ. eigenvalues --   -0.72164  -0.71289  -0.70544  -0.65074  -0.64946
 Alpha  occ. eigenvalues --   -0.64699  -0.62206  -0.60719  -0.59183  -0.57395
 Alpha  occ. eigenvalues --   -0.55357  -0.55105  -0.53164  -0.52904  -0.52484
 Alpha  occ. eigenvalues --   -0.52183  -0.49715  -0.48925  -0.48914  -0.47733
 Alpha  occ. eigenvalues --   -0.46465  -0.45523  -0.45421  -0.44869  -0.43572
 Alpha  occ. eigenvalues --   -0.37393  -0.36330
 Alpha virt. eigenvalues --    0.04948   0.11146   0.16405   0.20070   0.23066
 Alpha virt. eigenvalues --    0.24285   0.26405   0.27119   0.27734   0.28441
 Alpha virt. eigenvalues --    0.29125   0.30173   0.31541   0.31621   0.32291

 Mulliken charges:
               1
     1  C   -0.170807
     2  C   -0.218607
     3  C   -0.170593
     4  C    0.158763
     5  C   -0.173885
     6  C   -0.216242
     7  H    0.225907
     8  H    0.223635
     9  H    0.275673
    10  H    0.279247
    11  H    0.224087
    12  N    0.488810
    13  O   -0.462709
    14  O   -0.458960
    15  C   -0.305497
    16  C   -0.300383
    17  C   -0.479006
    18  H    0.167016
    19  H    0.149092
    20  H    0.141789
    21  H    0.152211
    22  H    0.157721
    23  H    0.159985
    24  H    0.152428
    25  C   -0.297331
    26  C   -0.301300
    27  C   -0.475663
    28  H    0.148620
    29  H    0.146594
    30  H    0.160038
    31  H    0.150818
    32  H    0.152889
    33  H    0.155144
    34  H    0.160515
 Sum of Mulliken charges =  -0.00000

 Dipole moment (field-independent basis, Debye):
    X=              2.7336    Y=             -4.2751    Z=             -0.6917  Tot=              5.1213
 Quadrupole moment (field-independent basis, Debye-Ang):
   XX=            -79.2889   YY=           -100.4649   ZZ=            -94.0749
   XY=             -7.3834   XZ=             -1.0592   YZ=              1.0310

 Normal termination of Gaussian 16 at Thu May  6 15:47:53 2021.
