 Gaussian 16, Revision A.03,
 Gaussian 16:  EM64L-G16RevA.03 25-Dec-2016

 -------------
 #p 6-31g* mp2
 -------------

 ------------------------------------------------------
 Input file generated by CHIRIPA (05-May-2021 14:57:21)
 ------------------------------------------------------
 Symbolic Z-matrix:
 Charge =  0 Multiplicity = 1

                         Standard orientation:
 ---------------------------------------------------------------------
 Center     Atomic      Atomic             Coordinates (Angstroms)
 Number     Number       Type             X           Y           Z
 ---------------------------------------------------------------------
      1          6           0       -4.266918    1.677018    0.526743
      2          6           0       -4.747671    0.380118    0.318304
      3          6           0       -3.879199   -0.645809   -0.066118
      4          6           0       -2.529942   -0.338115   -0.233810
      5          6           0       -2.020611    0.944008   -0.033733
      6          6           0       -2.907319    1.954335    0.350370
      7          1           0       -4.948651    2.467923    0.825247
      8          1           0       -5.803059    0.161846    0.454534
      9          1           0       -4.224607   -1.658658   -0.234187
     10          1           0       -0.963339    1.130995   -0.177362
     11          1           0       -2.531153    2.960599    0.511545
     12          7           0       -1.600877   -1.415961   -0.640612
     13          8           0       -0.416578   -1.119051   -0.781741
     14          8           0       -2.074567   -2.537276   -0.810630
     15          6           0        2.832306    2.514709   -0.728348
     16          6           0        3.114040    1.428936   -1.563957
     17          6           0        3.034549    0.120202   -1.078730
     18          6           0        2.668635   -0.067125    0.253301
     19          6           0        2.381866    0.994009    1.110649
     20          6           0        2.467761    2.294169    0.603940
     21          1           0        2.896544    3.528034   -1.113628
     22          1           0        3.397401    1.597213   -2.599058
     23          1           0        3.247301   -0.738587   -1.703739
     24          1           0        2.102037    0.794685    2.137968
     25          1           0        2.248401    3.135486    1.255180
     26          7           0        2.581092   -1.448085    0.778361
     27          8           0        2.256493   -1.586461    1.955698
     28          8           0        2.838732   -2.365956    0.002622
 ---------------------------------------------------------------------

 SCF Done:  E(RHF) =  -868.337506060     A.U. after   16 cycles
 E2 =    -0.2601897177D+01 EUMP2 =    -0.87093940323751D+03

 The electronic state is 1-A.
 Alpha  occ. eigenvalues --  -20.60706 -20.60636 -20.59765 -20.59690 -15.85737
 Alpha  occ. eigenvalues --  -15.84802 -11.31162 -11.30493 -11.27747 -11.27732
 Alpha  occ. eigenvalues --  -11.27527 -11.27212 -11.27050 -11.27034 -11.26817
 Alpha  occ. eigenvalues --  -11.26767 -11.26381 -11.26220  -1.59729  -1.58767
 Alpha  occ. eigenvalues --   -1.39292  -1.38329  -1.19349  -1.18735  -1.08734
 Alpha  occ. eigenvalues --   -1.08072  -1.04770  -1.04220  -0.95558  -0.94852
 Alpha  occ. eigenvalues --   -0.86165  -0.85594  -0.82407  -0.81706  -0.77436
 Alpha  occ. eigenvalues --   -0.76667  -0.72039  -0.71066  -0.71053  -0.70470
 Alpha  occ. eigenvalues --   -0.69932  -0.69884  -0.65009  -0.64783  -0.64408
 Alpha  occ. eigenvalues --   -0.64252  -0.62119  -0.61562  -0.55276  -0.54748
 Alpha  occ. eigenvalues --   -0.53090  -0.52911  -0.52462  -0.52328  -0.48699
 Alpha  occ. eigenvalues --   -0.48685  -0.47826  -0.47760  -0.44691  -0.43675
 Alpha  occ. eigenvalues --   -0.37338  -0.36708  -0.36380  -0.35839
 Alpha virt. eigenvalues --    0.05070   0.05975   0.11264   0.11823   0.16582
 Alpha virt. eigenvalues --    0.17318   0.21322   0.21833   0.27157   0.27729
 Alpha virt. eigenvalues --    0.28166   0.28785   0.30731   0.31341   0.32303

 Mulliken charges:
               1
     1  C   -0.170683
     2  C   -0.218657
     3  C   -0.169958
     4  C    0.159054
     5  C   -0.173462
     6  C   -0.219309
     7  H    0.224784
     8  H    0.223707
     9  H    0.276844
    10  H    0.276476
    11  H    0.219793
    12  N    0.493127
    13  O   -0.468578
    14  O   -0.454509
    15  C   -0.174738
    16  C   -0.219779
    17  C   -0.161840
    18  C    0.174530
    19  C   -0.177124
    20  C   -0.225510
    21  H    0.221140
    22  H    0.221742
    23  H    0.278920
    24  H    0.273112
    25  H    0.217485
    26  N    0.494578
    27  O   -0.467554
    28  O   -0.453593
 Sum of Mulliken charges =  -0.00000

 Dipole moment (field-independent basis, Debye):
    X=             -3.0309    Y=              8.1780    Z=             -0.5675  Tot=              8.7400
 Quadrupole moment (field-independent basis, Debye-Ang):
   XX=            -84.2779   YY=           -106.6512   ZZ=           -103.6389
   XY=              6.2087   XZ=             -9.5049   YZ=              2.0200

 Normal termination of Gaussian 16 at Thu May  6 21:05:42 2021.
