 Gaussian 16, Revision A.03,
 Gaussian 16:  EM64L-G16RevA.03 25-Dec-2016

 -------------
 #p 6-31g* mp2
 -------------

 ------------------------------------------------------
 Input file generated by CHIRIPA (05-May-2021 14:53:12)
 ------------------------------------------------------
 Symbolic Z-matrix:
 Charge =  0 Multiplicity = 1

                         Standard orientation:
 ---------------------------------------------------------------------
 Center     Atomic      Atomic             Coordinates (Angstroms)
 Number     Number       Type             X           Y           Z
 ---------------------------------------------------------------------
      1          6           0        3.785038   -0.259205    0.145602
      2          6           0        4.414114   -1.471586   -0.541698
      3          6           0        5.101498   -2.418449    0.442553
      4          1           0        4.562752    0.285475    0.698260
      5          1           0        3.056594   -0.606316    0.891443
      6          1           0        5.140150   -1.122262   -1.286991
      7          1           0        3.634849   -2.013336   -1.092940
      8          1           0        4.384643   -2.794998    1.179391
      9          1           0        5.898497   -1.898861    0.984238
     10          1           0        5.544303   -3.278114   -0.070048
     11          6           0        3.094044    0.696676   -0.825246
     12          6           0        2.464967    1.909056   -0.137946
     13          6           0        1.777584    2.855919   -1.122196
     14          1           0        3.822488    1.043787   -1.571086
     15          1           0        2.316330    0.151996   -1.377903
     16          1           0        3.244233    2.450806    0.413297
     17          1           0        1.738932    1.559732    0.607347
     18          1           0        0.980585    2.336332   -1.663881
     19          1           0        2.494439    3.232469   -1.859034
     20          1           0        1.334779    3.715584   -0.609595
     21          6           0       -0.910417    1.085665    1.542300
     22          6           0       -1.996645    1.774514    0.992648
     23          6           0       -2.986981    1.088557    0.283249
     24          6           0       -2.858908   -0.292366    0.142048
     25          6           0       -1.788631   -1.006934    0.677948
     26          6           0       -0.810054   -0.300417    1.383475
     27          1           0       -0.145669    1.626518    2.091874
     28          1           0       -2.077187    2.850957    1.114418
     29          1           0       -3.838454    1.596914   -0.152624
     30          1           0       -1.735708   -2.080049    0.539955
     31          1           0        0.032419   -0.838000    1.809256
     32          7           0       -3.901108   -1.029440   -0.606912
     33          8           0       -3.765174   -2.245983   -0.717290
     34          8           0       -4.834184   -0.376660   -1.069388
 ---------------------------------------------------------------------

 SCF Done:  E(RHF) =  -669.534988200     A.U. after   15 cycles
 E2 =    -0.2092792338D+01 EUMP2 =    -0.67162778053791D+03

 The electronic state is 1-A.
 Alpha  occ. eigenvalues --  -20.60809 -20.60804 -15.85864 -11.31246 -11.27826
 Alpha  occ. eigenvalues --  -11.27819 -11.27556 -11.26845 -11.26825 -11.22315
 Alpha  occ. eigenvalues --  -11.22147 -11.22078 -11.21975 -11.21696 -11.21569
 Alpha  occ. eigenvalues --   -1.59885  -1.39437  -1.19430  -1.09080  -1.08815
 Alpha  occ. eigenvalues --   -1.04831  -1.04142  -0.96580  -0.95653  -0.87593
 Alpha  occ. eigenvalues --   -0.86228  -0.82486  -0.80220  -0.78901  -0.77520
 Alpha  occ. eigenvalues --   -0.72082  -0.71209  -0.70566  -0.65728  -0.65077
 Alpha  occ. eigenvalues --   -0.64812  -0.62174  -0.61548  -0.59964  -0.58207
 Alpha  occ. eigenvalues --   -0.55887  -0.55320  -0.53284  -0.53141  -0.53001
 Alpha  occ. eigenvalues --   -0.52916  -0.50507  -0.48844  -0.48835  -0.48521
 Alpha  occ. eigenvalues --   -0.47243  -0.46437  -0.46351  -0.44839  -0.44405
 Alpha  occ. eigenvalues --   -0.37348  -0.36432
 Alpha virt. eigenvalues --    0.04981   0.11123   0.16393   0.19742   0.22644
 Alpha virt. eigenvalues --    0.23647   0.25130   0.26521   0.26630   0.28178
 Alpha virt. eigenvalues --    0.29021   0.30285   0.31024   0.31297   0.32035

 Mulliken charges:
               1
     1  C   -0.297351
     2  C   -0.300520
     3  C   -0.475635
     4  H    0.150819
     5  H    0.140668
     6  H    0.154440
     7  H    0.153541
     8  H    0.152803
     9  H    0.155865
    10  H    0.162996
    11  C   -0.298760
    12  C   -0.302556
    13  C   -0.475759
    14  H    0.152442
    15  H    0.153195
    16  H    0.151631
    17  H    0.144744
    18  H    0.160352
    19  H    0.158265
    20  H    0.155041
    21  C   -0.168699
    22  C   -0.219668
    23  C   -0.171053
    24  C    0.158504
    25  C   -0.171276
    26  C   -0.219723
    27  H    0.227339
    28  H    0.224115
    29  H    0.275986
    30  H    0.275824
    31  H    0.224895
    32  N    0.488077
    33  O   -0.460356
    34  O   -0.460186
 Sum of Mulliken charges =  -0.00000

 Dipole moment (field-independent basis, Debye):
    X=              3.7140    Y=              2.5872    Z=              2.5336  Tot=              5.1872
 Quadrupole moment (field-independent basis, Debye-Ang):
   XX=           -114.2490   YY=            -93.1277   ZZ=            -94.9045
   XY=            -10.2956   XZ=             -7.3506   YZ=             -0.8141

 Normal termination of Gaussian 16 at Thu May  6 02:31:10 2021.
