 Gaussian 16, Revision A.03,
 Gaussian 16:  EM64L-G16RevA.03 25-Dec-2016

 -------------
 #p 6-31g* mp2
 -------------

 ------------------------------------------------------
 Input file generated by CHIRIPA (05-May-2021 14:55:19)
 ------------------------------------------------------
 Symbolic Z-matrix:
 Charge =  0 Multiplicity = 1

                         Standard orientation:
 ---------------------------------------------------------------------
 Center     Atomic      Atomic             Coordinates (Angstroms)
 Number     Number       Type             X           Y           Z
 ---------------------------------------------------------------------
      1          6           0        0.430502   -1.771683    0.883283
      2          6           0        1.612354   -1.709541    1.628860
      3          6           0        2.724163   -1.016590    1.140752
      4          6           0        2.618734   -0.394542   -0.102321
      5          6           0        1.455172   -0.438419   -0.868799
      6          6           0        0.355815   -1.137042   -0.360973
      7          1           0       -0.428341   -2.312187    1.270116
      8          1           0        1.673226   -2.201463    2.595480
      9          1           0        3.651419   -0.952567    1.697093
     10          1           0        1.424719    0.061952   -1.829070
     11          1           0       -0.560737   -1.183634   -0.942185
     12          7           0        3.789165    0.342057   -0.629496
     13          8           0        3.670762    0.881641   -1.727433
     14          8           0        4.802789    0.365872    0.065224
     15          6           0       -3.178740   -0.053239   -0.242376
     16          6           0       -4.629746   -0.532394   -0.296964
     17          6           0       -4.760839   -1.961872   -0.823461
     18          1           0       -2.740185   -0.116916   -1.247641
     19          1           0       -2.598690   -0.734524    0.395423
     20          1           0       -5.207188    0.150380   -0.933357
     21          1           0       -5.064957   -0.467388    0.708512
     22          1           0       -4.209258   -2.659625   -0.185105
     23          1           0       -4.352298   -2.038347   -1.836302
     24          1           0       -5.806347   -2.284105   -0.854134
     25          6           0       -3.031391    1.374052    0.281891
     26          6           0       -1.580386    1.853206    0.336479
     27          6           0       -1.449293    3.282685    0.862977
     28          1           0       -3.611442    2.055336   -0.355909
     29          1           0       -3.469947    1.437729    1.287157
     30          1           0       -1.145175    1.788200   -0.668998
     31          1           0       -1.002943    1.170432    0.972871
     32          1           0       -1.857834    3.359159    1.875817
     33          1           0       -2.000874    3.980437    0.224619
     34          1           0       -0.403785    3.604918    0.893649
 ---------------------------------------------------------------------

 SCF Done:  E(RHF) =  -669.533556899     A.U. after   15 cycles
 E2 =    -0.2094704273D+01 EUMP2 =    -0.67162826117165D+03

 The electronic state is 1-A.
 Alpha  occ. eigenvalues --  -20.60738 -20.60733 -15.85787 -11.31148 -11.27683
 Alpha  occ. eigenvalues --  -11.27644 -11.27413 -11.26748 -11.26597 -11.22502
 Alpha  occ. eigenvalues --  -11.22438 -11.22077 -11.21987 -11.21964 -11.21347
 Alpha  occ. eigenvalues --   -1.59812  -1.39366  -1.19304  -1.09250  -1.08698
 Alpha  occ. eigenvalues --   -1.04700  -1.04186  -0.96678  -0.95545  -0.87682
 Alpha  occ. eigenvalues --   -0.86112  -0.82380  -0.80303  -0.79121  -0.77383
 Alpha  occ. eigenvalues --   -0.72007  -0.71134  -0.70422  -0.65877  -0.64942
 Alpha  occ. eigenvalues --   -0.64712  -0.62064  -0.61577  -0.60057  -0.58273
 Alpha  occ. eigenvalues --   -0.55983  -0.55207  -0.53402  -0.53194  -0.52973
 Alpha  occ. eigenvalues --   -0.52715  -0.50615  -0.48789  -0.48763  -0.48567
 Alpha  occ. eigenvalues --   -0.47346  -0.46520  -0.46480  -0.44772  -0.44487
 Alpha  occ. eigenvalues --   -0.37255  -0.36202
 Alpha virt. eigenvalues --    0.05062   0.11270   0.16477   0.20052   0.22800
 Alpha virt. eigenvalues --    0.23471   0.24210   0.25931   0.27298   0.28527
 Alpha virt. eigenvalues --    0.29641   0.30096   0.31109   0.31411   0.31674

 Mulliken charges:
               1
     1  C   -0.176965
     2  C   -0.218091
     3  C   -0.172258
     4  C    0.158675
     5  C   -0.172263
     6  C   -0.214728
     7  H    0.224991
     8  H    0.223085
     9  H    0.275187
    10  H    0.274654
    11  H    0.232354
    12  N    0.488003
    13  O   -0.460519
    14  O   -0.460552
    15  C   -0.303648
    16  C   -0.299070
    17  C   -0.476583
    18  H    0.145449
    19  H    0.142835
    20  H    0.156148
    21  H    0.154458
    22  H    0.150464
    23  H    0.155128
    24  H    0.164975
    25  C   -0.297549
    26  C   -0.302860
    27  C   -0.476388
    28  H    0.152428
    29  H    0.151261
    30  H    0.147760
    31  H    0.158145
    32  H    0.154743
    33  H    0.155864
    34  H    0.164870
 Sum of Mulliken charges =  -0.00000

 Dipole moment (field-independent basis, Debye):
    X=             -4.2575    Y=             -2.4950    Z=              1.8705  Tot=              5.2774
 Quadrupole moment (field-independent basis, Debye-Ang):
   XX=           -115.1165   YY=            -93.9628   ZZ=            -91.2597
   XY=             -6.2613   XZ=              7.7935   YZ=             -2.2595

 Normal termination of Gaussian 16 at Thu May  6 01:19:42 2021.
