 Gaussian 16, Revision A.03,
 Gaussian 16:  EM64L-G16RevA.03 25-Dec-2016

 -------------
 #p 6-31g* mp2
 -------------

 ------------------------------------------------------
 Input file generated by CHIRIPA (05-May-2021 14:55:23)
 ------------------------------------------------------
 Symbolic Z-matrix:
 Charge =  0 Multiplicity = 1

                         Standard orientation:
 ---------------------------------------------------------------------
 Center     Atomic      Atomic             Coordinates (Angstroms)
 Number     Number       Type             X           Y           Z
 ---------------------------------------------------------------------
      1          6           0        1.575487    1.744501   -1.358047
      2          6           0        0.948537    0.704160   -0.664399
      3          6           0        1.705640   -0.304633   -0.061342
      4          6           0        3.093818   -0.241611   -0.172163
      5          6           0        3.747797    0.781808   -0.856425
      6          6           0        2.970656    1.779942   -1.451681
      7          1           0        0.979568    2.524016   -1.823486
      8          1           0       -0.134798    0.674073   -0.590060
      9          1           0        1.246160   -1.121587    0.481688
     10          1           0        4.829535    0.784794   -0.913445
     11          1           0        3.460266    2.586673   -1.989744
     12          7           0        3.905936   -1.303933    0.462137
     13          8           0        5.127388   -1.225609    0.350079
     14          8           0        3.305644   -2.194790    1.059348
     15          6           0       -3.503180    0.759867    0.570140
     16          6           0       -2.391687    0.641899    1.613525
     17          6           0       -1.830462    2.000105    2.035541
     18          1           0       -3.115080    1.287857   -0.311648
     19          1           0       -4.312830    1.382177    0.975837
     20          1           0       -1.584988    0.018854    1.206503
     21          1           0       -2.782424    0.113959    2.492854
     22          1           0       -2.618930    2.625778    2.466180
     23          1           0       -1.414690    2.530133    1.172519
     24          1           0       -1.037238    1.892375    2.781899
     25          6           0       -4.074346   -0.589557    0.138221
     26          6           0       -5.185839   -0.471589   -0.905164
     27          6           0       -5.747064   -1.829795   -1.327180
     28          1           0       -3.264695   -1.211867   -0.267478
     29          1           0       -4.462445   -1.117547    1.020009
     30          1           0       -4.795102    0.056351   -1.784493
     31          1           0       -5.992538    0.151456   -0.498142
     32          1           0       -6.162835   -2.359822   -0.464158
     33          1           0       -4.958595   -2.455468   -1.757820
     34          1           0       -6.540288   -1.722066   -2.073538
 ---------------------------------------------------------------------

 SCF Done:  E(RHF) =  -669.535226507     A.U. after   15 cycles
 E2 =    -0.2091981060D+01 EUMP2 =    -0.67162720756746D+03

 The electronic state is 1-A.
 Alpha  occ. eigenvalues --  -20.60754 -20.60749 -15.85807 -11.31178 -11.27745
 Alpha  occ. eigenvalues --  -11.27740 -11.27488 -11.26763 -11.26728 -11.22525
 Alpha  occ. eigenvalues --  -11.22260 -11.22183 -11.22069 -11.21865 -11.21514
 Alpha  occ. eigenvalues --   -1.59829  -1.39383  -1.19349  -1.09209  -1.08742
 Alpha  occ. eigenvalues --   -1.04760  -1.04240  -0.96671  -0.95578  -0.87683
 Alpha  occ. eigenvalues --   -0.86152  -0.82416  -0.80315  -0.79001  -0.77461
 Alpha  occ. eigenvalues --   -0.72026  -0.71152  -0.70461  -0.65975  -0.65001
 Alpha  occ. eigenvalues --   -0.64714  -0.62263  -0.61459  -0.60036  -0.58273
 Alpha  occ. eigenvalues --   -0.55977  -0.55249  -0.53342  -0.53090  -0.53063
 Alpha  occ. eigenvalues --   -0.52828  -0.50626  -0.48791  -0.48780  -0.48601
 Alpha  occ. eigenvalues --   -0.47386  -0.46525  -0.46475  -0.44787  -0.44498
 Alpha  occ. eigenvalues --   -0.37327  -0.36344
 Alpha virt. eigenvalues --    0.05069   0.11243   0.16511   0.18678   0.22787
 Alpha virt. eigenvalues --    0.23871   0.25067   0.25724   0.27247   0.28280
 Alpha virt. eigenvalues --    0.28877   0.30632   0.31050   0.31135   0.32035

 Mulliken charges:
               1
     1  C   -0.172202
     2  C   -0.221624
     3  C   -0.173289
     4  C    0.158685
     5  C   -0.171061
     6  C   -0.218372
     7  H    0.225482
     8  H    0.231006
     9  H    0.275620
    10  H    0.275595
    11  H    0.223396
    12  N    0.488144
    13  O   -0.460510
    14  O   -0.460381
    15  C   -0.300016
    16  C   -0.304041
    17  C   -0.475204
    18  H    0.142974
    19  H    0.154242
    20  H    0.142984
    21  H    0.159727
    22  H    0.158937
    23  H    0.148666
    24  H    0.166185
    25  C   -0.298262
    26  C   -0.299898
    27  C   -0.476230
    28  H    0.147067
    29  H    0.153524
    30  H    0.150516
    31  H    0.153483
    32  H    0.156962
    33  H    0.156044
    34  H    0.161849
 Sum of Mulliken charges =  -0.00000

 Dipole moment (field-independent basis, Debye):
    X=             -3.0340    Y=              3.7401    Z=             -2.1379  Tot=              5.2692
 Quadrupole moment (field-independent basis, Debye-Ang):
   XX=           -108.0682   YY=            -96.9215   ZZ=            -93.4724
   XY=             14.1375   XZ=             -9.0566   YZ=             -1.1975

 Normal termination of Gaussian 16 at Thu May  6 17:36:55 2021.
