 Gaussian 16, Revision A.03,
 Gaussian 16:  EM64L-G16RevA.03 25-Dec-2016

 -------------
 #p 6-31g* mp2
 -------------

 ------------------------------------------------------
 Input file generated by CHIRIPA (05-May-2021 14:55:21)
 ------------------------------------------------------
 Symbolic Z-matrix:
 Charge =  0 Multiplicity = 1

                         Standard orientation:
 ---------------------------------------------------------------------
 Center     Atomic      Atomic             Coordinates (Angstroms)
 Number     Number       Type             X           Y           Z
 ---------------------------------------------------------------------
      1          6           0        0.690948   -0.094789   -0.067293
      2          6           0        1.390127    0.659826    0.880454
      3          6           0        2.786155    0.610824    0.937469
      4          6           0        3.454043   -0.207135    0.027436
      5          6           0        2.785818   -0.970769   -0.928403
      6          6           0        1.389793   -0.906248   -0.967111
      7          1           0       -0.393520   -0.050696   -0.104473
      8          1           0        0.850020    1.290893    1.580515
      9          1           0        3.352483    1.184618    1.660969
     10          1           0        3.351890   -1.590605   -1.613080
     11          1           0        0.849426   -1.493383   -1.704214
     12          7           0        4.931954   -0.267226    0.078105
     13          8           0        5.497005   -0.995652   -0.734761
     14          8           0        5.497306    0.415238    0.929725
     15          6           0       -3.471647    0.672729   -0.015486
     16          6           0       -3.687988    2.112971   -0.481195
     17          6           0       -2.402957    2.941186   -0.457732
     18          1           0       -3.057852    0.681406    1.002180
     19          1           0       -2.716080    0.197180   -0.656083
     20          1           0       -4.443931    2.585230    0.159225
     21          1           0       -4.101495    2.100861   -1.497798
     22          1           0       -1.645674    2.495913   -1.111074
     23          1           0       -1.990056    2.983034    0.555364
     24          1           0       -2.580500    3.967346   -0.794382
     25          6           0       -4.747143   -0.167816   -0.033374
     26          6           0       -4.530803   -1.608058    0.432336
     27          6           0       -5.815833   -2.436273    0.408873
     28          1           0       -5.502712    0.307733    0.607224
     29          1           0       -5.160938   -0.176494   -1.051040
     30          1           0       -4.117296   -1.595947    1.448938
     31          1           0       -3.774859   -2.080317   -0.208084
     32          1           0       -6.228734   -2.478122   -0.604223
     33          1           0       -6.573116   -1.991000    1.062215
     34          1           0       -5.638290   -3.462434    0.745523
 ---------------------------------------------------------------------

 SCF Done:  E(RHF) =  -669.535633755     A.U. after   15 cycles
 E2 =    -0.2091668819D+01 EUMP2 =    -0.67162730257414D+03

 The electronic state is 1-A.
 Alpha  occ. eigenvalues --  -20.60692 -20.60687 -15.85746 -11.31090 -11.27665
 Alpha  occ. eigenvalues --  -11.27657 -11.27320 -11.26663 -11.26648 -11.22713
 Alpha  occ. eigenvalues --  -11.22630 -11.22501 -11.22356 -11.22135 -11.21780
 Alpha  occ. eigenvalues --   -1.59769  -1.39323  -1.19258  -1.09500  -1.08648
 Alpha  occ. eigenvalues --   -1.04663  -1.04495  -0.96957  -0.95490  -0.87967
 Alpha  occ. eigenvalues --   -0.86056  -0.82333  -0.80571  -0.79355  -0.77383
 Alpha  occ. eigenvalues --   -0.71963  -0.71092  -0.70355  -0.66120  -0.64906
 Alpha  occ. eigenvalues --   -0.64669  -0.62017  -0.61878  -0.60329  -0.58577
 Alpha  occ. eigenvalues --   -0.56255  -0.55173  -0.53592  -0.53382  -0.52981
 Alpha  occ. eigenvalues --   -0.52752  -0.50894  -0.48872  -0.48721  -0.48719
 Alpha  occ. eigenvalues --   -0.47603  -0.46832  -0.46782  -0.44781  -0.44733
 Alpha  occ. eigenvalues --   -0.37220  -0.36273
 Alpha virt. eigenvalues --    0.05141   0.11374   0.16584   0.19587   0.22422
 Alpha virt. eigenvalues --    0.23639   0.24532   0.25783   0.26628   0.27937
 Alpha virt. eigenvalues --    0.29685   0.29807   0.30756   0.31339   0.31545

 Mulliken charges:
               1
     1  C   -0.178497
     2  C   -0.221728
     3  C   -0.170778
     4  C    0.158085
     5  C   -0.170691
     6  C   -0.221942
     7  H    0.239895
     8  H    0.223676
     9  H    0.275175
    10  H    0.275139
    11  H    0.222555
    12  N    0.488029
    13  O   -0.460787
    14  O   -0.460709
    15  C   -0.304716
    16  C   -0.299552
    17  C   -0.478907
    18  H    0.148028
    19  H    0.143105
    20  H    0.156260
    21  H    0.155667
    22  H    0.155018
    23  H    0.151229
    24  H    0.166700
    25  C   -0.297531
    26  C   -0.300408
    27  C   -0.476291
    28  H    0.153496
    29  H    0.152528
    30  H    0.152648
    31  H    0.148800
    32  H    0.156608
    33  H    0.157210
    34  H    0.162688
 Sum of Mulliken charges =  -0.00000

 Dipole moment (field-independent basis, Debye):
    X=             -5.5317    Y=              0.2707    Z=             -0.1862  Tot=              5.5415
 Quadrupole moment (field-independent basis, Debye-Ang):
   XX=           -130.8864   YY=            -93.2804   ZZ=            -91.2702
   XY=              1.0388   XZ=             -0.8842   YZ=              3.1118

 Normal termination of Gaussian 16 at Thu May  6 15:48:51 2021.
