 Gaussian 16, Revision A.03,
 Gaussian 16:  EM64L-G16RevA.03 25-Dec-2016

 -------------
 #p 6-31g* mp2
 -------------

 ------------------------------------------------------
 Input file generated by CHIRIPA (05-May-2021 14:55:19)
 ------------------------------------------------------
 Symbolic Z-matrix:
 Charge =  0 Multiplicity = 1

                         Standard orientation:
 ---------------------------------------------------------------------
 Center     Atomic      Atomic             Coordinates (Angstroms)
 Number     Number       Type             X           Y           Z
 ---------------------------------------------------------------------
      1          6           0        1.573657    0.540601   -0.414526
      2          6           0        1.946362   -0.807060   -0.452243
      3          6           0        3.279670   -1.180656   -0.259201
      4          6           0        4.218426   -0.175967   -0.029798
      5          6           0        3.878288    1.175224    0.013567
      6          6           0        2.539107    1.525705   -0.182152
      7          1           0        0.535630    0.821841   -0.565525
      8          1           0        1.198722   -1.574250   -0.632512
      9          1           0        3.595734   -2.216485   -0.283293
     10          1           0        4.646129    1.917381    0.195332
     11          1           0        2.252544    2.573100   -0.152325
     12          7           0        5.633048   -0.559241    0.175983
     13          8           0        6.441049    0.344986    0.376344
     14          8           0        5.907041   -1.756621    0.133017
     15          6           0       -4.585960    0.619952   -0.221492
     16          6           0       -3.298863    0.721509    0.597687
     17          6           0       -2.277957    1.676667   -0.021359
     18          1           0       -4.340078    0.286849   -1.239102
     19          1           0       -5.030280    1.620203   -0.318823
     20          1           0       -2.857833   -0.278847    0.694616
     21          1           0       -3.547859    1.054224    1.613520
     22          1           0       -2.694680    2.685755   -0.103125
     23          1           0       -2.000734    1.345108   -1.027249
     24          1           0       -1.365573    1.734135    0.580400
     25          6           0       -5.616355   -0.331188    0.384599
     26          6           0       -6.903451   -0.432745   -0.434580
     27          6           0       -7.924358   -1.387903    0.184465
     28          1           0       -5.172035   -1.331439    0.481930
     29          1           0       -5.862237    0.001915    1.402209
     30          1           0       -6.654456   -0.765460   -1.450413
     31          1           0       -7.344482    0.567611   -0.531509
     32          1           0       -8.201581   -1.056344    1.190357
     33          1           0       -7.507636   -2.396990    0.266232
     34          1           0       -8.836742   -1.445372   -0.417293
 ---------------------------------------------------------------------

 SCF Done:  E(RHF) =  -669.535406335     A.U. after   15 cycles
 E2 =    -0.2091035977D+01 EUMP2 =    -0.67162644231202D+03

 The electronic state is 1-A.
 Alpha  occ. eigenvalues --  -20.60706 -20.60701 -15.85760 -11.31107 -11.27681
 Alpha  occ. eigenvalues --  -11.27677 -11.27324 -11.26679 -11.26667 -11.22649
 Alpha  occ. eigenvalues --  -11.22444 -11.22214 -11.22153 -11.22032 -11.21527
 Alpha  occ. eigenvalues --   -1.59782  -1.39336  -1.19276  -1.09225  -1.08666
 Alpha  occ. eigenvalues --   -1.04681  -1.04370  -0.96848  -0.95504  -0.87872
 Alpha  occ. eigenvalues --   -0.86074  -0.82345  -0.80443  -0.78983  -0.77399
 Alpha  occ. eigenvalues --   -0.71977  -0.71106  -0.70393  -0.65853  -0.64924
 Alpha  occ. eigenvalues --   -0.64690  -0.62033  -0.61769  -0.60273  -0.58421
 Alpha  occ. eigenvalues --   -0.56208  -0.55152  -0.53467  -0.53256  -0.52994
 Alpha  occ. eigenvalues --   -0.52769  -0.50762  -0.48751  -0.48734  -0.48730
 Alpha  occ. eigenvalues --   -0.47453  -0.46537  -0.46431  -0.44746  -0.44601
 Alpha  occ. eigenvalues --   -0.37241  -0.36293
 Alpha virt. eigenvalues --    0.05124   0.11358   0.16570   0.20323   0.22429
 Alpha virt. eigenvalues --    0.23803   0.25809   0.26374   0.26796   0.27229
 Alpha virt. eigenvalues --    0.29516   0.30104   0.30840   0.31089   0.31893

 Mulliken charges:
               1
     1  C   -0.178572
     2  C   -0.221385
     3  C   -0.170692
     4  C    0.158089
     5  C   -0.170655
     6  C   -0.221924
     7  H    0.239325
     8  H    0.222834
     9  H    0.275164
    10  H    0.275255
    11  H    0.223489
    12  N    0.488049
    13  O   -0.460677
    14  O   -0.460724
    15  C   -0.299321
    16  C   -0.299049
    17  C   -0.485408
    18  H    0.149761
    19  H    0.151685
    20  H    0.150863
    21  H    0.156695
    22  H    0.162516
    23  H    0.152143
    24  H    0.157875
    25  C   -0.298882
    26  C   -0.300206
    27  C   -0.476113
    28  H    0.149774
    29  H    0.151309
    30  H    0.152277
    31  H    0.152898
    32  H    0.156083
    33  H    0.155652
    34  H    0.161870
 Sum of Mulliken charges =  -0.00000

 Dipole moment (field-independent basis, Debye):
    X=             -5.2923    Y=              1.3806    Z=             -0.6941  Tot=              5.5133
 Quadrupole moment (field-independent basis, Debye-Ang):
   XX=           -136.7444   YY=            -90.3519   ZZ=            -95.3641
   XY=              7.0299   XZ=             -2.8258   YZ=              1.3815

 Normal termination of Gaussian 16 at Thu May  6 14:02:58 2021.
