 Gaussian 16, Revision A.03,
 Gaussian 16:  EM64L-G16RevA.03 25-Dec-2016

 -------------
 #p 6-31g* mp2
 -------------

 ------------------------------------------------------
 Input file generated by CHIRIPA (05-May-2021 14:57:22)
 ------------------------------------------------------
 Symbolic Z-matrix:
 Charge =  0 Multiplicity = 1

                         Standard orientation:
 ---------------------------------------------------------------------
 Center     Atomic      Atomic             Coordinates (Angstroms)
 Number     Number       Type             X           Y           Z
 ---------------------------------------------------------------------
      1          6           0        3.383768    2.452354    0.340855
      2          6           0        3.190013    1.553978    1.395322
      3          6           0        2.804335    0.234281    1.141943
      4          6           0        2.620426   -0.154981   -0.183931
      5          6           0        2.805635    0.716550   -1.256041
      6          6           0        3.191301    2.031515   -0.979134
      7          1           0        3.683367    3.475688    0.546825
      8          1           0        3.338760    1.878030    2.421436
      9          1           0        2.647424   -0.481986    1.939288
     10          1           0        2.649706    0.364252   -2.268459
     11          1           0        3.341049    2.727028   -1.800037
     12          7           0        2.212133   -1.549580   -0.464626
     13          8           0        2.056568   -1.867812   -1.641556
     14          8           0        2.055408   -2.298029    0.497611
     15          6           0       -1.475027   -2.180050    0.818480
     16          6           0       -1.644011   -1.140686    1.739181
     17          6           0       -2.314285    0.030276    1.372948
     18          6           0       -2.804956    0.128656    0.071850
     19          6           0       -2.652530   -0.889354   -0.868210
     20          6           0       -1.978938   -2.051294   -0.479987
     21          1           0       -0.953053   -3.086177    1.111519
     22          1           0       -1.253721   -1.237914    2.748271
     23          1           0       -2.459170    0.850388    2.065655
     24          1           0       -3.052690   -0.763289   -1.866907
     25          1           0       -1.849177   -2.856856   -1.197118
     26          7           0       -3.516302    1.363526   -0.327503
     27          8           0       -3.939213    1.425592   -1.479862
     28          8           0       -3.637475    2.245966    0.519404
 ---------------------------------------------------------------------

 SCF Done:  E(RHF) =  -868.340312910     A.U. after   16 cycles
 E2 =    -0.2599701328D+01 EUMP2 =    -0.87094001423764D+03

 The electronic state is 1-A.
 Alpha  occ. eigenvalues --  -20.61471 -20.61437 -20.60432 -20.60422 -15.86474
 Alpha  occ. eigenvalues --  -15.85478 -11.31575 -11.30623 -11.28150 -11.28087
 Alpha  occ. eigenvalues --  -11.27790 -11.27238 -11.27158 -11.27087 -11.27037
 Alpha  occ. eigenvalues --  -11.26706 -11.26133 -11.25994  -1.60509  -1.59513
 Alpha  occ. eigenvalues --   -1.40077  -1.39072  -1.19719  -1.18775  -1.09159
 Alpha  occ. eigenvalues --   -1.08162  -1.05090  -1.04151  -0.96046  -0.95036
 Alpha  occ. eigenvalues --   -0.86498  -0.85528  -0.82898  -0.81888  -0.77976
 Alpha  occ. eigenvalues --   -0.77003  -0.72732  -0.71811  -0.71698  -0.70838
 Alpha  occ. eigenvalues --   -0.70829  -0.69749  -0.65381  -0.65093  -0.64398
 Alpha  occ. eigenvalues --   -0.64118  -0.62450  -0.61509  -0.55590  -0.54499
 Alpha  occ. eigenvalues --   -0.53418  -0.53183  -0.52492  -0.52215  -0.49490
 Alpha  occ. eigenvalues --   -0.49450  -0.48467  -0.48434  -0.45544  -0.44528
 Alpha  occ. eigenvalues --   -0.37671  -0.36691  -0.36634  -0.35776
 Alpha virt. eigenvalues --    0.04530   0.05560   0.10966   0.11904   0.16072
 Alpha virt. eigenvalues --    0.17145   0.21092   0.22228   0.26980   0.27764
 Alpha virt. eigenvalues --    0.28197   0.29215   0.30733   0.31794   0.32202

 Mulliken charges:
               1
     1  C   -0.169173
     2  C   -0.218376
     3  C   -0.170423
     4  C    0.159974
     5  C   -0.169899
     6  C   -0.217731
     7  H    0.228191
     8  H    0.223798
     9  H    0.271166
    10  H    0.276182
    11  H    0.226263
    12  N    0.490538
    13  O   -0.459743
    14  O   -0.469067
    15  C   -0.165002
    16  C   -0.223225
    17  C   -0.172982
    18  C    0.156051
    19  C   -0.172550
    20  C   -0.219443
    21  H    0.239065
    22  H    0.219806
    23  H    0.271055
    24  H    0.273950
    25  H    0.229614
    26  N    0.488242
    27  O   -0.462083
    28  O   -0.464198
 Sum of Mulliken charges =  -0.00000

 Dipole moment (field-independent basis, Debye):
    X=              4.1973    Y=              0.4479    Z=              2.2776  Tot=              4.7964
 Quadrupole moment (field-independent basis, Debye-Ang):
   XX=           -113.3495   YY=           -107.0545   ZZ=            -96.1530
   XY=             26.6359   XZ=             -0.7223   YZ=             -0.3501

 Normal termination of Gaussian 16 at Thu May  6 12:56:10 2021.
