 Gaussian 16, Revision A.03,
 Gaussian 16:  EM64L-G16RevA.03 25-Dec-2016

 -------------
 #p 6-31g* mp2
 -------------

 ------------------------------------------------------
 Input file generated by CHIRIPA (05-May-2021 14:57:27)
 ------------------------------------------------------
 Symbolic Z-matrix:
 Charge =  0 Multiplicity = 1

                         Standard orientation:
 ---------------------------------------------------------------------
 Center     Atomic      Atomic             Coordinates (Angstroms)
 Number     Number       Type             X           Y           Z
 ---------------------------------------------------------------------
      1          6           0       -1.883192   -2.295379    1.213935
      2          6           0       -1.240665   -1.064009    1.379492
      3          6           0       -1.777369    0.098137    0.817432
      4          6           0       -2.963428   -0.007994    0.092664
      5          6           0       -3.627133   -1.220204   -0.089907
      6          6           0       -3.072279   -2.369416    0.481056
      7          1           0       -1.459218   -3.193138    1.654014
      8          1           0       -0.317080   -1.003518    1.948155
      9          1           0       -1.300716    1.064334    0.930052
     10          1           0       -4.546499   -1.248962   -0.662058
     11          1           0       -3.573451   -3.324360    0.350852
     12          7           0       -3.541220    1.215472   -0.507076
     13          8           0       -4.587245    1.095339   -1.141141
     14          8           0       -2.937128    2.271391   -0.331732
     15          6           0        2.317973    2.550057    0.573738
     16          6           0        3.534129    1.962454    0.937342
     17          6           0        3.849541    0.666273    0.519038
     18          6           0        2.921395   -0.016627   -0.265489
     19          6           0        1.701461    0.541608   -0.644204
     20          6           0        1.407126    1.839012   -0.214485
     21          1           0        2.081140    3.557437    0.903120
     22          1           0        4.243414    2.512299    1.549412
     23          1           0        4.783770    0.187363    0.786016
     24          1           0        1.014532   -0.031387   -1.255123
     25          1           0        0.461881    2.292836   -0.498386
     26          7           0        3.244151   -1.389483   -0.714371
     27          8           0        2.409466   -1.970113   -1.404884
     28          8           0        4.325700   -1.858903   -0.367193
 ---------------------------------------------------------------------

 SCF Done:  E(RHF) =  -868.339136607     A.U. after   16 cycles
 E2 =    -0.2601201268D+01 EUMP2 =    -0.87094033787527D+03

 The electronic state is 1-A.
 Alpha  occ. eigenvalues --  -20.61332 -20.61279 -20.61169 -20.61164 -15.86340
 Alpha  occ. eigenvalues --  -15.86220 -11.31554 -11.31503 -11.28130 -11.28083
 Alpha  occ. eigenvalues --  -11.28056 -11.27998 -11.27804 -11.27655 -11.27096
 Alpha  occ. eigenvalues --  -11.26993 -11.26977 -11.26947  -1.60371  -1.60251
 Alpha  occ. eigenvalues --   -1.39936  -1.39802  -1.19734  -1.19634  -1.09110
 Alpha  occ. eigenvalues --   -1.09051  -1.05161  -1.04958  -0.95954  -0.95924
 Alpha  occ. eigenvalues --   -0.86521  -0.86378  -0.82808  -0.82735  -0.77960
 Alpha  occ. eigenvalues --   -0.77743  -0.72562  -0.72431  -0.71688  -0.71586
 Alpha  occ. eigenvalues --   -0.70789  -0.70711  -0.65362  -0.65284  -0.65167
 Alpha  occ. eigenvalues --   -0.64874  -0.62593  -0.62191  -0.55569  -0.55460
 Alpha  occ. eigenvalues --   -0.53572  -0.53307  -0.53185  -0.52949  -0.49339
 Alpha  occ. eigenvalues --   -0.49286  -0.49191  -0.49185  -0.45381  -0.45213
 Alpha  occ. eigenvalues --   -0.37722  -0.37558  -0.37086  -0.36228
 Alpha virt. eigenvalues --    0.04403   0.04894   0.10625   0.11173   0.15987
 Alpha virt. eigenvalues --    0.16344   0.20771   0.21696   0.26241   0.27412
 Alpha virt. eigenvalues --    0.28048   0.28592   0.30147   0.31366   0.31892

 Mulliken charges:
               1
     1  C   -0.167269
     2  C   -0.218603
     3  C   -0.179118
     4  C    0.157979
     5  C   -0.170389
     6  C   -0.217517
     7  H    0.230624
     8  H    0.226567
     9  H    0.271059
    10  H    0.276350
    11  H    0.226215
    12  N    0.489208
    13  O   -0.455861
    14  O   -0.469834
    15  C   -0.172329
    16  C   -0.219301
    17  C   -0.171753
    18  C    0.154704
    19  C   -0.172897
    20  C   -0.235410
    21  H    0.230348
    22  H    0.224856
    23  H    0.276003
    24  H    0.278942
    25  H    0.240480
    26  N    0.487543
    27  O   -0.460254
    28  O   -0.460343
 Sum of Mulliken charges =  -0.00000

 Dipole moment (field-independent basis, Debye):
    X=              0.8491    Y=              0.3801    Z=              3.6937  Tot=              3.8090
 Quadrupole moment (field-independent basis, Debye-Ang):
   XX=           -116.9554   YY=           -103.8953   ZZ=           -104.6635
   XY=             30.4263   XZ=              2.9130   YZ=             -0.6486

 Normal termination of Gaussian 16 at Thu May  6 18:12:30 2021.
