 Gaussian 16, Revision A.03,
 Gaussian 16:  EM64L-G16RevA.03 25-Dec-2016

 -------------
 #p 6-31g* mp2
 -------------

 ------------------------------------------------------
 Input file generated by CHIRIPA (05-May-2021 14:57:23)
 ------------------------------------------------------
 Symbolic Z-matrix:
 Charge =  0 Multiplicity = 1

                         Standard orientation:
 ---------------------------------------------------------------------
 Center     Atomic      Atomic             Coordinates (Angstroms)
 Number     Number       Type             X           Y           Z
 ---------------------------------------------------------------------
      1          6           0        3.014364    2.486960    0.074180
      2          6           0        2.280791    1.490060    0.725780
      3          6           0        2.717789    0.162152    0.710296
      4          6           0        3.898067   -0.134767    0.030536
      5          6           0        4.651025    0.836067   -0.628119
      6          6           0        4.195058    2.157363   -0.599503
      7          1           0        2.667525    3.515943    0.091309
      8          1           0        1.363486    1.743120    1.249762
      9          1           0        2.169366   -0.629381    1.206405
     10          1           0        5.561617    0.553138   -1.142115
     11          1           0        4.766802    2.929496   -1.106419
     12          7           0        4.370739   -1.537064    0.007193
     13          8           0        5.413793   -1.772759   -0.598714
     14          8           0        3.689214   -2.373937    0.595245
     15          6           0       -6.335816   -0.113900   -0.227037
     16          6           0       -5.620095   -1.313693   -0.296025
     17          6           0       -4.226035   -1.315907   -0.190492
     18          6           0       -3.576962   -0.094652   -0.015758
     19          6           0       -4.261949    1.117295    0.056810
     20          6           0       -5.655659    1.095633   -0.051149
     21          1           0       -7.418620   -0.121454   -0.309960
     22          1           0       -6.145671   -2.254528   -0.432575
     23          1           0       -3.647151   -2.230133   -0.240518
     24          1           0       -3.710171    2.039410    0.193424
     25          1           0       -6.208897    2.028940    0.002783
     26          7           0       -2.101318   -0.084357    0.097249
     27          8           0       -1.553003    1.004872    0.250772
     28          8           0       -1.520965   -1.165710    0.030161
 ---------------------------------------------------------------------

 SCF Done:  E(RHF) =  -868.339815971     A.U. after   16 cycles
 E2 =    -0.2598579115D+01 EUMP2 =    -0.87093839508602D+03

 The electronic state is 1-A.
 Alpha  occ. eigenvalues --  -20.61496 -20.61446 -20.59686 -20.59661 -15.86494
 Alpha  occ. eigenvalues --  -15.84718 -11.31648 -11.29897 -11.28216 -11.28162
 Alpha  occ. eigenvalues --  -11.27894 -11.27172 -11.27136 -11.26516 -11.26297
 Alpha  occ. eigenvalues --  -11.26174 -11.25548 -11.25236  -1.60533  -1.58754
 Alpha  occ. eigenvalues --   -1.40091  -1.38311  -1.19800  -1.18046  -1.09236
 Alpha  occ. eigenvalues --   -1.07493  -1.05171  -1.03393  -0.96107  -0.94358
 Alpha  occ. eigenvalues --   -0.86579  -0.84815  -0.82946  -0.81175  -0.78016
 Alpha  occ. eigenvalues --   -0.76235  -0.72728  -0.71832  -0.70947  -0.70906
 Alpha  occ. eigenvalues --   -0.70071  -0.69186  -0.65457  -0.65172  -0.63696
 Alpha  occ. eigenvalues --   -0.63382  -0.62520  -0.60729  -0.55680  -0.53964
 Alpha  occ. eigenvalues --   -0.53512  -0.53260  -0.51772  -0.51477  -0.49485
 Alpha  occ. eigenvalues --   -0.49457  -0.47708  -0.47684  -0.45539  -0.43757
 Alpha  occ. eigenvalues --   -0.37768  -0.36764  -0.36058  -0.34970
 Alpha virt. eigenvalues --    0.04503   0.06256   0.10894   0.12662   0.16037
 Alpha virt. eigenvalues --    0.17790   0.21051   0.22773   0.26978   0.27900
 Alpha virt. eigenvalues --    0.28820   0.29557   0.30644   0.32064   0.32348

 Mulliken charges:
               1
     1  C   -0.173122
     2  C   -0.214592
     3  C   -0.168827
     4  C    0.156642
     5  C   -0.173642
     6  C   -0.219175
     7  H    0.221181
     8  H    0.236932
     9  H    0.281037
    10  H    0.270867
    11  H    0.217742
    12  N    0.488098
    13  O   -0.465726
    14  O   -0.459754
    15  C   -0.169992
    16  C   -0.218571
    17  C   -0.170208
    18  C    0.157864
    19  C   -0.170761
    20  C   -0.218515
    21  H    0.227268
    22  H    0.225715
    23  H    0.278221
    24  H    0.273458
    25  H    0.224149
    26  N    0.489821
    27  O   -0.470500
    28  O   -0.455609
 Sum of Mulliken charges =  -0.00000

 Dipole moment (field-independent basis, Debye):
    X=             -7.4406    Y=              4.7661    Z=             -0.2361  Tot=              8.8394
 Quadrupole moment (field-independent basis, Debye-Ang):
   XX=            -79.3853   YY=           -101.6402   ZZ=           -104.7886
   XY=             21.4284   XZ=             -0.2741   YZ=             -0.0062

 Normal termination of Gaussian 16 at Fri May  7 01:50:07 2021.
