 Gaussian 16, Revision A.03,
 Gaussian 16:  EM64L-G16RevA.03 25-Dec-2016

 -------------
 #p 6-31g* mp2
 -------------

 ------------------------------------------------------
 Input file generated by CHIRIPA (05-May-2021 14:51:08)
 ------------------------------------------------------
 Symbolic Z-matrix:
 Charge =  0 Multiplicity = 1

                         Standard orientation:
 ---------------------------------------------------------------------
 Center     Atomic      Atomic             Coordinates (Angstroms)
 Number     Number       Type             X           Y           Z
 ---------------------------------------------------------------------
      1          6           0       -3.121995    0.062561    0.101945
      2          6           0       -2.537976    1.063730    1.099224
      3          6           0       -1.042154    1.301930    0.890488
      4          1           0       -2.581828   -0.890067    0.189497
      5          1           0       -2.947021    0.428384   -0.919306
      6          1           0       -2.715222    0.696805    2.118324
      7          1           0       -3.079723    2.014026    1.009421
      8          1           0       -0.850635    1.691206   -0.114691
      9          1           0       -0.484063    0.366500    1.000513
     10          1           0       -0.645306    2.020860    1.614030
     11          6           0       -4.616495   -0.186050    0.297879
     12          6           0       -5.200513   -1.187220   -0.699400
     13          6           0       -6.696336   -1.425420   -0.490665
     14          1           0       -4.791469   -0.551873    1.319129
     15          1           0       -5.156662    0.766577    0.210327
     16          1           0       -4.658766   -2.137515   -0.609597
     17          1           0       -5.023268   -0.820294   -1.718501
     18          1           0       -7.254427   -0.489990   -0.600689
     19          1           0       -6.887854   -1.814695    0.514515
     20          1           0       -7.093184   -2.144349   -1.214206
     21          6           0        4.196333   -0.436596    0.277688
     22          6           0        5.140680   -1.415553   -0.420766
     23          6           0        5.787339   -2.406184    0.547882
     24          1           0        4.753085    0.112943    1.049038
     25          1           0        3.413673   -1.003120    0.801033
     26          1           0        5.920528   -0.847304   -0.943784
     27          1           0        4.581661   -1.962689   -1.190672
     28          1           0        5.022625   -2.998284    1.060942
     29          1           0        6.369097   -1.876562    1.309233
     30          1           0        6.458457   -3.096581    0.027487
     31          6           0        3.542156    0.560086   -0.677512
     32          6           0        2.597809    1.539042    0.020942
     33          6           0        1.951151    2.529674   -0.947705
     34          1           0        4.324816    1.126609   -1.200857
     35          1           0        2.985405    0.010547   -1.448861
     36          1           0        3.156828    2.086178    0.790849
     37          1           0        1.817963    0.970793    0.543960
     38          1           0        1.369392    2.000051   -1.709057
     39          1           0        2.715866    3.121773   -1.460766
     40          1           0        1.280033    3.220071   -0.427310
 ---------------------------------------------------------------------

 SCF Done:  E(RHF) =  -470.732196593     A.U. after   11 cycles
 E2 =    -0.1583465996D+01 EUMP2 =    -0.47231566258852D+03

 The electronic state is 1-A.
 Alpha  occ. eigenvalues --  -11.21616 -11.21594 -11.21564 -11.21422 -11.21413
 Alpha  occ. eigenvalues --  -11.21362 -11.21338 -11.21265 -11.21082 -11.21052
 Alpha  occ. eigenvalues --  -11.21046 -11.20952  -1.08449  -1.08348  -1.03582
 Alpha  occ. eigenvalues --   -1.03414  -0.96067  -0.95846  -0.87049  -0.86904
 Alpha  occ. eigenvalues --   -0.79659  -0.79485  -0.78276  -0.78144  -0.65076
 Alpha  occ. eigenvalues --   -0.64992  -0.60960  -0.60872  -0.59441  -0.59216
 Alpha  occ. eigenvalues --   -0.57622  -0.57502  -0.55392  -0.55145  -0.52762
 Alpha  occ. eigenvalues --   -0.52565  -0.52357  -0.52306  -0.50132  -0.49684
 Alpha  occ. eigenvalues --   -0.47992  -0.47767  -0.46767  -0.46401  -0.45864
 Alpha  occ. eigenvalues --   -0.45725  -0.45691  -0.45491  -0.43778  -0.43697
 Alpha virt. eigenvalues --    0.21924   0.22997   0.23611   0.24886   0.25939
 Alpha virt. eigenvalues --    0.26597   0.27203   0.27548   0.27594   0.29341
 Alpha virt. eigenvalues --    0.30516   0.30874   0.31614   0.32140   0.32439

 Mulliken charges:
               1
     1  C   -0.298441
     2  C   -0.300592
     3  C   -0.478829
     4  H    0.149274
     5  H    0.149439
     6  H    0.151656
     7  H    0.151811
     8  H    0.161539
     9  H    0.154039
    10  H    0.160633
    11  C   -0.298236
    12  C   -0.299635
    13  C   -0.475713
    14  H    0.149576
    15  H    0.149756
    16  H    0.151839
    17  H    0.151925
    18  H    0.155233
    19  H    0.155202
    20  H    0.160278
    21  C   -0.298046
    22  C   -0.299556
    23  C   -0.475642
    24  H    0.149561
    25  H    0.148768
    26  H    0.151918
    27  H    0.151789
    28  H    0.154964
    29  H    0.155127
    30  H    0.160112
    31  C   -0.297791
    32  C   -0.306556
    33  C   -0.476164
    34  H    0.148955
    35  H    0.149109
    36  H    0.150658
    37  H    0.162388
    38  H    0.153728
    39  H    0.154340
    40  H    0.161582
 Sum of Mulliken charges =  -0.00000

 Dipole moment (field-independent basis, Debye):
    X=             -0.0404    Y=              0.0123    Z=              0.0118  Tot=              0.0438
 Quadrupole moment (field-independent basis, Debye-Ang):
   XX=            -85.8579   YY=            -84.4984   ZZ=            -84.7378
   XY=              0.4269   XZ=              0.0410   YZ=              0.0795

 Normal termination of Gaussian 16 at Thu May  6 10:01:28 2021.
