 Gaussian 16, Revision A.03,
 Gaussian 16:  EM64L-G16RevA.03 25-Dec-2016

 -------------
 #p 6-31g* mp2
 -------------

 ------------------------------------------------------
 Input file generated by CHIRIPA (05-May-2021 14:57:24)
 ------------------------------------------------------
 Symbolic Z-matrix:
 Charge =  0 Multiplicity = 1

                         Standard orientation:
 ---------------------------------------------------------------------
 Center     Atomic      Atomic             Coordinates (Angstroms)
 Number     Number       Type             X           Y           Z
 ---------------------------------------------------------------------
      1          6           0       -2.543120    1.959058   -0.147243
      2          6           0       -2.035709    0.656083   -0.183449
      3          6           0       -2.898906   -0.443177   -0.150817
      4          6           0       -4.270129   -0.201827   -0.081619
      5          6           0       -4.806246    1.084433   -0.044153
      6          6           0       -3.924334    2.168705   -0.077833
      7          1           0       -1.865299    2.807169   -0.172999
      8          1           0       -0.963495    0.490266   -0.237358
      9          1           0       -2.533060   -1.462420   -0.177619
     10          1           0       -5.879872    1.218080    0.009543
     11          1           0       -4.321224    3.179510   -0.049585
     12          7           0       -5.193863   -1.357631   -0.046518
     13          8           0       -6.397868   -1.118281    0.014481
     14          8           0       -4.696390   -2.481015   -0.080670
     15          6           0        5.761727   -1.867207   -0.279728
     16          6           0        4.547059   -2.116446    0.367561
     17          6           0        3.628714   -1.083207    0.576389
     18          6           0        3.958966    0.192947    0.122897
     19          6           0        5.160953    0.472900   -0.525287
     20          6           0        6.064264   -0.575606   -0.723304
     21          1           0        6.469280   -2.675782   -0.437751
     22          1           0        4.309439   -3.118530    0.713116
     23          1           0        2.681110   -1.248249    1.074611
     24          1           0        5.369732    1.482256   -0.858501
     25          1           0        7.006831   -0.379119   -1.226301
     26          7           0        2.994713    1.294873    0.338251
     27          8           0        3.309383    2.410362   -0.070776
     28          8           0        1.942521    1.022207    0.911994
 ---------------------------------------------------------------------

 SCF Done:  E(RHF) =  -868.340226205     A.U. after   16 cycles
 E2 =    -0.2598091317D+01 EUMP2 =    -0.87093831752244D+03

 The electronic state is 1-A.
 Alpha  occ. eigenvalues --  -20.61785 -20.61727 -20.60231 -20.60225 -15.86780
 Alpha  occ. eigenvalues --  -15.85275 -11.31867 -11.30446 -11.28410 -11.28390
 Alpha  occ. eigenvalues --  -11.28076 -11.27345 -11.27335 -11.27001 -11.26954
 Alpha  occ. eigenvalues --  -11.26560 -11.25961 -11.25773  -1.60821  -1.59310
 Alpha  occ. eigenvalues --   -1.40382  -1.38870  -1.20011  -1.18572  -1.09455
 Alpha  occ. eigenvalues --   -1.07978  -1.05370  -1.03941  -0.96337  -0.94858
 Alpha  occ. eigenvalues --   -0.86781  -0.85326  -0.83178  -0.81701  -0.78261
 Alpha  occ. eigenvalues --   -0.76795  -0.73010  -0.72121  -0.71498  -0.71111
 Alpha  occ. eigenvalues --   -0.70630  -0.69632  -0.65666  -0.65365  -0.64207
 Alpha  occ. eigenvalues --   -0.63893  -0.62722  -0.61288  -0.55872  -0.54367
 Alpha  occ. eigenvalues --   -0.53715  -0.53455  -0.52288  -0.52001  -0.49781
 Alpha  occ. eigenvalues --   -0.49741  -0.48267  -0.48233  -0.45838  -0.44320
 Alpha  occ. eigenvalues --   -0.37969  -0.36961  -0.36507  -0.35553
 Alpha virt. eigenvalues --    0.04217   0.05720   0.10697   0.12115   0.15747
 Alpha virt. eigenvalues --    0.17290   0.20846   0.22415   0.26776   0.27490
 Alpha virt. eigenvalues --    0.28418   0.29247   0.30450   0.31605   0.32430

 Mulliken charges:
               1
     1  C   -0.171951
     2  C   -0.222405
     3  C   -0.173529
     4  C    0.158124
     5  C   -0.172727
     6  C   -0.219114
     7  H    0.233104
     8  H    0.238185
     9  H    0.270883
    10  H    0.272754
    11  H    0.221456
    12  N    0.488273
    13  O   -0.462397
    14  O   -0.463556
    15  C   -0.169733
    16  C   -0.218281
    17  C   -0.171320
    18  C    0.157506
    19  C   -0.170500
    20  C   -0.218411
    21  H    0.228382
    22  H    0.226309
    23  H    0.274226
    24  H    0.276257
    25  H    0.225645
    26  N    0.489466
    27  O   -0.457301
    28  O   -0.469345
 Sum of Mulliken charges =  -0.00000

 Dipole moment (field-independent basis, Debye):
    X=              7.1971    Y=              0.2579    Z=             -0.9042  Tot=              7.2582
 Quadrupole moment (field-independent basis, Debye-Ang):
   XX=           -101.3550   YY=           -104.4450   ZZ=           -105.5774
   XY=            -34.1598   XZ=             -4.4303   YZ=             -2.4878

 Normal termination of Gaussian 16 at Thu May  6 22:47:25 2021.
