 Gaussian 16, Revision A.03,
 Gaussian 16:  EM64L-G16RevA.03 25-Dec-2016

 -------------
 #p 6-31g* mp2
 -------------

 ------------------------------------------------------
 Input file generated by CHIRIPA (05-May-2021 14:57:26)
 ------------------------------------------------------
 Symbolic Z-matrix:
 Charge =  0 Multiplicity = 1

                         Standard orientation:
 ---------------------------------------------------------------------
 Center     Atomic      Atomic             Coordinates (Angstroms)
 Number     Number       Type             X           Y           Z
 ---------------------------------------------------------------------
      1          6           0        3.906516   -2.121799    0.452396
      2          6           0        4.439511   -1.276021   -0.525917
      3          6           0        3.840765   -0.043059   -0.801339
      4          6           0        2.705030    0.314046   -0.076168
      5          6           0        2.150281   -0.506717    0.904593
      6          6           0        2.765614   -1.735129    1.163276
      7          1           0        4.378079   -3.077826    0.659849
      8          1           0        5.325460   -1.573711   -1.079559
      9          1           0        4.232468    0.631043   -1.553384
     10          1           0        1.266173   -0.182537    1.440016
     11          1           0        2.349490   -2.389946    1.923606
     12          7           0        2.062384    1.616919   -0.358885
     13          8           0        1.062602    1.908372    0.293899
     14          8           0        2.570630    2.321987   -1.227908
     15          6           0       -2.272209    2.162838    1.008522
     16          6           0       -2.629057    2.050338   -0.339263
     17          6           0       -2.929618    0.802015   -0.892347
     18          6           0       -2.863029   -0.318013   -0.065068
     19          6           0       -2.510744   -0.238410    1.281353
     20          6           0       -2.214294    1.020119    1.813110
     21          1           0       -2.040322    3.136530    1.429887
     22          1           0       -2.674857    2.936078   -0.966488
     23          1           0       -3.208749    0.686257   -1.932590
     24          1           0       -2.473750   -1.139380    1.881606
     25          1           0       -1.937461    1.104486    2.860149
     26          7           0       -3.179043   -1.644960   -0.639305
     27          8           0       -3.113066   -2.616493    0.110634
     28          8           0       -3.486729   -1.688361   -1.828457
 ---------------------------------------------------------------------

 SCF Done:  E(RHF) =  -868.339028734     A.U. after   16 cycles
 E2 =    -0.2600216619D+01 EUMP2 =    -0.87093924535286D+03

 The electronic state is 1-A.
 Alpha  occ. eigenvalues --  -20.61120 -20.61113 -20.60404 -20.60383 -15.86153
 Alpha  occ. eigenvalues --  -15.85445 -11.31352 -11.30553 -11.27904 -11.27897
 Alpha  occ. eigenvalues --  -11.27600 -11.27202 -11.27072 -11.26875 -11.26865
 Alpha  occ. eigenvalues --  -11.26707 -11.26098 -11.25934  -1.60192  -1.59480
 Alpha  occ. eigenvalues --   -1.39751  -1.39042  -1.19506  -1.18694  -1.08932
 Alpha  occ. eigenvalues --   -1.08098  -1.04886  -1.04087  -0.95801  -0.94992
 Alpha  occ. eigenvalues --   -0.86291  -0.85481  -0.82643  -0.81859  -0.77710
 Alpha  occ. eigenvalues --   -0.76964  -0.72407  -0.71670  -0.71502  -0.70804
 Alpha  occ. eigenvalues --   -0.70613  -0.69769  -0.65165  -0.64889  -0.64352
 Alpha  occ. eigenvalues --   -0.64089  -0.62243  -0.61470  -0.55388  -0.54514
 Alpha  occ. eigenvalues --   -0.53219  -0.52986  -0.52357  -0.52187  -0.49159
 Alpha  occ. eigenvalues --   -0.49130  -0.48440  -0.48400  -0.45188  -0.44508
 Alpha  occ. eigenvalues --   -0.37474  -0.36523  -0.36453  -0.35682
 Alpha virt. eigenvalues --    0.04813   0.05584   0.11176   0.11996   0.16348
 Alpha virt. eigenvalues --    0.17136   0.21243   0.22131   0.27027   0.27778
 Alpha virt. eigenvalues --    0.28409   0.29033   0.30827   0.31659   0.32319

 Mulliken charges:
               1
     1  C   -0.169659
     2  C   -0.218340
     3  C   -0.170504
     4  C    0.157632
     5  C   -0.170447
     6  C   -0.217464
     7  H    0.227262
     8  H    0.224340
     9  H    0.275389
    10  H    0.272310
    11  H    0.224720
    12  N    0.490936
    13  O   -0.467251
    14  O   -0.460870
    15  C   -0.149811
    16  C   -0.212566
    17  C   -0.171794
    18  C    0.157371
    19  C   -0.178009
    20  C   -0.219280
    21  H    0.229037
    22  H    0.225288
    23  H    0.273641
    24  H    0.268631
    25  H    0.218678
    26  N    0.488215
    27  O   -0.466062
    28  O   -0.461393
 Sum of Mulliken charges =  -0.00000

 Dipole moment (field-independent basis, Debye):
    X=              3.5355    Y=              0.3631    Z=              2.9561  Tot=              4.6227
 Quadrupole moment (field-independent basis, Debye-Ang):
   XX=            -97.7732   YY=           -110.2531   ZZ=            -99.6182
   XY=            -26.5294   XZ=             -5.2099   YZ=             -3.1488

 Normal termination of Gaussian 16 at Fri May  7 01:59:29 2021.
