 Gaussian 16, Revision A.03,
 Gaussian 16:  EM64L-G16RevA.03 25-Dec-2016

 -------------
 #p 6-31g* mp2
 -------------

 ------------------------------------------------------
 Input file generated by CHIRIPA (05-May-2021 14:51:10)
 ------------------------------------------------------
 Symbolic Z-matrix:
 Charge =  0 Multiplicity = 1

                         Standard orientation:
 ---------------------------------------------------------------------
 Center     Atomic      Atomic             Coordinates (Angstroms)
 Number     Number       Type             X           Y           Z
 ---------------------------------------------------------------------
      1          6           0        2.604445   -1.055179    0.218864
      2          6           0        1.482115   -0.583769    1.144139
      3          6           0        0.334823   -1.589728    1.241924
      4          1           0        2.191865   -1.241407   -0.782157
      5          1           0        2.989703   -2.017954    0.582231
      6          1           0        1.100024    0.378504    0.779925
      7          1           0        1.897451   -0.398458    2.143024
      8          1           0        0.695430   -2.549118    1.626805
      9          1           0       -0.106527   -1.767741    0.255961
     10          1           0       -0.456494   -1.232649    1.908386
     11          6           0        3.758610   -0.060216    0.110791
     12          6           0        4.880939   -0.531625   -0.814485
     13          6           0        6.028231    0.474334   -0.912269
     14          1           0        3.373352    0.902559   -0.252576
     15          1           0        4.171189    0.126013    1.111812
     16          1           0        4.465603   -0.716937   -1.813370
     17          1           0        5.263030   -1.493899   -0.450270
     18          1           0        6.469582    0.652347    0.073694
     19          1           0        5.667624    1.433724   -1.297151
     20          1           0        6.819548    0.117254   -1.578731
     21          6           0       -3.826571    0.291431   -0.475398
     22          6           0       -4.062369   -1.194557   -0.202960
     23          6           0       -5.356752   -1.712534   -0.830707
     24          1           0       -4.678804    0.868012   -0.090435
     25          1           0       -3.801068    0.458473   -1.561142
     26          1           0       -4.086039   -1.358965    0.881949
     27          1           0       -3.209385   -1.767652   -0.588445
     28          1           0       -5.339040   -1.577446   -1.917003
     29          1           0       -6.220673   -1.166437   -0.438256
     30          1           0       -5.505516   -2.776877   -0.623574
     31          6           0       -2.536484    0.823963    0.145742
     32          6           0       -2.300685    2.309952   -0.126695
     33          6           0       -1.006302    2.827928    0.501053
     34          1           0       -2.561986    0.656921    1.231487
     35          1           0       -1.684250    0.247382   -0.239219
     36          1           0       -3.153669    2.883046    0.258790
     37          1           0       -2.277016    2.474359   -1.211602
     38          1           0       -0.142381    2.281832    0.108601
     39          1           0       -1.024015    2.692840    1.587349
     40          1           0       -0.857540    3.892271    0.293919
 ---------------------------------------------------------------------

 SCF Done:  E(RHF) =  -470.732488290     A.U. after   11 cycles
 E2 =    -0.1584201472D+01 EUMP2 =    -0.47231668976155D+03

 The electronic state is 1-A.
 Alpha  occ. eigenvalues --  -11.21609 -11.21594 -11.21582 -11.21521 -11.21388
 Alpha  occ. eigenvalues --  -11.21382 -11.21328 -11.21316 -11.21096 -11.21063
 Alpha  occ. eigenvalues --  -11.21057 -11.20988  -1.08450  -1.08384  -1.03556
 Alpha  occ. eigenvalues --   -1.03476  -0.95999  -0.95934  -0.87041  -0.86927
 Alpha  occ. eigenvalues --   -0.79637  -0.79525  -0.78258  -0.78203  -0.65190
 Alpha  occ. eigenvalues --   -0.64934  -0.61060  -0.60792  -0.59410  -0.59251
 Alpha  occ. eigenvalues --   -0.57608  -0.57555  -0.55339  -0.55204  -0.52714
 Alpha  occ. eigenvalues --   -0.52617  -0.52486  -0.52311  -0.50057  -0.49782
 Alpha  occ. eigenvalues --   -0.48026  -0.47806  -0.46739  -0.46461  -0.45892
 Alpha  occ. eigenvalues --   -0.45737  -0.45671  -0.45455  -0.43787  -0.43730
 Alpha virt. eigenvalues --    0.20749   0.22991   0.23682   0.24304   0.25205
 Alpha virt. eigenvalues --    0.26205   0.26365   0.27447   0.28740   0.29741
 Alpha virt. eigenvalues --    0.30857   0.31155   0.31612   0.31793   0.32426

 Mulliken charges:
               1
     1  C   -0.297604
     2  C   -0.309140
     3  C   -0.476214
     4  H    0.148544
     5  H    0.149549
     6  H    0.160239
     7  H    0.151922
     8  H    0.154523
     9  H    0.154076
    10  H    0.162859
    11  C   -0.298188
    12  C   -0.299594
    13  C   -0.475701
    14  H    0.148954
    15  H    0.149887
    16  H    0.151720
    17  H    0.151980
    18  H    0.155235
    19  H    0.155201
    20  H    0.160185
    21  C   -0.298307
    22  C   -0.300099
    23  C   -0.475720
    24  H    0.149475
    25  H    0.149061
    26  H    0.152009
    27  H    0.152679
    28  H    0.154988
    29  H    0.155122
    30  H    0.160364
    31  C   -0.302528
    32  C   -0.299673
    33  C   -0.479664
    34  H    0.149329
    35  H    0.156520
    36  H    0.151926
    37  H    0.151432
    38  H    0.158498
    39  H    0.155626
    40  H    0.160529
 Sum of Mulliken charges =  -0.00000

 Dipole moment (field-independent basis, Debye):
    X=             -0.0176    Y=              0.0113    Z=              0.0158  Tot=              0.0262
 Quadrupole moment (field-independent basis, Debye-Ang):
   XX=            -86.0401   YY=            -85.2642   ZZ=            -83.5872
   XY=             -1.3197   XZ=             -0.2824   YZ=             -0.2368

 Normal termination of Gaussian 16 at Thu May  6 03:47:28 2021.
