 Gaussian 16, Revision A.03,
 Gaussian 16:  EM64L-G16RevA.03 25-Dec-2016

 -------------
 #p 6-31g* mp2
 -------------

 ------------------------------------------------------
 Input file generated by CHIRIPA (05-May-2021 14:51:07)
 ------------------------------------------------------
 Symbolic Z-matrix:
 Charge =  0 Multiplicity = 1

                         Standard orientation:
 ---------------------------------------------------------------------
 Center     Atomic      Atomic             Coordinates (Angstroms)
 Number     Number       Type             X           Y           Z
 ---------------------------------------------------------------------
      1          6           0       -2.512540   -0.679277    0.067348
      2          6           0       -2.714820   -1.982640   -0.706158
      3          6           0       -1.595277   -2.994919   -0.461806
      4          1           0       -1.547965   -0.237221   -0.217476
      5          1           0       -2.448367   -0.904372    1.140944
      6          1           0       -2.779978   -1.755004   -1.777863
      7          1           0       -3.679114   -2.421547   -0.419602
      8          1           0       -1.532600   -3.250978    0.600789
      9          1           0       -0.628355   -2.580648   -0.765191
     10          1           0       -1.759919   -3.919192   -1.024365
     11          6           0       -3.623616    0.342728   -0.166626
     12          6           0       -3.421337    1.646092    0.606880
     13          6           0       -4.540880    2.658371    0.362527
     14          1           0       -3.687790    0.567824   -1.240223
     15          1           0       -4.588192   -0.099328    0.118198
     16          1           0       -2.457043    2.084998    0.320323
     17          1           0       -3.356179    1.418456    1.678585
     18          1           0       -5.507802    2.244100    0.665912
     19          1           0       -4.603557    2.914429   -0.700067
     20          1           0       -4.376237    3.582643    0.925087
     21          6           0        2.978445    0.794166   -0.378913
     22          6           0        3.659171    2.032116    0.205960
     23          6           0        3.470918    3.276202   -0.662720
     24          1           0        3.377783    0.604698   -1.384685
     25          1           0        1.905680    0.997805   -0.501793
     26          1           0        4.730097    1.825721    0.328990
     27          1           0        3.258304    2.218546    1.210532
     28          1           0        2.407314    3.509838   -0.775684
     29          1           0        3.887468    3.114781   -1.662236
     30          1           0        3.965556    4.149394   -0.225995
     31          6           0        3.157711   -0.457617    0.478192
     32          6           0        2.476985   -1.695568   -0.106681
     33          6           0        2.665239   -2.939653    0.761999
     34          1           0        4.230477   -0.661258    0.601071
     35          1           0        2.758374   -0.268150    1.483963
     36          1           0        2.877852   -1.881998   -1.111253
     37          1           0        1.406060   -1.489172   -0.229711
     38          1           0        2.248689   -2.778232    1.761514
     39          1           0        3.728843   -3.173289    0.874963
     40          1           0        2.170601   -3.812845    0.325273
 ---------------------------------------------------------------------

 SCF Done:  E(RHF) =  -470.733306636     A.U. after   11 cycles
 E2 =    -0.1582936917D+01 EUMP2 =    -0.47231624355298D+03

 The electronic state is 1-A.
 Alpha  occ. eigenvalues --  -11.21640 -11.21621 -11.21609 -11.21574 -11.21450
 Alpha  occ. eigenvalues --  -11.21410 -11.21389 -11.21345 -11.21098 -11.21083
 Alpha  occ. eigenvalues --  -11.21050 -11.21027  -1.08469  -1.08425  -1.03570
 Alpha  occ. eigenvalues --   -1.03508  -0.96019  -0.95953  -0.87021  -0.86984
 Alpha  occ. eigenvalues --   -0.79665  -0.79549  -0.78315  -0.78212  -0.65149
 Alpha  occ. eigenvalues --   -0.65014  -0.61055  -0.60839  -0.59394  -0.59321
 Alpha  occ. eigenvalues --   -0.57698  -0.57502  -0.55336  -0.55209  -0.52703
 Alpha  occ. eigenvalues --   -0.52658  -0.52427  -0.52380  -0.50017  -0.49856
 Alpha  occ. eigenvalues --   -0.48052  -0.47823  -0.46810  -0.46483  -0.45978
 Alpha  occ. eigenvalues --   -0.45771  -0.45757  -0.45443  -0.43817  -0.43771
 Alpha virt. eigenvalues --    0.20828   0.23227   0.23392   0.24753   0.25320
 Alpha virt. eigenvalues --    0.26817   0.26917   0.27219   0.28688   0.29214
 Alpha virt. eigenvalues --    0.30432   0.31390   0.31612   0.31872   0.31937

 Mulliken charges:
               1
     1  C   -0.299312
     2  C   -0.299519
     3  C   -0.482718
     4  H    0.149340
     5  H    0.149538
     6  H    0.151993
     7  H    0.152065
     8  H    0.155263
     9  H    0.162906
    10  H    0.160254
    11  C   -0.298323
    12  C   -0.299577
    13  C   -0.475741
    14  H    0.149761
    15  H    0.149987
    16  H    0.151494
    17  H    0.151923
    18  H    0.155298
    19  H    0.155325
    20  H    0.160337
    21  C   -0.298426
    22  C   -0.299668
    23  C   -0.475677
    24  H    0.149614
    25  H    0.148779
    26  H    0.152063
    27  H    0.152153
    28  H    0.154951
    29  H    0.155150
    30  H    0.160355
    31  C   -0.297542
    32  C   -0.306418
    33  C   -0.475793
    34  H    0.149532
    35  H    0.149914
    36  H    0.151503
    37  H    0.157471
    38  H    0.155195
    39  H    0.154891
    40  H    0.161664
 Sum of Mulliken charges =  -0.00000

 Dipole moment (field-independent basis, Debye):
    X=             -0.0076    Y=             -0.0131    Z=              0.0031  Tot=              0.0154
 Quadrupole moment (field-independent basis, Debye-Ang):
   XX=            -84.2848   YY=            -86.2309   ZZ=            -84.1615
   XY=              0.6454   XZ=             -0.9340   YZ=              0.3871

 Normal termination of Gaussian 16 at Wed May  5 22:52:55 2021.
