 Gaussian 16, Revision A.03,
 Gaussian 16:  EM64L-G16RevA.03 25-Dec-2016

 -------------
 #p 6-31g* mp2
 -------------

 ------------------------------------------------------
 Input file generated by CHIRIPA (05-May-2021 14:55:24)
 ------------------------------------------------------
 Symbolic Z-matrix:
 Charge =  0 Multiplicity = 1

                         Standard orientation:
 ---------------------------------------------------------------------
 Center     Atomic      Atomic             Coordinates (Angstroms)
 Number     Number       Type             X           Y           Z
 ---------------------------------------------------------------------
      1          6           0        3.962379    0.371838   -1.639972
      2          6           0        3.080584    1.386636   -1.253780
      3          6           0        2.197783    1.192315   -0.187267
      4          6           0        2.223758   -0.034692    0.473844
      5          6           0        3.090454   -1.065119    0.112806
      6          6           0        3.964496   -0.848649   -0.956651
      7          1           0        4.644758    0.531394   -2.469608
      8          1           0        3.076733    2.335500   -1.782634
      9          1           0        1.504664    1.960856    0.132653
     10          1           0        3.071034   -2.000268    0.659192
     11          1           0        4.648212   -1.638545   -1.254377
     12          7           0        1.293812   -0.252135    1.604472
     13          8           0        1.336333   -1.342186    2.170704
     14          8           0        0.540010    0.671601    1.903018
     15          6           0       -3.409372   -0.670567   -0.333267
     16          6           0       -2.553329   -1.855338   -0.782147
     17          6           0       -3.300978   -3.186942   -0.707013
     18          1           0       -3.751663   -0.842940    0.696330
     19          1           0       -4.311622   -0.621340   -0.958500
     20          1           0       -1.652290   -1.901486   -0.157156
     21          1           0       -2.212879   -1.680035   -1.810728
     22          1           0       -4.190824   -3.165630   -1.344448
     23          1           0       -3.627050   -3.388339    0.318519
     24          1           0       -2.670467   -4.020283   -1.032371
     25          6           0       -2.675810    0.667636   -0.402742
     26          6           0       -3.531853    1.852406    0.046139
     27          6           0       -2.784204    3.184010   -0.028994
     28          1           0       -1.773559    0.618409    0.222491
     29          1           0       -2.333518    0.840008   -1.432338
     30          1           0       -3.872304    1.677104    1.074720
     31          1           0       -4.432892    1.898555   -0.578852
     32          1           0       -2.458133    3.385407   -1.054528
     33          1           0       -1.894358    3.162698    0.608440
     34          1           0       -3.414716    4.017352    0.296363
 ---------------------------------------------------------------------

 SCF Done:  E(RHF) =  -669.536745741     A.U. after   15 cycles
 E2 =    -0.2091776866D+01 EUMP2 =    -0.67162852260674D+03

 The electronic state is 1-A.
 Alpha  occ. eigenvalues --  -20.61041 -20.61030 -15.86046 -11.31294 -11.27855
 Alpha  occ. eigenvalues --  -11.27846 -11.27585 -11.26850 -11.26838 -11.21013
 Alpha  occ. eigenvalues --  -11.20946 -11.20692 -11.20563 -11.20547 -11.20544
 Alpha  occ. eigenvalues --   -1.60085  -1.39644  -1.19460  -1.08879  -1.07746
 Alpha  occ. eigenvalues --   -1.04846  -1.02923  -0.95732  -0.95375  -0.86402
 Alpha  occ. eigenvalues --   -0.86251  -0.82570  -0.78996  -0.77672  -0.77526
 Alpha  occ. eigenvalues --   -0.72273  -0.71388  -0.70572  -0.65121  -0.64852
 Alpha  occ. eigenvalues --   -0.64345  -0.62195  -0.60306  -0.58752  -0.56999
 Alpha  occ. eigenvalues --   -0.55359  -0.54649  -0.53179  -0.52940  -0.52107
 Alpha  occ. eigenvalues --   -0.51823  -0.49316  -0.49045  -0.49023  -0.47331
 Alpha  occ. eigenvalues --   -0.46037  -0.45409  -0.45109  -0.44561  -0.43152
 Alpha  occ. eigenvalues --   -0.37436  -0.36442
 Alpha virt. eigenvalues --    0.04859   0.11201   0.16324   0.21117   0.23468
 Alpha virt. eigenvalues --    0.24581   0.26500   0.27375   0.27744   0.28404
 Alpha virt. eigenvalues --    0.28922   0.30827   0.31524   0.32254   0.32468

 Mulliken charges:
               1
     1  C   -0.170352
     2  C   -0.218737
     3  C   -0.170332
     4  C    0.158435
     5  C   -0.170601
     6  C   -0.218623
     7  H    0.226044
     8  H    0.224138
     9  H    0.276550
    10  H    0.275695
    11  H    0.223814
    12  N    0.488080
    13  O   -0.458301
    14  O   -0.459771
    15  C   -0.297086
    16  C   -0.300456
    17  C   -0.475045
    18  H    0.153627
    19  H    0.145591
    20  H    0.155995
    21  H    0.146891
    22  H    0.152743
    23  H    0.157842
    24  H    0.157635
    25  C   -0.309913
    26  C   -0.297250
    27  C   -0.478392
    28  H    0.168601
    29  H    0.141193
    30  H    0.155744
    31  H    0.148024
    32  H    0.148426
    33  H    0.161362
    34  H    0.158430
 Sum of Mulliken charges =  -0.00000

 Dipole moment (field-independent basis, Debye):
    X=              3.4751    Y=              0.7245    Z=             -3.7960  Tot=              5.1972
 Quadrupole moment (field-independent basis, Debye-Ang):
   XX=            -80.4740   YY=            -92.0942   ZZ=            -98.3721
   XY=             -0.6922   XZ=             -7.5653   YZ=             -0.3254

 Normal termination of Gaussian 16 at Wed May  5 22:25:11 2021.
