 Gaussian 16, Revision A.03,
 Gaussian 16:  EM64L-G16RevA.03 25-Dec-2016

 -------------
 #p 6-31g* mp2
 -------------

 ------------------------------------------------------
 Input file generated by CHIRIPA (05-May-2021 14:57:23)
 ------------------------------------------------------
 Symbolic Z-matrix:
 Charge =  0 Multiplicity = 1

                         Standard orientation:
 ---------------------------------------------------------------------
 Center     Atomic      Atomic             Coordinates (Angstroms)
 Number     Number       Type             X           Y           Z
 ---------------------------------------------------------------------
      1          6           0        1.308534    0.681650    1.653727
      2          6           0        1.780455   -0.632060    1.564410
      3          6           0        2.919310   -0.927588    0.809280
      4          6           0        3.564558    0.119703    0.153440
      5          6           0        3.118892    1.438727    0.223073
      6          6           0        1.978079    1.711036    0.983954
      7          1           0        0.423084    0.902204    2.242564
      8          1           0        1.262497   -1.433501    2.083503
      9          1           0        3.306290   -1.935669    0.723054
     10          1           0        3.656498    2.216506   -0.305565
     11          1           0        1.613847    2.732218    1.051529
     12          7           0        4.771249   -0.180868   -0.649027
     13          8           0        5.321748    0.759641   -1.217385
     14          8           0        5.143707   -1.351274   -0.694448
     15          6           0       -5.743366    0.621266    0.010332
     16          6           0       -4.760012    1.511221   -0.434094
     17          6           0       -3.439364    1.084205   -0.601710
     18          6           0       -3.135815   -0.245665   -0.314315
     19          6           0       -4.093163   -1.156324    0.130065
     20          6           0       -5.407396   -0.707323    0.290500
     21          1           0       -6.766786    0.961521    0.137751
     22          1           0       -5.018047    2.543591   -0.652440
     23          1           0       -2.658326    1.752023   -0.944370
     24          1           0       -3.805548   -2.179437    0.339675
     25          1           0       -6.169010   -1.400692    0.635795
     26          7           0       -1.741100   -0.709364   -0.487960
     27          8           0       -1.499332   -1.886051   -0.227972
     28          8           0       -0.916099    0.112655   -0.880766
 ---------------------------------------------------------------------

 SCF Done:  E(RHF) =  -868.337764001     A.U. after   16 cycles
 E2 =    -0.2600503855D+01 EUMP2 =    -0.87093826785584D+03

 The electronic state is 1-A.
 Alpha  occ. eigenvalues --  -20.61494 -20.61444 -20.59728 -20.59718 -15.86488
 Alpha  occ. eigenvalues --  -15.84772 -11.31828 -11.29908 -11.28391 -11.28374
 Alpha  occ. eigenvalues --  -11.28090 -11.27376 -11.27361 -11.26512 -11.26431
 Alpha  occ. eigenvalues --  -11.26251 -11.25527 -11.25398  -1.60537  -1.58804
 Alpha  occ. eigenvalues --   -1.40093  -1.38365  -1.19990  -1.18057  -1.09387
 Alpha  occ. eigenvalues --   -1.07518  -1.05380  -1.03449  -0.96229  -0.94401
 Alpha  occ. eigenvalues --   -0.86778  -0.84889  -0.83059  -0.81252  -0.78120
 Alpha  occ. eigenvalues --   -0.76310  -0.72713  -0.71888  -0.71081  -0.71008
 Alpha  occ. eigenvalues --   -0.70115  -0.69271  -0.65635  -0.65370  -0.63756
 Alpha  occ. eigenvalues --   -0.63510  -0.62726  -0.60841  -0.55866  -0.54059
 Alpha  occ. eigenvalues --   -0.53723  -0.53463  -0.51778  -0.51598  -0.49479
 Alpha  occ. eigenvalues --   -0.49419  -0.47767  -0.47743  -0.45502  -0.43824
 Alpha  occ. eigenvalues --   -0.37973  -0.36987  -0.35935  -0.34989
 Alpha virt. eigenvalues --    0.04374   0.06254   0.10667   0.12643   0.15896
 Alpha virt. eigenvalues --    0.17801   0.20856   0.22486   0.26766   0.27743
 Alpha virt. eigenvalues --    0.28443   0.29244   0.30465   0.31904   0.32010

 Mulliken charges:
               1
     1  C   -0.159226
     2  C   -0.207481
     3  C   -0.167844
     4  C    0.159029
     5  C   -0.170733
     6  C   -0.213646
     7  H    0.215678
     8  H    0.222943
     9  H    0.273138
    10  H    0.270564
    11  H    0.215195
    12  N    0.488247
    13  O   -0.464708
    14  O   -0.462660
    15  C   -0.170557
    16  C   -0.218384
    17  C   -0.172720
    18  C    0.156890
    19  C   -0.171662
    20  C   -0.218339
    21  H    0.227586
    22  H    0.224846
    23  H    0.274861
    24  H    0.275930
    25  H    0.225275
    26  N    0.486014
    27  O   -0.462602
    28  O   -0.455633
 Sum of Mulliken charges =  -0.00000

 Dipole moment (field-independent basis, Debye):
    X=             -9.5149    Y=              2.5888    Z=              3.3791  Tot=             10.4237
 Quadrupole moment (field-independent basis, Debye-Ang):
   XX=           -105.6755   YY=            -96.8278   ZZ=           -105.3542
   XY=              0.7849   XZ=              8.4815   YZ=             -3.2701

 Normal termination of Gaussian 16 at Fri May  7 03:21:26 2021.
