 Gaussian 16, Revision A.03,
 Gaussian 16:  EM64L-G16RevA.03 25-Dec-2016

 -------------
 #p 6-31g* mp2
 -------------

 ------------------------------------------------------
 Input file generated by CHIRIPA (05-May-2021 14:57:25)
 ------------------------------------------------------
 Symbolic Z-matrix:
 Charge =  0 Multiplicity = 1

                         Standard orientation:
 ---------------------------------------------------------------------
 Center     Atomic      Atomic             Coordinates (Angstroms)
 Number     Number       Type             X           Y           Z
 ---------------------------------------------------------------------
      1          6           0       -2.625185   -2.135588    0.663864
      2          6           0       -1.935493   -1.018763    0.180596
      3          6           0       -2.625960    0.145372   -0.169533
      4          6           0       -4.012206    0.158011   -0.023062
      5          6           0       -4.727749   -0.938435    0.455577
      6          6           0       -4.016659   -2.091937    0.799573
      7          1           0       -2.080803   -3.035786    0.933471
      8          1           0       -0.854867   -1.049810    0.074161
      9          1           0       -2.117070    1.024341   -0.546181
     10          1           0       -5.805082   -0.877418    0.550701
     11          1           0       -4.554908   -2.957772    1.174621
     12          7           0       -4.754089    1.384800   -0.390482
     13          8           0       -5.975279    1.370549   -0.252174
     14          8           0       -4.100339    2.337379   -0.809816
     15          6           0        4.628299    2.368191    0.610359
     16          6           0        3.265800    2.056864    0.553852
     17          6           0        2.845212    0.772469    0.196108
     18          6           0        3.818552   -0.180498   -0.100125
     19          6           0        5.183451    0.098970   -0.052800
     20          6           0        5.581096    1.389974    0.307387
     21          1           0        4.946111    3.368506    0.889211
     22          1           0        2.523622    2.814557    0.788624
     23          1           0        1.796946    0.504349    0.144445
     24          1           0        5.899857   -0.677441   -0.292314
     25          1           0        6.639916    1.628914    0.350440
     26          7           0        3.385438   -1.543728   -0.480145
     27          8           0        4.262737   -2.365476   -0.736499
     28          8           0        2.176866   -1.764668   -0.514456
 ---------------------------------------------------------------------

 SCF Done:  E(RHF) =  -868.339479037     A.U. after   16 cycles
 E2 =    -0.2598730333D+01 EUMP2 =    -0.87093820936996D+03

 The electronic state is 1-A.
 Alpha  occ. eigenvalues --  -20.61645 -20.61594 -20.60597 -20.60586 -15.86663
 Alpha  occ. eigenvalues --  -15.85642 -11.31824 -11.30881 -11.28426 -11.28324
 Alpha  occ. eigenvalues --  -11.28020 -11.27429 -11.27421 -11.27319 -11.27293
 Alpha  occ. eigenvalues --  -11.27039 -11.26398 -11.26280  -1.60678  -1.59672
 Alpha  occ. eigenvalues --   -1.40245  -1.39230  -1.19964  -1.19016  -1.09385
 Alpha  occ. eigenvalues --   -1.08412  -1.05340  -1.04400  -0.96263  -0.95282
 Alpha  occ. eigenvalues --   -0.86746  -0.85782  -0.83110  -0.82123  -0.78195
 Alpha  occ. eigenvalues --   -0.77203  -0.72895  -0.71982  -0.71863  -0.71070
 Alpha  occ. eigenvalues --   -0.70993  -0.70091  -0.65622  -0.65336  -0.64656
 Alpha  occ. eigenvalues --   -0.64355  -0.62708  -0.61742  -0.55824  -0.54837
 Alpha  occ. eigenvalues --   -0.53669  -0.53431  -0.52735  -0.52462  -0.49655
 Alpha  occ. eigenvalues --   -0.49601  -0.48629  -0.48602  -0.45692  -0.44665
 Alpha  occ. eigenvalues --   -0.37911  -0.36957  -0.36930  -0.36010
 Alpha virt. eigenvalues --    0.04346   0.05318   0.10728   0.11657   0.15897
 Alpha virt. eigenvalues --    0.16860   0.19462   0.21967   0.24923   0.27200
 Alpha virt. eigenvalues --    0.28738   0.28947   0.30122   0.31152   0.32546

 Mulliken charges:
               1
     1  C   -0.171952
     2  C   -0.228116
     3  C   -0.173492
     4  C    0.158678
     5  C   -0.172105
     6  C   -0.218530
     7  H    0.231382
     8  H    0.241855
     9  H    0.269311
    10  H    0.274230
    11  H    0.222861
    12  N    0.488273
    13  O   -0.460904
    14  O   -0.463438
    15  C   -0.169806
    16  C   -0.218744
    17  C   -0.169568
    18  C    0.158511
    19  C   -0.170286
    20  C   -0.218215
    21  H    0.228748
    22  H    0.226925
    23  H    0.268802
    24  H    0.276793
    25  H    0.225843
    26  N    0.492704
    27  O   -0.455261
    28  O   -0.474498
 Sum of Mulliken charges =  -0.00000

 Dipole moment (field-independent basis, Debye):
    X=              4.5381    Y=              0.4267    Z=              2.6765  Tot=              5.2858
 Quadrupole moment (field-independent basis, Debye-Ang):
   XX=           -105.2182   YY=           -107.1738   ZZ=           -106.4646
   XY=             37.4592   XZ=             -2.0954   YZ=             -0.8203

 Normal termination of Gaussian 16 at Thu May  6 09:51:15 2021.
