 Gaussian 16, Revision A.03,
 Gaussian 16:  EM64L-G16RevA.03 25-Dec-2016

 -------------
 #p 6-31g* mp2
 -------------

 ------------------------------------------------------
 Input file generated by CHIRIPA (05-May-2021 14:53:14)
 ------------------------------------------------------
 Symbolic Z-matrix:
 Charge =  0 Multiplicity = 1

                         Standard orientation:
 ---------------------------------------------------------------------
 Center     Atomic      Atomic             Coordinates (Angstroms)
 Number     Number       Type             X           Y           Z
 ---------------------------------------------------------------------
      1          6           0       -3.136997   -0.523064    0.368423
      2          6           0       -2.176607   -1.624589   -0.081333
      3          6           0       -0.867311   -1.626050    0.708310
      4          1           0       -2.642050    0.451979    0.262294
      5          1           0       -3.353161   -0.649057    1.438373
      6          1           0       -1.963407   -1.497373   -1.150434
      7          1           0       -2.673966   -2.597108    0.025699
      8          1           0       -1.061132   -1.776007    1.775337
      9          1           0       -0.346536   -0.670023    0.592522
     10          1           0       -0.195611   -2.421371    0.370457
     11          6           0       -4.450389   -0.508728   -0.411656
     12          6           0       -5.410779    0.592797    0.038099
     13          6           0       -6.720076    0.594258   -0.751543
     14          1           0       -4.234226   -0.382735   -1.481606
     15          1           0       -4.945336   -1.483771   -0.305527
     16          1           0       -4.913420    1.565316   -0.068932
     17          1           0       -5.623979    0.465581    1.107201
     18          1           0       -7.240850   -0.361769   -0.635755
     19          1           0       -6.526254    0.744215   -1.818570
     20          1           0       -7.391776    1.389579   -0.413690
     21          6           0        1.428403    2.283956    0.702874
     22          6           0        2.154183    2.372335   -0.489583
     23          6           0        3.007907    1.336196   -0.879608
     24          6           0        3.112261    0.221204   -0.049431
     25          6           0        2.402376    0.103669    1.144529
     26          6           0        1.554593    1.151902    1.514692
     27          1           0        0.767518    3.093551    0.998141
     28          1           0        2.058159    3.250310   -1.122025
     29          1           0        3.581453    1.378602   -1.797576
     30          1           0        2.518926   -0.784115    1.754179
     31          1           0        0.992166    1.080539    2.441315
     32          7           0        4.012916   -0.882111   -0.451820
     33          8           0        4.087268   -1.853804    0.297127
     34          8           0        4.627443   -0.754306   -1.508541
 ---------------------------------------------------------------------

 SCF Done:  E(RHF) =  -669.534464405     A.U. after   15 cycles
 E2 =    -0.2092650777D+01 EUMP2 =    -0.67162711518238D+03

 The electronic state is 1-A.
 Alpha  occ. eigenvalues --  -20.60785 -20.60780 -15.85839 -11.31215 -11.27790
 Alpha  occ. eigenvalues --  -11.27769 -11.27544 -11.26815 -11.26775 -11.21925
 Alpha  occ. eigenvalues --  -11.21795 -11.21718 -11.21647 -11.21342 -11.21154
 Alpha  occ. eigenvalues --   -1.59860  -1.39413  -1.19408  -1.08797  -1.08711
 Alpha  occ. eigenvalues --   -1.04820  -1.03775  -0.96236  -0.95622  -0.87261
 Alpha  occ. eigenvalues --   -0.86200  -0.82457  -0.79858  -0.78542  -0.77491
 Alpha  occ. eigenvalues --   -0.72057  -0.71183  -0.70502  -0.65348  -0.65052
 Alpha  occ. eigenvalues --   -0.64803  -0.62148  -0.61191  -0.59593  -0.57859
 Alpha  occ. eigenvalues --   -0.55608  -0.55305  -0.53363  -0.52942  -0.52827
 Alpha  occ. eigenvalues --   -0.52493  -0.50137  -0.48817  -0.48810  -0.48161
 Alpha  occ. eigenvalues --   -0.46880  -0.46079  -0.46005  -0.44814  -0.44042
 Alpha  occ. eigenvalues --   -0.37394  -0.36286
 Alpha virt. eigenvalues --    0.05031   0.11174   0.16486   0.21223   0.22616
 Alpha virt. eigenvalues --    0.24114   0.26320   0.26693   0.27238   0.28159
 Alpha virt. eigenvalues --    0.28522   0.30767   0.31319   0.31634   0.31790

 Mulliken charges:
               1
     1  C   -0.297670
     2  C   -0.298671
     3  C   -0.487148
     4  H    0.145105
     5  H    0.147961
     6  H    0.153446
     7  H    0.153184
     8  H    0.149050
     9  H    0.162991
    10  H    0.165590
    11  C   -0.298354
    12  C   -0.299373
    13  C   -0.475789
    14  H    0.150298
    15  H    0.151275
    16  H    0.149460
    17  H    0.151615
    18  H    0.156316
    19  H    0.155615
    20  H    0.160231
    21  C   -0.171557
    22  C   -0.218595
    23  C   -0.171264
    24  C    0.159260
    25  C   -0.167067
    26  C   -0.221365
    27  H    0.225977
    28  H    0.223543
    29  H    0.275723
    30  H    0.277044
    31  H    0.225699
    32  N    0.488118
    33  O   -0.460210
    34  O   -0.460438
 Sum of Mulliken charges =  -0.00000

 Dipole moment (field-independent basis, Debye):
    X=             -3.1270    Y=              3.8769    Z=              1.3910  Tot=              5.1714
 Quadrupole moment (field-independent basis, Debye-Ang):
   XX=           -115.7700   YY=            -91.8674   ZZ=            -91.5043
   XY=             12.6098   XZ=              2.8225   YZ=             -2.5785

 Normal termination of Gaussian 16 at Thu May  6 08:59:28 2021.
