 Gaussian 16, Revision A.03,
 Gaussian 16:  EM64L-G16RevA.03 25-Dec-2016

 -------------
 #p 6-31g* mp2
 -------------

 ------------------------------------------------------
 Input file generated by CHIRIPA (05-May-2021 14:55:19)
 ------------------------------------------------------
 Symbolic Z-matrix:
 Charge =  0 Multiplicity = 1

                         Standard orientation:
 ---------------------------------------------------------------------
 Center     Atomic      Atomic             Coordinates (Angstroms)
 Number     Number       Type             X           Y           Z
 ---------------------------------------------------------------------
      1          6           0       -1.855122   -2.373794    1.294828
      2          6           0       -0.804545   -1.851397    0.533310
      3          6           0       -1.007221   -0.736675   -0.285754
      4          6           0       -2.278978   -0.166769   -0.319383
      5          6           0       -3.345777   -0.664083    0.427550
      6          6           0       -3.120155   -1.779518    1.239615
      7          1           0       -1.688766   -3.240014    1.928378
      8          1           0        0.178948   -2.310868    0.574212
      9          1           0       -0.211619   -0.311815   -0.885695
     10          1           0       -4.315087   -0.184438    0.365940
     11          1           0       -3.937905   -2.183075    1.829929
     12          7           0       -2.505687    1.013714   -1.182784
     13          8           0       -3.635465    1.497548   -1.194819
     14          8           0       -1.549312    1.432791   -1.831134
     15          6           0        2.895020   -0.117569   -0.269610
     16          6           0        4.280804   -0.752739   -0.388547
     17          6           0        4.316301   -1.911761   -1.385141
     18          1           0        2.171159   -0.886257    0.033851
     19          1           0        2.576415    0.238556   -1.259085
     20          1           0        4.597290   -1.106319    0.601116
     21          1           0        5.001485    0.017591   -0.691574
     22          1           0        4.025753   -1.570102   -2.383866
     23          1           0        3.619261   -2.700398   -1.083830
     24          1           0        5.316303   -2.351135   -1.454471
     25          6           0        2.843510    1.042566    0.722944
     26          6           0        1.457725    1.677735    0.841881
     27          6           0        1.422229    2.836758    1.838475
     28          1           0        3.162115    0.686440    1.712419
     29          1           0        3.567371    1.811253    0.419482
     30          1           0        0.737045    0.907406    1.144909
     31          1           0        1.141240    2.031316   -0.147782
     32          1           0        2.119269    3.625395    1.537164
     33          1           0        1.712777    2.495099    2.837201
     34          1           0        0.422227    3.276132    1.907805
 ---------------------------------------------------------------------

 SCF Done:  E(RHF) =  -669.534192983     A.U. after   15 cycles
 E2 =    -0.2094754278D+01 EUMP2 =    -0.67162894726158D+03

 The electronic state is 1-A.
 Alpha  occ. eigenvalues --  -20.60788 -20.60780 -15.85827 -11.31131 -11.27750
 Alpha  occ. eigenvalues --  -11.27659 -11.27495 -11.26732 -11.26709 -11.22089
 Alpha  occ. eigenvalues --  -11.22006 -11.21635 -11.21554 -11.21485 -11.20972
 Alpha  occ. eigenvalues --   -1.59851  -1.39406  -1.19340  -1.08800  -1.08737
 Alpha  occ. eigenvalues --   -1.04746  -1.03765  -0.96255  -0.95580  -0.87266
 Alpha  occ. eigenvalues --   -0.86138  -0.82427  -0.79882  -0.78732  -0.77379
 Alpha  occ. eigenvalues --   -0.72048  -0.71167  -0.70447  -0.65481  -0.64964
 Alpha  occ. eigenvalues --   -0.64737  -0.62091  -0.61162  -0.59627  -0.57858
 Alpha  occ. eigenvalues --   -0.55561  -0.55249  -0.53159  -0.52932  -0.52795
 Alpha  occ. eigenvalues --   -0.52626  -0.50193  -0.48820  -0.48805  -0.48177
 Alpha  occ. eigenvalues --   -0.46915  -0.46120  -0.46006  -0.44783  -0.44059
 Alpha  occ. eigenvalues --   -0.37325  -0.36242
 Alpha virt. eigenvalues --    0.05042   0.11292   0.16425   0.20058   0.22917
 Alpha virt. eigenvalues --    0.23943   0.25152   0.25377   0.27509   0.28332
 Alpha virt. eigenvalues --    0.30305   0.30525   0.31457   0.31733   0.32152

 Mulliken charges:
               1
     1  C   -0.169931
     2  C   -0.225101
     3  C   -0.172080
     4  C    0.157040
     5  C   -0.170232
     6  C   -0.219470
     7  H    0.225585
     8  H    0.225739
     9  H    0.285482
    10  H    0.275428
    11  H    0.223234
    12  N    0.488779
    13  O   -0.460274
    14  O   -0.461362
    15  C   -0.307601
    16  C   -0.299214
    17  C   -0.475725
    18  H    0.138601
    19  H    0.155735
    20  H    0.151887
    21  H    0.156419
    22  H    0.158448
    23  H    0.149106
    24  H    0.162801
    25  C   -0.295764
    26  C   -0.315621
    27  C   -0.474811
    28  H    0.147937
    29  H    0.153078
    30  H    0.152119
    31  H    0.167433
    32  H    0.156344
    33  H    0.152050
    34  H    0.163941
 Sum of Mulliken charges =  -0.00000

 Dipole moment (field-independent basis, Debye):
    X=              0.8567    Y=             -4.0120    Z=              2.9555  Tot=              5.0562
 Quadrupole moment (field-independent basis, Debye-Ang):
   XX=            -93.4352   YY=            -94.2295   ZZ=            -96.9561
   XY=              9.7817   XZ=             -9.2030   YZ=             -0.3403

 Normal termination of Gaussian 16 at Wed May  5 17:20:47 2021.
