 Gaussian 16, Revision A.03,
 Gaussian 16:  EM64L-G16RevA.03 25-Dec-2016

 -------------
 #p 6-31g* mp2
 -------------

 ------------------------------------------------------
 Input file generated by CHIRIPA (05-May-2021 14:55:20)
 ------------------------------------------------------
 Symbolic Z-matrix:
 Charge =  0 Multiplicity = 1

                         Standard orientation:
 ---------------------------------------------------------------------
 Center     Atomic      Atomic             Coordinates (Angstroms)
 Number     Number       Type             X           Y           Z
 ---------------------------------------------------------------------
      1          6           0        5.348615   -1.573325   -0.112713
      2          6           0        4.738729   -1.105708   -1.281428
      3          6           0        3.627260   -0.260427   -1.212972
      4          6           0        3.149786    0.098828    0.046490
      5          6           0        3.735570   -0.350497    1.228968
      6          6           0        4.845975   -1.194894    1.136552
      7          1           0        6.211618   -2.229616   -0.175198
      8          1           0        5.126929   -1.397957   -2.252992
      9          1           0        3.135816    0.116211   -2.101817
     10          1           0        3.325867   -0.041836    2.183059
     11          1           0        5.317599   -1.556519    2.045862
     12          7           0        1.973687    0.993221    0.131644
     13          8           0        1.572218    1.295092    1.253399
     14          8           0        1.475599    1.375441   -0.924980
     15          6           0       -4.726816   -0.462252   -0.371105
     16          6           0       -5.802546   -1.016071    0.563814
     17          6           0       -6.688756   -2.064171   -0.109916
     18          1           0       -5.209053   -0.023176   -1.255189
     19          1           0       -4.104129   -1.291586   -0.734229
     20          1           0       -6.422160   -0.185768    0.926154
     21          1           0       -5.317702   -1.453709    1.445866
     22          1           0       -6.088067   -2.911378   -0.456346
     23          1           0       -7.198801   -1.636234   -0.979011
     24          1           0       -7.450762   -2.446649    0.576320
     25          6           0       -3.832855    0.586613    0.288019
     26          6           0       -2.757125    1.140433   -0.646900
     27          6           0       -1.870915    2.188533    0.026830
     28          1           0       -4.455543    1.415948    0.651143
     29          1           0       -3.350619    0.147538    1.172104
     30          1           0       -3.241969    1.578070   -1.528952
     31          1           0       -2.137511    0.310130   -1.009241
     32          1           0       -1.360870    1.760595    0.895924
     33          1           0       -2.471605    3.035740    0.373261
     34          1           0       -1.108910    2.571011   -0.659406
 ---------------------------------------------------------------------

 SCF Done:  E(RHF) =  -669.536155056     A.U. after   15 cycles
 E2 =    -0.2091789323D+01 EUMP2 =    -0.67162794437915D+03

 The electronic state is 1-A.
 Alpha  occ. eigenvalues --  -20.61028 -20.61022 -15.86041 -11.31348 -11.27904
 Alpha  occ. eigenvalues --  -11.27901 -11.27637 -11.26905 -11.26895 -11.20937
 Alpha  occ. eigenvalues --  -11.20551 -11.20533 -11.20239 -11.20071 -11.18810
 Alpha  occ. eigenvalues --   -1.60069  -1.39628  -1.19510  -1.08917  -1.07396
 Alpha  occ. eigenvalues --   -1.04902  -1.02347  -0.95767  -0.94753  -0.86303
 Alpha  occ. eigenvalues --   -0.85772  -0.82596  -0.78483  -0.77652  -0.77132
 Alpha  occ. eigenvalues --   -0.72261  -0.71382  -0.70617  -0.65165  -0.64905
 Alpha  occ. eigenvalues --   -0.64046  -0.62249  -0.59762  -0.58254  -0.56344
 Alpha  occ. eigenvalues --   -0.55410  -0.54077  -0.53233  -0.52994  -0.51453
 Alpha  occ. eigenvalues --   -0.51200  -0.49197  -0.48983  -0.48472  -0.46741
 Alpha  occ. eigenvalues --   -0.45549  -0.45048  -0.44662  -0.44540  -0.42555
 Alpha  occ. eigenvalues --   -0.37487  -0.36502
 Alpha virt. eigenvalues --    0.04864   0.11154   0.16366   0.21291   0.23787
 Alpha virt. eigenvalues --    0.25612   0.27213   0.27606   0.28174   0.28440
 Alpha virt. eigenvalues --    0.29413   0.30882   0.32352   0.32541   0.32674

 Mulliken charges:
               1
     1  C   -0.170496
     2  C   -0.218563
     3  C   -0.170776
     4  C    0.158513
     5  C   -0.170727
     6  C   -0.218579
     7  H    0.226189
     8  H    0.224026
     9  H    0.275913
    10  H    0.275902
    11  H    0.224006
    12  N    0.488976
    13  O   -0.458511
    14  O   -0.458492
    15  C   -0.296916
    16  C   -0.298695
    17  C   -0.474987
    18  H    0.147806
    19  H    0.146934
    20  H    0.151109
    21  H    0.150647
    22  H    0.153583
    23  H    0.154294
    24  H    0.158007
    25  C   -0.297116
    26  C   -0.299268
    27  C   -0.479782
    28  H    0.146990
    29  H    0.148373
    30  H    0.145217
    31  H    0.149752
    32  H    0.166748
    33  H    0.141259
    34  H    0.178665
 Sum of Mulliken charges =  -0.00000

 Dipole moment (field-independent basis, Debye):
    X=              4.6207    Y=             -3.1023    Z=             -0.2886  Tot=              5.5730
 Quadrupole moment (field-independent basis, Debye-Ang):
   XX=            -70.8673   YY=            -96.4103   ZZ=            -89.8367
   XY=            -10.8787   XZ=             -0.6160   YZ=             -0.9230

 Normal termination of Gaussian 16 at Thu May  6 20:39:44 2021.
