 Gaussian 16, Revision A.03,
 Gaussian 16:  EM64L-G16RevA.03 25-Dec-2016

 -------------
 #p 6-31g* mp2
 -------------

 ------------------------------------------------------
 Input file generated by CHIRIPA (05-May-2021 14:53:17)
 ------------------------------------------------------
 Symbolic Z-matrix:
 Charge =  0 Multiplicity = 1

                         Standard orientation:
 ---------------------------------------------------------------------
 Center     Atomic      Atomic             Coordinates (Angstroms)
 Number     Number       Type             X           Y           Z
 ---------------------------------------------------------------------
      1          6           0       -3.758444   -0.641565   -0.039295
      2          6           0       -3.334166   -1.611489    1.063983
      3          6           0       -1.887472   -2.082647    0.912716
      4          1           0       -3.630001   -1.128162   -1.015856
      5          1           0       -3.086158    0.227559   -0.032303
      6          1           0       -4.007905   -2.477875    1.055809
      7          1           0       -3.463815   -1.122594    2.038040
      8          1           0       -1.199885   -1.231226    0.942827
      9          1           0       -1.747066   -2.594208   -0.044985
     10          1           0       -1.605148   -2.775147    1.711838
     11          6           0       -5.202215   -0.161632    0.098244
     12          6           0       -5.626494    0.808292   -1.005034
     13          6           0       -7.073187    1.279450   -0.853767
     14          1           0       -5.874502   -1.030756    0.091252
     15          1           0       -5.330659    0.324965    1.074805
     16          1           0       -5.496844    0.319397   -1.979092
     17          1           0       -4.952755    1.674678   -0.996860
     18          1           0       -7.213594    1.791011    0.103934
     19          1           0       -7.760775    0.428029   -0.883878
     20          1           0       -7.355512    1.971950   -1.652889
     21          6           0        1.928506    2.083564    0.850629
     22          6           0        3.255027    2.411327    0.551572
     23          6           0        4.134734    1.438812    0.066931
     24          6           0        3.652208    0.142650   -0.107489
     25          6           0        2.336176   -0.214972    0.181396
     26          6           0        1.474115    0.773770    0.664914
     27          1           0        1.251983    2.845339    1.226673
     28          1           0        3.610670    3.427715    0.694819
     29          1           0        5.166635    1.665146   -0.172596
     30          1           0        2.010701   -1.236751    0.028256
     31          1           0        0.444441    0.516352    0.896326
     32          7           0        4.574175   -0.895497   -0.619962
     33          8           0        4.124546   -2.030163   -0.764893
     34          8           0        5.728984   -0.554874   -0.867004
 ---------------------------------------------------------------------

 SCF Done:  E(RHF) =  -669.535439114     A.U. after   15 cycles
 E2 =    -0.2090910725D+01 EUMP2 =    -0.67162634983925D+03

 The electronic state is 1-A.
 Alpha  occ. eigenvalues --  -20.60720 -20.60715 -15.85774 -11.31137 -11.27713
 Alpha  occ. eigenvalues --  -11.27693 -11.27462 -11.26732 -11.26708 -11.22312
 Alpha  occ. eigenvalues --  -11.22069 -11.22051 -11.21977 -11.21904 -11.21462
 Alpha  occ. eigenvalues --   -1.59796  -1.39349  -1.19313  -1.09037  -1.08711
 Alpha  occ. eigenvalues --   -1.04717  -1.04142  -0.96603  -0.95544  -0.87622
 Alpha  occ. eigenvalues --   -0.86118  -0.82379  -0.80207  -0.78834  -0.77422
 Alpha  occ. eigenvalues --   -0.71992  -0.71119  -0.70424  -0.65682  -0.64967
 Alpha  occ. eigenvalues --   -0.64738  -0.62123  -0.61502  -0.59961  -0.58197
 Alpha  occ. eigenvalues --   -0.55920  -0.55220  -0.53282  -0.53084  -0.53046
 Alpha  occ. eigenvalues --   -0.52762  -0.50541  -0.48756  -0.48746  -0.48512
 Alpha  occ. eigenvalues --   -0.47234  -0.46378  -0.46295  -0.44755  -0.44384
 Alpha  occ. eigenvalues --   -0.37300  -0.36318
 Alpha virt. eigenvalues --    0.05114   0.11332   0.16603   0.19395   0.22504
 Alpha virt. eigenvalues --    0.23648   0.25165   0.26305   0.27051   0.28289
 Alpha virt. eigenvalues --    0.28840   0.29809   0.31178   0.31486   0.32111

 Mulliken charges:
               1
     1  C   -0.297756
     2  C   -0.300125
     3  C   -0.480446
     4  H    0.152660
     5  H    0.143418
     6  H    0.156424
     7  H    0.152042
     8  H    0.144347
     9  H    0.160914
    10  H    0.165794
    11  C   -0.298729
    12  C   -0.299840
    13  C   -0.476016
    14  H    0.151758
    15  H    0.149458
    16  H    0.153515
    17  H    0.150503
    18  H    0.155105
    19  H    0.156436
    20  H    0.161448
    21  C   -0.171670
    22  C   -0.218557
    23  C   -0.171042
    24  C    0.158542
    25  C   -0.173247
    26  C   -0.224445
    27  H    0.225708
    28  H    0.223161
    29  H    0.275452
    30  H    0.276716
    31  H    0.231348
    32  N    0.488125
    33  O   -0.460225
    34  O   -0.460773
 Sum of Mulliken charges =  -0.00000

 Dipole moment (field-independent basis, Debye):
    X=             -3.4417    Y=              3.5692    Z=              1.7864  Tot=              5.2703
 Quadrupole moment (field-independent basis, Debye-Ang):
   XX=           -116.3355   YY=            -91.0272   ZZ=            -95.6709
   XY=             16.8210   XZ=              6.9836   YZ=              0.1518

 Normal termination of Gaussian 16 at Thu May  6 20:32:04 2021.
