 Gaussian 16, Revision A.03,
 Gaussian 16:  EM64L-G16RevA.03 25-Dec-2016

 -------------
 #p 6-31g* mp2
 -------------

 ------------------------------------------------------
 Input file generated by CHIRIPA (05-May-2021 14:57:27)
 ------------------------------------------------------
 Symbolic Z-matrix:
 Charge =  0 Multiplicity = 1

                         Standard orientation:
 ---------------------------------------------------------------------
 Center     Atomic      Atomic             Coordinates (Angstroms)
 Number     Number       Type             X           Y           Z
 ---------------------------------------------------------------------
      1          6           0       -4.929415    0.680285   -1.592050
      2          6           0       -5.057781   -0.564675   -0.967456
      3          6           0       -4.121757   -0.981790   -0.016446
      4          6           0       -3.065014   -0.124870    0.287318
      5          6           0       -2.909813    1.121388   -0.317698
      6          6           0       -3.857730    1.517866   -1.265753
      7          1           0       -5.661160    0.996294   -2.329670
      8          1           0       -5.889048   -1.217225   -1.218890
      9          1           0       -4.197041   -1.940414    0.482343
     10          1           0       -2.070442    1.750035   -0.046265
     11          1           0       -3.755513    2.485262   -1.749222
     12          7           0       -2.067792   -0.555528    1.292545
     13          8           0       -1.145853    0.217864    1.542608
     14          8           0       -2.226990   -1.658315    1.811346
     15          6           0        2.864208    2.373188    0.802181
     16          6           0        2.289604    1.267853    1.438253
     17          6           0        2.485236   -0.021810    0.935218
     18          6           0        3.264670   -0.170328   -0.210956
     19          6           0        3.850458    0.911087   -0.867222
     20          6           0        3.641431    2.191596   -0.346500
     21          1           0        2.707034    3.371473    1.199820
     22          1           0        1.685534    1.405882    2.330494
     23          1           0        2.052129   -0.895045    1.407763
     24          1           0        4.447687    0.741912   -1.754980
     25          1           0        4.088905    3.048177   -0.842566
     26          7           0        3.478868   -1.530792   -0.752858
     27          8           0        4.169720   -1.634974   -1.764049
     28          8           0        2.951848   -2.467182   -0.156150
 ---------------------------------------------------------------------

 SCF Done:  E(RHF) =  -868.339557825     A.U. after   16 cycles
 E2 =    -0.2599184980D+01 EUMP2 =    -0.87093874280507D+03

 The electronic state is 1-A.
 Alpha  occ. eigenvalues --  -20.61311 -20.61261 -20.60017 -20.59991 -15.86318
 Alpha  occ. eigenvalues --  -15.85050 -11.31493 -11.30268 -11.28066 -11.28018
 Alpha  occ. eigenvalues --  -11.27755 -11.27033 -11.26997 -11.26905 -11.26654
 Alpha  occ. eigenvalues --  -11.26589 -11.25947 -11.25650  -1.60346  -1.59087
 Alpha  occ. eigenvalues --   -1.39908  -1.38641  -1.19649  -1.18435  -1.09081
 Alpha  occ. eigenvalues --   -1.07882  -1.05027  -1.03776  -0.95950  -0.94730
 Alpha  occ. eigenvalues --   -0.86435  -0.85207  -0.82798  -0.81534  -0.77860
 Alpha  occ. eigenvalues --   -0.76588  -0.72565  -0.71643  -0.71272  -0.70761
 Alpha  occ. eigenvalues --   -0.70411  -0.69569  -0.65312  -0.65034  -0.64077
 Alpha  occ. eigenvalues --   -0.63772  -0.62380  -0.61098  -0.55538  -0.54364
 Alpha  occ. eigenvalues --   -0.53361  -0.53121  -0.52171  -0.51851  -0.49332
 Alpha  occ. eigenvalues --   -0.49279  -0.48037  -0.48016  -0.45352  -0.44077
 Alpha  occ. eigenvalues --   -0.37617  -0.36619  -0.36478  -0.35342
 Alpha virt. eigenvalues --    0.04649   0.05912   0.11039   0.12256   0.16180
 Alpha virt. eigenvalues --    0.17416   0.21164   0.22376   0.27088   0.27927
 Alpha virt. eigenvalues --    0.28494   0.29212   0.30754   0.31841   0.32289

 Mulliken charges:
               1
     1  C   -0.169941
     2  C   -0.218395
     3  C   -0.169628
     4  C    0.158579
     5  C   -0.170023
     6  C   -0.218325
     7  H    0.226806
     8  H    0.225133
     9  H    0.277290
    10  H    0.273087
    11  H    0.223384
    12  N    0.491801
    13  O   -0.472942
    14  O   -0.455198
    15  C   -0.175421
    16  C   -0.213841
    17  C   -0.167522
    18  C    0.155232
    19  C   -0.173868
    20  C   -0.219927
    21  H    0.220961
    22  H    0.234375
    23  H    0.284638
    24  H    0.271493
    25  H    0.218227
    26  N    0.487728
    27  O   -0.465266
    28  O   -0.458437
 Sum of Mulliken charges =  -0.00000

 Dipole moment (field-independent basis, Debye):
    X=             -4.7035    Y=              6.1306    Z=             -1.4530  Tot=              7.8625
 Quadrupole moment (field-independent basis, Debye-Ang):
   XX=            -87.0415   YY=           -103.4450   ZZ=           -105.8543
   XY=             15.1351   XZ=             14.5340   YZ=             -2.8195

 Normal termination of Gaussian 16 at Fri May  7 02:03:56 2021.
