 Gaussian 16, Revision A.03,
 Gaussian 16:  EM64L-G16RevA.03 25-Dec-2016

 -------------
 #p 6-31g* mp2
 -------------

 ------------------------------------------------------
 Input file generated by CHIRIPA (05-May-2021 14:53:13)
 ------------------------------------------------------
 Symbolic Z-matrix:
 Charge =  0 Multiplicity = 1

                         Standard orientation:
 ---------------------------------------------------------------------
 Center     Atomic      Atomic             Coordinates (Angstroms)
 Number     Number       Type             X           Y           Z
 ---------------------------------------------------------------------
      1          6           0        5.298845   -0.156406    0.138026
      2          6           0        6.081670    0.555973   -0.965462
      3          6           0        7.496952    0.939982   -0.532672
      4          1           0        5.249707    0.493793    1.022205
      5          1           0        5.847307   -1.058274    0.443341
      6          1           0        5.531208    1.455487   -1.269570
      7          1           0        6.128785   -0.095920   -1.847184
      8          1           0        8.067695    0.050004   -0.248432
      9          1           0        7.466723    1.610226    0.332464
     10          1           0        8.038683    1.447971   -1.336621
     11          6           0        3.882121   -0.546653   -0.279500
     12          6           0        3.099295   -1.259032    0.823989
     13          6           0        1.684013   -1.643041    0.391198
     14          1           0        3.333658    0.355215   -0.584815
     15          1           0        3.931258   -1.196852   -1.163679
     16          1           0        3.052180   -0.607139    1.705710
     17          1           0        3.649757   -2.158546    1.128096
     18          1           0        1.714242   -2.313285   -0.473938
     19          1           0        1.113270   -0.753063    0.106958
     20          1           0        1.142282   -2.151030    1.195147
     21          6           0       -1.558538    1.413889    1.033090
     22          6           0       -1.651167    0.018253    1.045015
     23          6           0       -2.770070   -0.623690    0.506022
     24          6           0       -3.782352    0.164493   -0.039270
     25          6           0       -3.719295    1.556828   -0.066015
     26          6           0       -2.591079    2.177376    0.478590
     27          1           0       -0.685730    1.904255    1.453972
     28          1           0       -0.850805   -0.577226    1.474983
     29          1           0       -2.867572   -1.702530    0.502138
     30          1           0       -4.533180    2.123630   -0.501615
     31          1           0       -2.521846    3.261415    0.467955
     32          7           0       -4.971815   -0.503777   -0.612848
     33          8           0       -5.850092    0.213241   -1.087351
     34          8           0       -5.003317   -1.731932   -0.577055
 ---------------------------------------------------------------------

 SCF Done:  E(RHF) =  -669.534860321     A.U. after   15 cycles
 E2 =    -0.2091577646D+01 EUMP2 =    -0.67162643796720D+03

 The electronic state is 1-A.
 Alpha  occ. eigenvalues --  -20.60723 -20.60718 -15.85775 -11.31139 -11.27701
 Alpha  occ. eigenvalues --  -11.27675 -11.27442 -11.26730 -11.26622 -11.22438
 Alpha  occ. eigenvalues --  -11.22081 -11.22072 -11.22064 -11.21935 -11.21477
 Alpha  occ. eigenvalues --   -1.59798  -1.39352  -1.19304  -1.09085  -1.08704
 Alpha  occ. eigenvalues --   -1.04706  -1.04207  -0.96678  -0.95539  -0.87715
 Alpha  occ. eigenvalues --   -0.86095  -0.82369  -0.80282  -0.78864  -0.77412
 Alpha  occ. eigenvalues --   -0.71994  -0.71121  -0.70419  -0.65740  -0.64953
 Alpha  occ. eigenvalues --   -0.64731  -0.62144  -0.61531  -0.60054  -0.58263
 Alpha  occ. eigenvalues --   -0.55983  -0.55203  -0.53489  -0.53163  -0.52956
 Alpha  occ. eigenvalues --   -0.52682  -0.50556  -0.48749  -0.48749  -0.48583
 Alpha  occ. eigenvalues --   -0.47287  -0.46410  -0.46321  -0.44758  -0.44456
 Alpha  occ. eigenvalues --   -0.37285  -0.36282
 Alpha virt. eigenvalues --    0.05108   0.11243   0.16593   0.20595   0.22502
 Alpha virt. eigenvalues --    0.23819   0.25974   0.26222   0.26879   0.27959
 Alpha virt. eigenvalues --    0.29013   0.29759   0.30923   0.31441   0.32323

 Mulliken charges:
               1
     1  C   -0.298668
     2  C   -0.300031
     3  C   -0.476003
     4  H    0.148811
     5  H    0.151191
     6  H    0.151612
     7  H    0.153455
     8  H    0.156141
     9  H    0.154997
    10  H    0.161688
    11  C   -0.298805
    12  C   -0.299722
    13  C   -0.484187
    14  H    0.148391
    15  H    0.152687
    16  H    0.148855
    17  H    0.155858
    18  H    0.162873
    19  H    0.156049
    20  H    0.154940
    21  C   -0.174504
    22  C   -0.220251
    23  C   -0.173884
    24  C    0.158772
    25  C   -0.171365
    26  C   -0.218056
    27  H    0.225083
    28  H    0.232988
    29  H    0.275669
    30  H    0.275347
    31  H    0.223017
    32  N    0.488079
    33  O   -0.460658
    34  O   -0.460369
 Sum of Mulliken charges =  -0.00000

 Dipole moment (field-independent basis, Debye):
    X=              4.3789    Y=              2.3076    Z=              1.9604  Tot=              5.3238
 Quadrupole moment (field-independent basis, Debye-Ang):
   XX=           -126.7220   YY=            -89.3375   ZZ=            -95.4215
   XY=            -11.0444   XZ=             -7.7762   YZ=             -0.6247

 Normal termination of Gaussian 16 at Thu May  6 18:43:34 2021.
