 Gaussian 16, Revision A.03,
 Gaussian 16:  EM64L-G16RevA.03 25-Dec-2016

 -------------
 #p 6-31g* mp2
 -------------

 ------------------------------------------------------
 Input file generated by CHIRIPA (05-May-2021 14:57:23)
 ------------------------------------------------------
 Symbolic Z-matrix:
 Charge =  0 Multiplicity = 1

                         Standard orientation:
 ---------------------------------------------------------------------
 Center     Atomic      Atomic             Coordinates (Angstroms)
 Number     Number       Type             X           Y           Z
 ---------------------------------------------------------------------
      1          6           0       -2.063373    2.468234   -0.563113
      2          6           0       -3.194275    1.968946   -1.217554
      3          6           0       -3.667080    0.683459   -0.937327
      4          6           0       -2.981550   -0.078919    0.007193
      5          6           0       -1.852031    0.390394    0.675938
      6          6           0       -1.397035    1.678757    0.379882
      7          1           0       -1.703004    3.467948   -0.786948
      8          1           0       -3.713763    2.579827   -1.950358
      9          1           0       -4.540138    0.272098   -1.429230
     10          1           0       -1.355269   -0.242144    1.401570
     11          1           0       -0.518505    2.063908    0.889675
     12          7           0       -3.472661   -1.441329    0.312236
     13          8           0       -2.850903   -2.093075    1.148466
     14          8           0       -4.470051   -1.831641   -0.290678
     15          6           0        2.691383    2.235109    0.851949
     16          6           0        3.446187    1.947584   -0.290033
     17          6           0        3.569020    0.632153   -0.747307
     18          6           0        2.920837   -0.375783   -0.035117
     19          6           0        2.161700   -0.121205    1.106020
     20          6           0        2.052674    1.201619    1.545108
     21          1           0        2.601327    3.259839    1.200106
     22          1           0        3.943310    2.748195   -0.830346
     23          1           0        4.147092    0.381421   -1.628433
     24          1           0        1.677664   -0.940497    1.623601
     25          1           0        1.465827    1.421964    2.432296
     26          7           0        3.043565   -1.772284   -0.509586
     27          8           0        2.462788   -2.642375    0.135609
     28          8           0        3.718214   -1.970328   -1.517685
 ---------------------------------------------------------------------

 SCF Done:  E(RHF) =  -868.335388424     A.U. after   16 cycles
 E2 =    -0.2602462663D+01 EUMP2 =    -0.87093785108725D+03

 The electronic state is 1-A.
 Alpha  occ. eigenvalues --  -20.61126 -20.61101 -20.60782 -20.60773 -15.86181
 Alpha  occ. eigenvalues --  -15.85837 -11.31857 -11.31336 -11.28494 -11.28440
 Alpha  occ. eigenvalues --  -11.28320 -11.27949 -11.27876 -11.27676 -11.27625
 Alpha  occ. eigenvalues --  -11.27517 -11.26942 -11.26917  -1.60187  -1.59850
 Alpha  occ. eigenvalues --   -1.39730  -1.39402  -1.20082  -1.19508  -1.09432
 Alpha  occ. eigenvalues --   -1.08882  -1.05552  -1.04927  -0.96199  -0.95701
 Alpha  occ. eigenvalues --   -0.86945  -0.86319  -0.83042  -0.82530  -0.78032
 Alpha  occ. eigenvalues --   -0.77548  -0.72393  -0.72054  -0.71515  -0.71189
 Alpha  occ. eigenvalues --   -0.71171  -0.70642  -0.65744  -0.65641  -0.65163
 Alpha  occ. eigenvalues --   -0.64899  -0.62933  -0.62247  -0.56039  -0.55465
 Alpha  occ. eigenvalues --   -0.53948  -0.53655  -0.53218  -0.52898  -0.49179
 Alpha  occ. eigenvalues --   -0.49128  -0.48822  -0.48804  -0.45067  -0.44778
 Alpha  occ. eigenvalues --   -0.38090  -0.37493  -0.37244  -0.36387
 Alpha virt. eigenvalues --    0.04461   0.05022   0.10261   0.11187   0.15844
 Alpha virt. eigenvalues --    0.16466   0.19327   0.22047   0.25125   0.26423
 Alpha virt. eigenvalues --    0.28241   0.29590   0.29833   0.30874   0.31903

 Mulliken charges:
               1
     1  C   -0.172900
     2  C   -0.217795
     3  C   -0.170767
     4  C    0.160132
     5  C   -0.172994
     6  C   -0.214503
     7  H    0.222802
     8  H    0.223619
     9  H    0.276721
    10  H    0.269548
    11  H    0.219376
    12  N    0.488329
    13  O   -0.458841
    14  O   -0.459341
    15  C   -0.173804
    16  C   -0.217591
    17  C   -0.168844
    18  C    0.160555
    19  C   -0.170760
    20  C   -0.229648
    21  H    0.225184
    22  H    0.225420
    23  H    0.278703
    24  H    0.280753
    25  H    0.222227
    26  N    0.487641
    27  O   -0.454361
    28  O   -0.458863
 Sum of Mulliken charges =  -0.00000

 Dipole moment (field-independent basis, Debye):
    X=              1.4731    Y=              9.4826    Z=              0.4381  Tot=              9.6064
 Quadrupole moment (field-independent basis, Debye-Ang):
   XX=           -113.2684   YY=           -109.9970   ZZ=           -100.7762
   XY=              0.5825   XZ=              8.4031   YZ=             -2.7331

 Normal termination of Gaussian 16 at Wed May  5 16:21:34 2021.
