 Gaussian 16, Revision A.03,
 Gaussian 16:  EM64L-G16RevA.03 25-Dec-2016

 -------------
 #p 6-31g* mp2
 -------------

 ------------------------------------------------------
 Input file generated by CHIRIPA (05-May-2021 14:57:23)
 ------------------------------------------------------
 Symbolic Z-matrix:
 Charge =  0 Multiplicity = 1

                         Standard orientation:
 ---------------------------------------------------------------------
 Center     Atomic      Atomic             Coordinates (Angstroms)
 Number     Number       Type             X           Y           Z
 ---------------------------------------------------------------------
      1          6           0       -5.974353    0.910796    0.522374
      2          6           0       -4.973587    1.800308    0.117706
      3          6           0       -3.690489    1.335271   -0.185523
      4          6           0       -3.441835   -0.031754   -0.072810
      5          6           0       -4.417796   -0.943003    0.327708
      6          6           0       -5.693758   -0.455612    0.625901
      7          1           0       -6.968323    1.280730    0.755973
      8          1           0       -5.188642    2.862000    0.036420
      9          1           0       -2.897088    2.001837   -0.501153
     10          1           0       -4.173295   -1.995854    0.399414
     11          1           0       -6.469012   -1.148732    0.939925
     12          7           0       -2.087254   -0.535900   -0.391159
     13          8           0       -1.893622   -1.744890   -0.283987
     14          8           0       -1.244814    0.287487   -0.741825
     15          6           0        5.078419    2.022707    0.278725
     16          6           0        3.840451    2.095363   -0.368330
     17          6           0        3.048963    0.952588   -0.517198
     18          6           0        3.528451   -0.251846   -0.004637
     19          6           0        4.757434   -0.356408    0.644944
     20          6           0        5.532159    0.799211    0.782408
     21          1           0        5.686754    2.915431    0.389940
     22          1           0        3.485535    3.044200   -0.760490
     23          1           0        2.086659    0.980449   -1.013798
     24          1           0        5.084515   -1.316448    1.025414
     25          1           0        6.493171    0.739810    1.285373
     26          7           0        2.699411   -1.468449   -0.156201
     27          8           0        3.144396   -2.517575    0.304191
     28          8           0        1.620322   -1.349860   -0.732519
 ---------------------------------------------------------------------

 SCF Done:  E(RHF) =  -868.335295534     A.U. after   16 cycles
 E2 =    -0.2600896568D+01 EUMP2 =    -0.87093619210183D+03

 The electronic state is 1-A.
 Alpha  occ. eigenvalues --  -20.60063 -20.59997 -20.59305 -20.59145 -15.85111
 Alpha  occ. eigenvalues --  -15.84276 -11.30779 -11.30056 -11.27414 -11.27351
 Alpha  occ. eigenvalues --  -11.27174 -11.26742 -11.26589 -11.26568 -11.26480
 Alpha  occ. eigenvalues --  -11.26439 -11.25845 -11.25791  -1.59078  -1.58316
 Alpha  occ. eigenvalues --   -1.38639  -1.37845  -1.18974  -1.18290  -1.08306
 Alpha  occ. eigenvalues --   -1.07624  -1.04425  -1.03749  -0.95092  -0.94372
 Alpha  occ. eigenvalues --   -0.85809  -0.85128  -0.81933  -0.81193  -0.76929
 Alpha  occ. eigenvalues --   -0.76156  -0.71308  -0.70491  -0.70424  -0.70081
 Alpha  occ. eigenvalues --   -0.69670  -0.69395  -0.64624  -0.64428  -0.63926
 Alpha  occ. eigenvalues --   -0.63765  -0.61773  -0.61070  -0.54909  -0.54269
 Alpha  occ. eigenvalues --   -0.52736  -0.52523  -0.52074  -0.51842  -0.48093
 Alpha  occ. eigenvalues --   -0.48024  -0.47280  -0.47148  -0.43993  -0.43141
 Alpha  occ. eigenvalues --   -0.36971  -0.36322  -0.36043  -0.35376
 Alpha virt. eigenvalues --    0.05610   0.06369   0.11606   0.12271   0.17053
 Alpha virt. eigenvalues --    0.17764   0.21690   0.22333   0.27585   0.28175
 Alpha virt. eigenvalues --    0.28591   0.29306   0.31213   0.31815   0.32830

 Mulliken charges:
               1
     1  C   -0.171812
     2  C   -0.218334
     3  C   -0.171593
     4  C    0.159306
     5  C   -0.171114
     6  C   -0.218416
     7  H    0.223938
     8  H    0.220990
     9  H    0.271638
    10  H    0.277271
    11  H    0.222723
    12  N    0.488473
    13  O   -0.447158
    14  O   -0.464027
    15  C   -0.172211
    16  C   -0.220022
    17  C   -0.173728
    18  C    0.156833
    19  C   -0.172077
    20  C   -0.219337
    21  H    0.220923
    22  H    0.219621
    23  H    0.289686
    24  H    0.273248
    25  H    0.219230
    26  N    0.484736
    27  O   -0.470126
    28  O   -0.438658
 Sum of Mulliken charges =  -0.00000

 Dipole moment (field-independent basis, Debye):
    X=             -2.1751    Y=              5.8163    Z=              1.5125  Tot=              6.3912
 Quadrupole moment (field-independent basis, Debye-Ang):
   XX=            -52.3763   YY=           -102.2834   ZZ=           -105.2190
   XY=              8.2307   XZ=             -0.4386   YZ=             -2.8128

 Normal termination of Gaussian 16 at Fri May  7 06:25:52 2021.
