 Gaussian 16, Revision A.03,
 Gaussian 16:  EM64L-G16RevA.03 25-Dec-2016

 -------------
 #p 6-31g* mp2
 -------------

 ------------------------------------------------------
 Input file generated by CHIRIPA (05-May-2021 14:53:13)
 ------------------------------------------------------
 Symbolic Z-matrix:
 Charge =  0 Multiplicity = 1

                         Standard orientation:
 ---------------------------------------------------------------------
 Center     Atomic      Atomic             Coordinates (Angstroms)
 Number     Number       Type             X           Y           Z
 ---------------------------------------------------------------------
      1          6           0       -5.401927   -0.148668   -0.023537
      2          6           0       -5.706112    0.968905   -1.021778
      3          6           0       -7.183788    1.361354   -1.037628
      4          1           0       -6.013587   -1.027572   -0.269191
      5          1           0       -5.707435    0.173739    0.981508
      6          1           0       -5.398848    0.645022   -2.024427
      7          1           0       -5.093517    1.845186   -0.773835
      8          1           0       -7.500451    1.709833   -0.049252
      9          1           0       -7.807518    0.502850   -1.306950
     10          1           0       -7.378886    2.161770   -1.758135
     11          6           0       -3.928747   -0.552048    0.003902
     12          6           0       -3.624563   -1.669622    1.002143
     13          6           0       -2.146887   -2.062071    1.017994
     14          1           0       -3.623239   -0.874455   -1.001142
     15          1           0       -3.317088    0.326856    0.249556
     16          1           0       -4.237158   -2.545902    0.754200
     17          1           0       -3.931827   -1.345739    2.004792
     18          1           0       -1.523157   -1.203567    1.287315
     19          1           0       -1.830223   -2.410549    0.029617
     20          1           0       -1.951789   -2.862487    1.738501
     21          6           0        1.837041    1.575620    1.192152
     22          6           0        1.603124    0.254706    0.795931
     23          6           0        2.597487   -0.476168    0.138957
     24          6           0        3.819562    0.147854   -0.106841
     25          6           0        4.082977    1.462282    0.275496
     26          6           0        3.074039    2.174137    0.931130
     27          1           0        1.058935    2.135993    1.701985
     28          1           0        0.643414   -0.212672    0.997325
     29          1           0        2.443184   -1.500215   -0.178750
     30          1           0        5.049777    1.901187    0.060836
     31          1           0        3.258510    3.199825    1.237691
     32          7           0        4.879963   -0.615822   -0.801641
     33          8           0        5.948076   -0.043261   -1.006454
     34          8           0        4.622915   -1.772493   -1.128256
 ---------------------------------------------------------------------

 SCF Done:  E(RHF) =  -669.535530059     A.U. after   15 cycles
 E2 =    -0.2090774749D+01 EUMP2 =    -0.67162630480802D+03

 The electronic state is 1-A.
 Alpha  occ. eigenvalues --  -20.60715 -20.60710 -15.85768 -11.31125 -11.27695
 Alpha  occ. eigenvalues --  -11.27677 -11.27437 -11.26716 -11.26667 -11.22376
 Alpha  occ. eigenvalues --  -11.22111 -11.22082 -11.22071 -11.21919 -11.21465
 Alpha  occ. eigenvalues --   -1.59791  -1.39344  -1.19295  -1.09068  -1.08695
 Alpha  occ. eigenvalues --   -1.04695  -1.04186  -0.96654  -0.95531  -0.87677
 Alpha  occ. eigenvalues --   -0.86097  -0.82362  -0.80257  -0.78859  -0.77408
 Alpha  occ. eigenvalues --   -0.71987  -0.71114  -0.70411  -0.65705  -0.64947
 Alpha  occ. eigenvalues --   -0.64718  -0.62084  -0.61558  -0.60015  -0.58246
 Alpha  occ. eigenvalues --   -0.55967  -0.55203  -0.53347  -0.53173  -0.53028
 Alpha  occ. eigenvalues --   -0.52696  -0.50590  -0.48757  -0.48742  -0.48549
 Alpha  occ. eigenvalues --   -0.47277  -0.46408  -0.46311  -0.44752  -0.44424
 Alpha  occ. eigenvalues --   -0.37282  -0.36297
 Alpha virt. eigenvalues --    0.05123   0.11353   0.16617   0.19982   0.22428
 Alpha virt. eigenvalues --    0.23706   0.25145   0.26240   0.27079   0.28297
 Alpha virt. eigenvalues --    0.28704   0.29954   0.31098   0.31368   0.32054

 Mulliken charges:
               1
     1  C   -0.298790
     2  C   -0.299928
     3  C   -0.476046
     4  H    0.151648
     5  H    0.149796
     6  H    0.153294
     7  H    0.150856
     8  H    0.155313
     9  H    0.156337
    10  H    0.161512
    11  C   -0.298202
    12  C   -0.299491
    13  C   -0.481426
    14  H    0.151766
    15  H    0.145270
    16  H    0.156270
    17  H    0.153169
    18  H    0.146037
    19  H    0.158737
    20  H    0.165415
    21  C   -0.173395
    22  C   -0.226237
    23  C   -0.174006
    24  C    0.158901
    25  C   -0.171370
    26  C   -0.218473
    27  H    0.225196
    28  H    0.236234
    29  H    0.276342
    30  H    0.275331
    31  H    0.223063
    32  N    0.488069
    33  O   -0.460750
    34  O   -0.460442
 Sum of Mulliken charges =  -0.00000

 Dipole moment (field-independent basis, Debye):
    X=             -3.9597    Y=              2.6215    Z=              2.4215  Tot=              5.3306
 Quadrupole moment (field-independent basis, Debye-Ang):
   XX=           -122.2100   YY=            -90.4985   ZZ=            -95.6017
   XY=             13.3268   XZ=             10.0502   YZ=              0.9075

 Normal termination of Gaussian 16 at Thu May  6 12:04:39 2021.
