 Gaussian 16, Revision A.03,
 Gaussian 16:  EM64L-G16RevA.03 25-Dec-2016

 -------------
 #p 6-31g* mp2
 -------------

 ------------------------------------------------------
 Input file generated by CHIRIPA (05-May-2021 14:51:13)
 ------------------------------------------------------
 Symbolic Z-matrix:
 Charge =  0 Multiplicity = 1

                         Standard orientation:
 ---------------------------------------------------------------------
 Center     Atomic      Atomic             Coordinates (Angstroms)
 Number     Number       Type             X           Y           Z
 ---------------------------------------------------------------------
      1          6           0       -2.789783    0.303518   -0.171782
      2          6           0       -3.677379   -0.276125    0.930113
      3          6           0       -4.365218   -1.576215    0.512458
      4          1           0       -3.398610    0.480931   -1.068888
      5          1           0       -2.030979   -0.440515   -0.451114
      6          1           0       -4.433419    0.469300    1.208252
      7          1           0       -3.066407   -0.451999    1.824762
      8          1           0       -3.623355   -2.338846    0.254318
      9          1           0       -4.998134   -1.412312   -0.365695
     10          1           0       -4.994676   -1.973154    1.315005
     11          6           0       -2.095312    1.603302    0.230710
     12          6           0       -1.207716    2.182945   -0.871185
     13          6           0       -0.519877    3.483035   -0.453530
     14          1           0       -2.854116    2.347335    0.510042
     15          1           0       -1.486485    1.425889    1.127816
     16          1           0       -1.818688    2.358819   -1.765835
     17          1           0       -0.451676    1.437520   -1.149324
     18          1           0        0.113040    3.319132    0.424623
     19          1           0       -1.261740    4.245666   -0.195391
     20          1           0        0.109582    3.879974   -1.256077
     21          6           0        2.192664   -1.671176   -0.105635
     22          6           0        0.729246   -1.760924   -0.539612
     23          6           0        0.243949   -3.203268   -0.687686
     24          1           0        2.818985   -2.196781   -0.839397
     25          1           0        2.317966   -2.200993    0.848822
     26          1           0        0.606464   -1.229912   -1.492275
     27          1           0        0.106357   -1.234879    0.195169
     28          1           0        0.337661   -3.740626    0.261559
     29          1           0        0.840611   -3.735630   -1.435473
     30          1           0       -0.804639   -3.244120   -0.998575
     31          6           0        2.692431   -0.235644    0.046707
     32          6           0        4.155849   -0.145896    0.480684
     33          6           0        4.641145    1.296448    0.628758
     34          1           0        2.567128    0.294173   -0.907749
     35          1           0        2.066111    0.289961    0.780470
     36          1           0        4.778738   -0.671939   -0.254096
     37          1           0        4.278630   -0.676907    1.433348
     38          1           0        4.044484    1.828811    1.376545
     39          1           0        4.547433    1.833807   -0.320486
     40          1           0        5.689734    1.337301    0.939648
 ---------------------------------------------------------------------

 SCF Done:  E(RHF) =  -470.733023888     A.U. after   11 cycles
 E2 =    -0.1584436352D+01 EUMP2 =    -0.47231746024000D+03

 The electronic state is 1-A.
 Alpha  occ. eigenvalues --  -11.21709 -11.21660 -11.21568 -11.21510 -11.21492
 Alpha  occ. eigenvalues --  -11.21433 -11.21338 -11.21250 -11.21183 -11.21106
 Alpha  occ. eigenvalues --  -11.21055 -11.21012  -1.08534  -1.08360  -1.03619
 Alpha  occ. eigenvalues --   -1.03477  -0.96063  -0.95927  -0.87075  -0.86945
 Alpha  occ. eigenvalues --   -0.79707  -0.79540  -0.78432  -0.78090  -0.65232
 Alpha  occ. eigenvalues --   -0.64949  -0.61044  -0.60850  -0.59435  -0.59295
 Alpha  occ. eigenvalues --   -0.57703  -0.57517  -0.55351  -0.55214  -0.52761
 Alpha  occ. eigenvalues --   -0.52623  -0.52480  -0.52356  -0.50018  -0.49859
 Alpha  occ. eigenvalues --   -0.48042  -0.47868  -0.46782  -0.46546  -0.46187
 Alpha  occ. eigenvalues --   -0.45777  -0.45694  -0.45220  -0.43864  -0.43724
 Alpha virt. eigenvalues --    0.19976   0.22028   0.23565   0.24181   0.25712
 Alpha virt. eigenvalues --    0.25971   0.26729   0.27627   0.28290   0.29605
 Alpha virt. eigenvalues --    0.30768   0.31142   0.31685   0.32004   0.32672

 Mulliken charges:
               1
     1  C   -0.307473
     2  C   -0.299280
     3  C   -0.476691
     4  H    0.149178
     5  H    0.160187
     6  H    0.151912
     7  H    0.151008
     8  H    0.155650
     9  H    0.155186
    10  H    0.160205
    11  C   -0.297738
    12  C   -0.304112
    13  C   -0.475312
    14  H    0.149414
    15  H    0.148213
    16  H    0.151244
    17  H    0.157160
    18  H    0.155059
    19  H    0.154760
    20  H    0.159843
    21  C   -0.297790
    22  C   -0.305153
    23  C   -0.478467
    24  H    0.150022
    25  H    0.149741
    26  H    0.153820
    27  H    0.155282
    28  H    0.155728
    29  H    0.156178
    30  H    0.161728
    31  C   -0.299526
    32  C   -0.299813
    33  C   -0.475678
    34  H    0.150410
    35  H    0.149619
    36  H    0.152204
    37  H    0.152085
    38  H    0.155182
    39  H    0.155555
    40  H    0.160461
 Sum of Mulliken charges =  -0.00000

 Dipole moment (field-independent basis, Debye):
    X=              0.0622    Y=             -0.0419    Z=             -0.0209  Tot=              0.0778
 Quadrupole moment (field-independent basis, Debye-Ang):
   XX=            -84.6813   YY=            -86.3973   ZZ=            -83.7309
   XY=             -1.4421   XZ=             -0.1570   YZ=             -0.4635

 Normal termination of Gaussian 16 at Thu May  6 02:22:10 2021.
