 Gaussian 16, Revision A.03,
 Gaussian 16:  EM64L-G16RevA.03 25-Dec-2016

 -------------
 #p 6-31g* mp2
 -------------

 ------------------------------------------------------
 Input file generated by CHIRIPA (05-May-2021 14:53:17)
 ------------------------------------------------------
 Symbolic Z-matrix:
 Charge =  0 Multiplicity = 1

                         Standard orientation:
 ---------------------------------------------------------------------
 Center     Atomic      Atomic             Coordinates (Angstroms)
 Number     Number       Type             X           Y           Z
 ---------------------------------------------------------------------
      1          6           0        3.927892    0.696035   -0.293429
      2          6           0        3.351664    2.082904   -0.006127
      3          6           0        4.271379    3.212868   -0.469915
      4          1           0        4.904491    0.602123    0.200919
      5          1           0        4.113115    0.599878   -1.372243
      6          1           0        3.166291    2.175915    1.071649
      7          1           0        2.376236    2.173456   -0.501058
      8          1           0        4.447268    3.148252   -1.548567
      9          1           0        5.241812    3.150725    0.033076
     10          1           0        3.840049    4.195480   -0.254772
     11          6           0        3.019928   -0.443990    0.164472
     12          6           0        3.596156   -1.830858   -0.122829
     13          6           0        2.676441   -2.960822    0.340959
     14          1           0        2.834705   -0.347833    1.243287
     15          1           0        2.043329   -0.350078   -0.329876
     16          1           0        4.571584   -1.921411    0.372102
     17          1           0        3.781530   -1.923869   -1.200606
     18          1           0        1.706009   -2.898679   -0.162033
     19          1           0        2.500552   -2.896206    1.419610
     20          1           0        3.107771   -3.943435    0.125815
     21          6           0       -4.688469    1.468590   -0.057944
     22          6           0       -4.642829    0.341834   -0.885506
     23          6           0       -3.553776   -0.533300   -0.833987
     24          6           0       -2.523107   -0.249951    0.060845
     25          6           0       -2.539513    0.864409    0.898236
     26          6           0       -3.638516    1.725828    0.829720
     27          1           0       -5.538336    2.143089   -0.104567
     28          1           0       -5.456809    0.139558   -1.575843
     29          1           0       -3.492795   -1.412881   -1.463301
     30          1           0       -1.713063    1.039679    1.576234
     31          1           0       -3.671273    2.600118    1.473606
     32          7           0       -1.364908   -1.169157    0.124384
     33          8           0       -0.469580   -0.897265    0.921313
     34          8           0       -1.374373   -2.144117   -0.623948
 ---------------------------------------------------------------------

 SCF Done:  E(RHF) =  -669.536387072     A.U. after   15 cycles
 E2 =    -0.2092306572D+01 EUMP2 =    -0.67162869364399D+03

 The electronic state is 1-A.
 Alpha  occ. eigenvalues --  -20.61091 -20.61080 -15.86076 -11.31366 -11.27920
 Alpha  occ. eigenvalues --  -11.27914 -11.27649 -11.26915 -11.26905 -11.20893
 Alpha  occ. eigenvalues --  -11.20551 -11.20357 -11.20111 -11.19807 -11.19106
 Alpha  occ. eigenvalues --   -1.60124  -1.39681  -1.19526  -1.08939  -1.07246
 Alpha  occ. eigenvalues --   -1.04914  -1.02336  -0.95785  -0.94758  -0.86317
 Alpha  occ. eigenvalues --   -0.85768  -0.82622  -0.78485  -0.77685  -0.76929
 Alpha  occ. eigenvalues --   -0.72279  -0.71431  -0.70633  -0.65180  -0.64916
 Alpha  occ. eigenvalues --   -0.63900  -0.62260  -0.59750  -0.58231  -0.56349
 Alpha  occ. eigenvalues --   -0.55420  -0.54042  -0.53250  -0.53004  -0.51519
 Alpha  occ. eigenvalues --   -0.51147  -0.49154  -0.49066  -0.48645  -0.46721
 Alpha  occ. eigenvalues --   -0.45536  -0.45241  -0.44440  -0.44155  -0.42577
 Alpha  occ. eigenvalues --   -0.37502  -0.36513
 Alpha virt. eigenvalues --    0.04822   0.11143   0.16321   0.21274   0.23885
 Alpha virt. eigenvalues --    0.25585   0.27200   0.27788   0.28019   0.28756
 Alpha virt. eigenvalues --    0.29250   0.30905   0.32380   0.32579   0.32663

 Mulliken charges:
               1
     1  C   -0.298196
     2  C   -0.297326
     3  C   -0.474667
     4  H    0.145833
     5  H    0.145938
     6  H    0.150077
     7  H    0.148812
     8  H    0.153986
     9  H    0.154404
    10  H    0.155783
    11  C   -0.295021
    12  C   -0.300137
    13  C   -0.477724
    14  H    0.150177
    15  H    0.159750
    16  H    0.144072
    17  H    0.145968
    18  H    0.177666
    19  H    0.153746
    20  H    0.148896
    21  C   -0.170412
    22  C   -0.218611
    23  C   -0.170680
    24  C    0.158517
    25  C   -0.170733
    26  C   -0.218591
    27  H    0.226285
    28  H    0.224060
    29  H    0.275944
    30  H    0.276368
    31  H    0.224196
    32  N    0.487876
    33  O   -0.456341
    34  O   -0.459914
 Sum of Mulliken charges =  -0.00000

 Dipole moment (field-independent basis, Debye):
    X=             -4.5442    Y=              3.1728    Z=             -0.1713  Tot=              5.5448
 Quadrupole moment (field-independent basis, Debye-Ang):
   XX=            -75.4321   YY=            -96.8127   ZZ=            -92.0015
   XY=             -6.4851   XZ=              2.7909   YZ=              2.9876

 Normal termination of Gaussian 16 at Thu May  6 05:59:07 2021.
