 Gaussian 16, Revision A.03,
 Gaussian 16:  EM64L-G16RevA.03 25-Dec-2016

 -------------
 #p 6-31g* mp2
 -------------

 ------------------------------------------------------
 Input file generated by CHIRIPA (05-May-2021 14:55:24)
 ------------------------------------------------------
 Symbolic Z-matrix:
 Charge =  0 Multiplicity = 1

                         Standard orientation:
 ---------------------------------------------------------------------
 Center     Atomic      Atomic             Coordinates (Angstroms)
 Number     Number       Type             X           Y           Z
 ---------------------------------------------------------------------
      1          6           0        1.543986    2.560814   -1.012248
      2          6           0        0.812395    2.280560    0.146524
      3          6           0        1.074586    1.125888    0.889852
      4          6           0        2.079938    0.269550    0.443484
      5          6           0        2.826127    0.521168   -0.706812
      6          6           0        2.546749    1.681774   -1.434473
      7          1           0        1.333634    3.460096   -1.583597
      8          1           0        0.033055    2.961433    0.476807
      9          1           0        0.523466    0.884564    1.790655
     10          1           0        3.596897   -0.176538   -1.011014
     11          1           0        3.116511    1.896870   -2.334001
     12          7           0        2.366606   -0.955990    1.222118
     13          8           0        3.257484   -1.694402    0.807726
     14          8           0        1.694989   -1.154951    2.232060
     15          6           0       -1.910615   -0.647153   -0.725474
     16          6           0       -1.538744   -2.060813   -1.174095
     17          6           0       -0.153080   -2.131843   -1.816500
     18          1           0       -1.871335    0.027737   -1.591457
     19          1           0       -1.156181   -0.285702   -0.013029
     20          1           0       -2.294400   -2.420019   -1.884425
     21          1           0       -1.579100   -2.732453   -0.306981
     22          1           0        0.615780   -1.798927   -1.111785
     23          1           0       -0.103586   -1.484719   -2.698192
     24          1           0        0.092419   -3.151383   -2.129755
     25          6           0       -3.293076   -0.559975   -0.081323
     26          6           0       -3.664947    0.853685    0.367297
     27          6           0       -5.050611    0.924716    1.009703
     28          1           0       -4.047511   -0.921426   -0.793768
     29          1           0       -3.332356   -1.234865    0.784659
     30          1           0       -3.624592    1.525325   -0.499817
     31          1           0       -2.909291    1.212892    1.077628
     32          1           0       -5.100106    0.277591    1.891395
     33          1           0       -5.819470    0.591800    0.304987
     34          1           0       -5.296109    1.944256    1.322958
 ---------------------------------------------------------------------

 SCF Done:  E(RHF) =  -669.534101622     A.U. after   15 cycles
 E2 =    -0.2095254876D+01 EUMP2 =    -0.67162935649770D+03

 The electronic state is 1-A.
 Alpha  occ. eigenvalues --  -20.60861 -20.60849 -15.85896 -11.31208 -11.27796
 Alpha  occ. eigenvalues --  -11.27791 -11.27536 -11.26804 -11.26794 -11.21944
 Alpha  occ. eigenvalues --  -11.21460 -11.21433 -11.21313 -11.21294 -11.20885
 Alpha  occ. eigenvalues --   -1.59932  -1.39484  -1.19417  -1.08813  -1.08486
 Alpha  occ. eigenvalues --   -1.04813  -1.03583  -0.96018  -0.95651  -0.87043
 Alpha  occ. eigenvalues --   -0.86208  -0.82480  -0.79676  -0.78313  -0.77524
 Alpha  occ. eigenvalues --   -0.72118  -0.71285  -0.70525  -0.65144  -0.65055
 Alpha  occ. eigenvalues --   -0.64797  -0.62158  -0.60987  -0.59405  -0.57638
 Alpha  occ. eigenvalues --   -0.55313  -0.55310  -0.53227  -0.52901  -0.52705
 Alpha  occ. eigenvalues --   -0.52459  -0.49989  -0.48878  -0.48875  -0.47969
 Alpha  occ. eigenvalues --   -0.46720  -0.45797  -0.45746  -0.44875  -0.43820
 Alpha  occ. eigenvalues --   -0.37337  -0.36307
 Alpha virt. eigenvalues --    0.04963   0.11143   0.16433   0.20619   0.22900
 Alpha virt. eigenvalues --    0.24092   0.25549   0.26833   0.27662   0.28055
 Alpha virt. eigenvalues --    0.29235   0.30458   0.31385   0.31806   0.32231

 Mulliken charges:
               1
     1  C   -0.171032
     2  C   -0.214002
     3  C   -0.176315
     4  C    0.157542
     5  C   -0.170899
     6  C   -0.217219
     7  H    0.225851
     8  H    0.224781
     9  H    0.275537
    10  H    0.275992
    11  H    0.223711
    12  N    0.491598
    13  O   -0.459383
    14  O   -0.460949
    15  C   -0.301987
    16  C   -0.300892
    17  C   -0.474850
    18  H    0.145497
    19  H    0.153385
    20  H    0.150292
    21  H    0.157934
    22  H    0.154486
    23  H    0.150618
    24  H    0.163289
    25  C   -0.298487
    26  C   -0.297891
    27  C   -0.475618
    28  H    0.149819
    29  H    0.153464
    30  H    0.149176
    31  H    0.143581
    32  H    0.157791
    33  H    0.156627
    34  H    0.158553
 Sum of Mulliken charges =  -0.00000

 Dipole moment (field-independent basis, Debye):
    X=             -0.9511    Y=              4.2732    Z=             -2.7342  Tot=              5.1614
 Quadrupole moment (field-independent basis, Debye-Ang):
   XX=            -97.5145   YY=            -92.5769   ZZ=            -95.0147
   XY=              8.1235   XZ=             -8.2231   YZ=              1.6542

 Normal termination of Gaussian 16 at Thu May  6 11:02:00 2021.
