 Gaussian 16, Revision A.03,
 Gaussian 16:  EM64L-G16RevA.03 25-Dec-2016

 -------------
 #p 6-31g* mp2
 -------------

 ------------------------------------------------------
 Input file generated by CHIRIPA (05-May-2021 14:53:12)
 ------------------------------------------------------
 Symbolic Z-matrix:
 Charge =  0 Multiplicity = 1

                         Standard orientation:
 ---------------------------------------------------------------------
 Center     Atomic      Atomic             Coordinates (Angstroms)
 Number     Number       Type             X           Y           Z
 ---------------------------------------------------------------------
      1          6           0       -3.052986    0.841097   -0.218951
      2          6           0       -3.664396    2.240964   -0.151617
      3          6           0       -2.615626    3.349372   -0.248093
      4          1           0       -2.321878    0.727774    0.593197
      5          1           0       -2.494108    0.737509   -1.159334
      6          1           0       -4.223108    2.341407    0.787728
      7          1           0       -4.394274    2.350902   -0.963903
      8          1           0       -2.064844    3.277519   -1.191532
      9          1           0       -1.892706    3.267971    0.570052
     10          1           0       -3.074503    4.341728   -0.197873
     11          6           0       -4.088889   -0.277642   -0.123788
     12          6           0       -3.477479   -1.677509   -0.191122
     13          6           0       -4.526249   -2.785917   -0.094646
     14          1           0       -4.647767   -0.174053    0.816595
     15          1           0       -4.819997   -0.164318   -0.935936
     16          1           0       -2.747602   -1.787446    0.621164
     17          1           0       -2.918768   -1.777952   -1.130467
     18          1           0       -5.249170   -2.704515   -0.912791
     19          1           0       -5.077031   -2.714064    0.848793
     20          1           0       -4.067372   -3.778273   -0.144866
     21          6           0        5.166250    0.345438   -0.497429
     22          6           0        4.685238   -0.955792   -0.676173
     23          6           0        3.370247   -1.280488   -0.329880
     24          6           0        2.560048   -0.274773    0.194915
     25          6           0        3.010095    1.030847    0.384923
     26          6           0        4.328620    1.332863    0.031616
     27          1           0        6.189139    0.588860   -0.769162
     28          1           0        5.333500   -1.724666   -1.086823
     29          1           0        2.972100   -2.279761   -0.457739
     30          1           0        2.340141    1.775939    0.796526
     31          1           0        4.699480    2.344263    0.171533
     32          7           0        1.166055   -0.606510    0.565233
     33          8           0        0.472307    0.297558    1.025681
     34          8           0        0.793587   -1.764311    0.388028
 ---------------------------------------------------------------------

 SCF Done:  E(RHF) =  -669.536409018     A.U. after   15 cycles
 E2 =    -0.2091571780D+01 EUMP2 =    -0.67162798079763D+03

 The electronic state is 1-A.
 Alpha  occ. eigenvalues --  -20.61012 -20.61001 -15.86024 -11.31324 -11.27882
 Alpha  occ. eigenvalues --  -11.27878 -11.27616 -11.26884 -11.26874 -11.20474
 Alpha  occ. eigenvalues --  -11.20140 -11.20072 -11.20007 -11.19891 -11.19746
 Alpha  occ. eigenvalues --   -1.60054  -1.39612  -1.19488  -1.08897  -1.07053
 Alpha  occ. eigenvalues --   -1.04880  -1.02286  -0.95743  -0.94759  -0.86282
 Alpha  occ. eigenvalues --   -0.85788  -0.82580  -0.78326  -0.77633  -0.76806
 Alpha  occ. eigenvalues --   -0.72245  -0.71361  -0.70597  -0.65145  -0.64884
 Alpha  occ. eigenvalues --   -0.63690  -0.62227  -0.59697  -0.58126  -0.56353
 Alpha  occ. eigenvalues --   -0.55387  -0.54062  -0.53214  -0.52972  -0.51512
 Alpha  occ. eigenvalues --   -0.51191  -0.49068  -0.49003  -0.48690  -0.46656
 Alpha  occ. eigenvalues --   -0.45349  -0.45047  -0.44384  -0.44122  -0.42496
 Alpha  occ. eigenvalues --   -0.37465  -0.36480
 Alpha virt. eigenvalues --    0.04889   0.11175   0.16386   0.21295   0.24175
 Alpha virt. eigenvalues --    0.25417   0.27221   0.27886   0.28185   0.28958
 Alpha virt. eigenvalues --    0.29309   0.30923   0.32215   0.32629   0.33008

 Mulliken charges:
               1
     1  C   -0.306499
     2  C   -0.298318
     3  C   -0.474638
     4  H    0.178270
     5  H    0.143531
     6  H    0.148982
     7  H    0.146500
     8  H    0.151064
     9  H    0.158795
    10  H    0.154192
    11  C   -0.297836
    12  C   -0.300313
    13  C   -0.475307
    14  H    0.145422
    15  H    0.142500
    16  H    0.168324
    17  H    0.149974
    18  H    0.149908
    19  H    0.151955
    20  H    0.158423
    21  C   -0.170522
    22  C   -0.218613
    23  C   -0.170616
    24  C    0.157896
    25  C   -0.170632
    26  C   -0.218578
    27  H    0.226108
    28  H    0.223902
    29  H    0.275897
    30  H    0.275933
    31  H    0.224026
    32  N    0.490037
    33  O   -0.460723
    34  O   -0.459046
 Sum of Mulliken charges =  -0.00000

 Dipole moment (field-independent basis, Debye):
    X=              5.3324    Y=              1.0648    Z=             -1.1548  Tot=              5.5589
 Quadrupole moment (field-independent basis, Debye-Ang):
   XX=            -72.1588   YY=            -92.5943   ZZ=            -94.7320
   XY=              0.5031   XZ=             -3.1196   YZ=              2.3533

 Normal termination of Gaussian 16 at Wed May  5 15:29:13 2021.
