 Gaussian 16, Revision A.03,
 Gaussian 16:  EM64L-G16RevA.03 25-Dec-2016

 -------------
 #p 6-31g* mp2
 -------------

 ------------------------------------------------------
 Input file generated by CHIRIPA (05-May-2021 14:53:12)
 ------------------------------------------------------
 Symbolic Z-matrix:
 Charge =  0 Multiplicity = 1

                         Standard orientation:
 ---------------------------------------------------------------------
 Center     Atomic      Atomic             Coordinates (Angstroms)
 Number     Number       Type             X           Y           Z
 ---------------------------------------------------------------------
      1          6           0        3.398686   -0.961054    0.071287
      2          6           0        1.977364   -0.397555    0.088513
      3          6           0        0.919465   -1.469848    0.350875
      4          1           0        3.467383   -1.741999   -0.698355
      5          1           0        3.602943   -1.451363    1.033198
      6          1           0        1.776334    0.092752   -0.872633
      7          1           0        1.912094    0.382273    0.858074
      8          1           0        1.092101   -1.952819    1.318106
      9          1           0        0.955570   -2.243986   -0.422435
     10          1           0       -0.089221   -1.045174    0.358956
     11          6           0        4.467442    0.098804   -0.189846
     12          6           0        5.888764   -0.464695   -0.207072
     13          6           0        6.946663    0.607598   -0.469434
     14          1           0        4.263185    0.589113   -1.151757
     15          1           0        4.398745    0.879750    0.579796
     16          1           0        5.954034   -1.244523   -0.976633
     17          1           0        6.089793   -0.955002    0.754074
     18          1           0        6.910557    1.381736    0.303876
     19          1           0        6.774027    1.090570   -1.436665
     20          1           0        7.955349    0.182925   -0.477515
     21          6           0       -1.372848    2.078358    0.712226
     22          6           0       -2.082070    2.214516   -0.485684
     23          6           0       -3.026290    1.255691   -0.864696
     24          6           0       -3.237042    0.168450   -0.018066
     25          6           0       -2.546351    0.004757    1.181702
     26          6           0       -1.606840    0.975857    1.540635
     27          1           0       -0.641185    2.827963    0.998853
     28          1           0       -1.902418    3.069695   -1.131004
     29          1           0       -3.589396    1.336362   -1.786554
     30          1           0       -2.747249   -0.858652    1.804263
     31          1           0       -1.057523    0.867521    2.471526
     32          7           0       -4.234153   -0.853111   -0.408681
     33          8           0       -4.401412   -1.801749    0.354698
     34          8           0       -4.829550   -0.685831   -1.470828
 ---------------------------------------------------------------------

 SCF Done:  E(RHF) =  -669.534274421     A.U. after   15 cycles
 E2 =    -0.2093267896D+01 EUMP2 =    -0.67162754231695D+03

 The electronic state is 1-A.
 Alpha  occ. eigenvalues --  -20.60810 -20.60804 -15.85865 -11.31269 -11.27824
 Alpha  occ. eigenvalues --  -11.27803 -11.27564 -11.26850 -11.26830 -11.21981
 Alpha  occ. eigenvalues --  -11.21896 -11.21746 -11.21676 -11.21358 -11.21134
 Alpha  occ. eigenvalues --   -1.59885  -1.39437  -1.19453  -1.08833  -1.08747
 Alpha  occ. eigenvalues --   -1.04867  -1.03816  -0.96254  -0.95655  -0.87274
 Alpha  occ. eigenvalues --   -0.86238  -0.82486  -0.79895  -0.78578  -0.77530
 Alpha  occ. eigenvalues --   -0.72081  -0.71210  -0.70530  -0.65393  -0.65090
 Alpha  occ. eigenvalues --   -0.64837  -0.62194  -0.61223  -0.59705  -0.57943
 Alpha  occ. eigenvalues --   -0.55545  -0.55330  -0.53677  -0.52927  -0.52782
 Alpha  occ. eigenvalues --   -0.52254  -0.50200  -0.48844  -0.48834  -0.48201
 Alpha  occ. eigenvalues --   -0.46945  -0.46117  -0.46049  -0.44835  -0.44090
 Alpha  occ. eigenvalues --   -0.37416  -0.36337
 Alpha virt. eigenvalues --    0.04992   0.11108   0.16465   0.20925   0.22657
 Alpha virt. eigenvalues --    0.24142   0.26146   0.26914   0.27142   0.28141
 Alpha virt. eigenvalues --    0.28351   0.30784   0.31148   0.31567   0.32040

 Mulliken charges:
               1
     1  C   -0.298309
     2  C   -0.296544
     3  C   -0.485396
     4  H    0.152109
     5  H    0.149408
     6  H    0.151984
     7  H    0.141717
     8  H    0.150742
     9  H    0.157920
    10  H    0.171446
    11  C   -0.297909
    12  C   -0.299802
    13  C   -0.475768
    14  H    0.149151
    15  H    0.146739
    16  H    0.153325
    17  H    0.152275
    18  H    0.154278
    19  H    0.155196
    20  H    0.161372
    21  C   -0.168880
    22  C   -0.218317
    23  C   -0.171468
    24  C    0.162218
    25  C   -0.177486
    26  C   -0.216243
    27  H    0.226418
    28  H    0.223977
    29  H    0.275956
    30  H    0.276878
    31  H    0.225063
    32  N    0.488149
    33  O   -0.459990
    34  O   -0.460207
 Sum of Mulliken charges =  -0.00000

 Dipole moment (field-independent basis, Debye):
    X=              3.4393    Y=              3.6127    Z=              1.3435  Tot=              5.1658
 Quadrupole moment (field-independent basis, Debye-Ang):
   XX=           -118.8077   YY=            -93.1279   ZZ=            -90.5317
   XY=            -12.3534   XZ=             -3.5078   YZ=             -1.9630

 Normal termination of Gaussian 16 at Thu May  6 13:40:30 2021.
