 Gaussian 16, Revision A.03,
 Gaussian 16:  EM64L-G16RevA.03 25-Dec-2016

 -------------
 #p 6-31g* mp2
 -------------

 ------------------------------------------------------
 Input file generated by CHIRIPA (05-May-2021 14:55:23)
 ------------------------------------------------------
 Symbolic Z-matrix:
 Charge =  0 Multiplicity = 1

                         Standard orientation:
 ---------------------------------------------------------------------
 Center     Atomic      Atomic             Coordinates (Angstroms)
 Number     Number       Type             X           Y           Z
 ---------------------------------------------------------------------
      1          6           0       -1.495764    0.072700    1.543999
      2          6           0       -2.117847    1.215103    1.029753
      3          6           0       -3.279482    1.105221    0.259638
      4          6           0       -3.794141   -0.168387    0.022280
      5          6           0       -3.197406   -1.325416    0.520759
      6          6           0       -2.036576   -1.191685    1.288312
      7          1           0       -0.593691    0.167322    2.141248
      8          1           0       -1.700080    2.198323    1.226715
      9          1           0       -3.781425    1.973021   -0.150720
     10          1           0       -3.637406   -2.292021    0.307469
     11          1           0       -1.555591   -2.080631    1.686399
     12          7           0       -5.023486   -0.297339   -0.791651
     13          8           0       -5.457018   -1.430802   -0.986455
     14          8           0       -5.530236    0.737493   -1.219393
     15          6           0        5.320986    0.213956   -0.442812
     16          6           0        6.153871   -0.987150    0.006223
     17          6           0        7.599666   -0.921497   -0.486890
     18          1           0        5.333489    0.271205   -1.539858
     19          1           0        5.792858    1.136127   -0.076297
     20          1           0        5.679814   -1.906864   -0.359856
     21          1           0        6.139227   -1.041658    1.102320
     22          1           0        8.094603   -0.020495   -0.110283
     23          1           0        7.632580   -0.890617   -1.580767
     24          1           0        8.177035   -1.789835   -0.154483
     25          6           0        3.873331    0.162708    0.042364
     26          6           0        3.040446    1.363815   -0.406671
     27          6           0        1.594651    1.298162    0.086442
     28          1           0        3.401459   -0.759463   -0.324152
     29          1           0        3.860829    0.105460    1.139410
     30          1           0        3.055091    1.418323   -1.502769
     31          1           0        3.514502    2.283529   -0.040593
     32          1           0        1.561737    1.267282    1.180319
     33          1           0        1.099714    0.397160   -0.290165
     34          1           0        1.017282    2.166499   -0.245966
 ---------------------------------------------------------------------

 SCF Done:  E(RHF) =  -669.535231611     A.U. after   15 cycles
 E2 =    -0.2091666597D+01 EUMP2 =    -0.67162689820767D+03

 The electronic state is 1-A.
 Alpha  occ. eigenvalues --  -20.60714 -20.60709 -15.85769 -11.31113 -11.27699
 Alpha  occ. eigenvalues --  -11.27686 -11.27395 -11.26691 -11.26671 -11.22299
 Alpha  occ. eigenvalues --  -11.22056 -11.22037 -11.22016 -11.21881 -11.21442
 Alpha  occ. eigenvalues --   -1.59791  -1.39345  -1.19292  -1.09026  -1.08684
 Alpha  occ. eigenvalues --   -1.04695  -1.04142  -0.96620  -0.95517  -0.87642
 Alpha  occ. eigenvalues --   -0.86084  -0.82358  -0.80219  -0.78823  -0.77408
 Alpha  occ. eigenvalues --   -0.71987  -0.71115  -0.70395  -0.65650  -0.64941
 Alpha  occ. eigenvalues --   -0.64695  -0.62047  -0.61535  -0.59984  -0.58228
 Alpha  occ. eigenvalues --   -0.55922  -0.55197  -0.53431  -0.53130  -0.52787
 Alpha  occ. eigenvalues --   -0.52769  -0.50548  -0.48748  -0.48743  -0.48514
 Alpha  occ. eigenvalues --   -0.47233  -0.46371  -0.46276  -0.44756  -0.44392
 Alpha  occ. eigenvalues --   -0.37213  -0.36299
 Alpha virt. eigenvalues --    0.05121   0.11298   0.16590   0.20466   0.22414
 Alpha virt. eigenvalues --    0.23877   0.25649   0.26436   0.26661   0.27476
 Alpha virt. eigenvalues --    0.28866   0.29776   0.31098   0.31607   0.32242

 Mulliken charges:
               1
     1  C   -0.166686
     2  C   -0.218102
     3  C   -0.171608
     4  C    0.158053
     5  C   -0.170862
     6  C   -0.221421
     7  H    0.228153
     8  H    0.223740
     9  H    0.275235
    10  H    0.275255
    11  H    0.223144
    12  N    0.488131
    13  O   -0.460781
    14  O   -0.460712
    15  C   -0.298654
    16  C   -0.299980
    17  C   -0.476017
    18  H    0.151473
    19  H    0.150355
    20  H    0.152241
    21  H    0.151386
    22  H    0.155689
    23  H    0.156237
    24  H    0.161265
    25  C   -0.298712
    26  C   -0.300793
    27  C   -0.477657
    28  H    0.149787
    29  H    0.147202
    30  H    0.155855
    31  H    0.152990
    32  H    0.144148
    33  H    0.161253
    34  H    0.160396
 Sum of Mulliken charges =  -0.00000

 Dipole moment (field-independent basis, Debye):
    X=              4.4833    Y=              0.4549    Z=              2.8053  Tot=              5.3081
 Quadrupole moment (field-independent basis, Debye-Ang):
   XX=           -129.1707   YY=            -89.7625   ZZ=            -94.7355
   XY=             -2.4817   XZ=            -10.5277   YZ=             -0.7513

 Normal termination of Gaussian 16 at Thu May  6 07:51:42 2021.
