 Gaussian 16, Revision A.03,
 Gaussian 16:  EM64L-G16RevA.03 25-Dec-2016

 -------------
 #p 6-31g* mp2
 -------------

 ------------------------------------------------------
 Input file generated by CHIRIPA (05-May-2021 14:51:09)
 ------------------------------------------------------
 Symbolic Z-matrix:
 Charge =  0 Multiplicity = 1

                         Standard orientation:
 ---------------------------------------------------------------------
 Center     Atomic      Atomic             Coordinates (Angstroms)
 Number     Number       Type             X           Y           Z
 ---------------------------------------------------------------------
      1          6           0       -1.876732   -0.281153   -1.076620
      2          6           0       -1.974822   -1.805691   -1.012230
      3          6           0       -1.184417   -2.496402   -2.123973
      4          1           0       -2.240337    0.062324   -2.054761
      5          1           0       -0.820198    0.014276   -1.014560
      6          1           0       -3.030959   -2.098091   -1.073001
      7          1           0       -1.611121   -2.145564   -0.034057
      8          1           0       -0.123398   -2.233548   -2.062754
      9          1           0       -1.551303   -2.185805   -3.107601
     10          1           0       -1.268366   -3.585711   -2.059021
     11          6           0       -2.661683    0.423623    0.028310
     12          6           0       -2.563593    1.948162   -0.036080
     13          6           0       -3.353998    2.638872    1.075663
     14          1           0       -3.718217    0.128194   -0.033750
     15          1           0       -2.298078    0.080146    1.006451
     16          1           0       -2.927294    2.288034   -1.014253
     17          1           0       -1.507456    2.240561    0.024691
     18          1           0       -2.987112    2.328276    2.059291
     19          1           0       -4.415017    2.376019    1.014444
     20          1           0       -3.270049    3.728181    1.010711
     21          6           0        2.926694    0.273431    0.344298
     22          6           0        2.864257    1.049653   -0.971592
     23          6           0        4.187172    1.733636   -1.317802
     24          1           0        3.209335    0.959625    1.154359
     25          1           0        3.724179   -0.479761    0.280157
     26          1           0        2.066210    1.800229   -0.905490
     27          1           0        2.581546    0.361570   -1.778582
     28          1           0        4.989914    0.995036   -1.410950
     29          1           0        4.471651    2.441870   -0.532897
     30          1           0        4.120124    2.282741   -2.262179
     31          6           0        1.611721   -0.415902    0.704011
     32          6           0        1.674157   -1.192123    2.019902
     33          6           0        0.351244   -1.876105    2.366112
     34          1           0        0.814236    0.337290    0.768153
     35          1           0        1.329079   -1.102095   -0.106049
     36          1           0        1.956870   -0.504041    2.826891
     37          1           0        2.472205   -1.942700    1.953800
     38          1           0        0.066765   -2.584341    1.581207
     39          1           0       -0.451500   -1.137508    2.459260
     40          1           0        0.418291   -2.425211    3.310489
 ---------------------------------------------------------------------

 SCF Done:  E(RHF) =  -470.731716740     A.U. after   11 cycles
 E2 =    -0.1586344809D+01 EUMP2 =    -0.47231806154906D+03

 The electronic state is 1-A.
 Alpha  occ. eigenvalues --  -11.21714 -11.21687 -11.21594 -11.21510 -11.21447
 Alpha  occ. eigenvalues --  -11.21441 -11.21313 -11.21179 -11.21162 -11.21128
 Alpha  occ. eigenvalues --  -11.21074 -11.21040  -1.08577  -1.08319  -1.03641
 Alpha  occ. eigenvalues --   -1.03469  -0.96090  -0.95928  -0.87107  -0.86947
 Alpha  occ. eigenvalues --   -0.79712  -0.79537  -0.78461  -0.78097  -0.65198
 Alpha  occ. eigenvalues --   -0.64993  -0.61153  -0.60790  -0.59426  -0.59302
 Alpha  occ. eigenvalues --   -0.57724  -0.57546  -0.55376  -0.55236  -0.52770
 Alpha  occ. eigenvalues --   -0.52676  -0.52537  -0.52341  -0.50143  -0.49792
 Alpha  occ. eigenvalues --   -0.48140  -0.47814  -0.46814  -0.46447  -0.46340
 Alpha  occ. eigenvalues --   -0.45794  -0.45538  -0.45096  -0.43882  -0.43706
 Alpha virt. eigenvalues --    0.19727   0.21947   0.22767   0.24160   0.25317
 Alpha virt. eigenvalues --    0.25978   0.26340   0.28316   0.28971   0.30231
 Alpha virt. eigenvalues --    0.30859   0.31280   0.31500   0.31797   0.32317

 Mulliken charges:
               1
     1  C   -0.303810
     2  C   -0.306665
     3  C   -0.478423
     4  H    0.148446
     5  H    0.158202
     6  H    0.151427
     7  H    0.159630
     8  H    0.155420
     9  H    0.155522
    10  H    0.159629
    11  C   -0.302791
    12  C   -0.300647
    13  C   -0.475475
    14  H    0.149599
    15  H    0.152688
    16  H    0.152407
    17  H    0.151081
    18  H    0.154467
    19  H    0.155521
    20  H    0.160096
    21  C   -0.297712
    22  C   -0.300995
    23  C   -0.475669
    24  H    0.149934
    25  H    0.149899
    26  H    0.152164
    27  H    0.152204
    28  H    0.155445
    29  H    0.155373
    30  H    0.160775
    31  C   -0.307873
    32  C   -0.298988
    33  C   -0.482956
    34  H    0.153567
    35  H    0.155169
    36  H    0.152254
    37  H    0.152436
    38  H    0.159316
    39  H    0.157989
    40  H    0.161344
 Sum of Mulliken charges =  -0.00000

 Dipole moment (field-independent basis, Debye):
    X=              0.0728    Y=             -0.0079    Z=              0.0383  Tot=              0.0827
 Quadrupole moment (field-independent basis, Debye-Ang):
   XX=            -85.0819   YY=            -84.8324   ZZ=            -84.8953
   XY=             -0.4306   XZ=              1.0276   YZ=              0.0287

 Normal termination of Gaussian 16 at Wed May  5 15:08:04 2021.
