 Gaussian 16, Revision A.03,
 Gaussian 16:  EM64L-G16RevA.03 25-Dec-2016

 -------------
 #p 6-31g* mp2
 -------------

 ------------------------------------------------------
 Input file generated by CHIRIPA (05-May-2021 14:51:11)
 ------------------------------------------------------
 Symbolic Z-matrix:
 Charge =  0 Multiplicity = 1

                         Standard orientation:
 ---------------------------------------------------------------------
 Center     Atomic      Atomic             Coordinates (Angstroms)
 Number     Number       Type             X           Y           Z
 ---------------------------------------------------------------------
      1          6           0        3.356319    0.481463   -0.316994
      2          6           0        3.644792    1.967664   -0.102576
      3          6           0        2.459599    2.859463   -0.473797
      4          1           0        3.085605    0.315016   -1.368638
      5          1           0        2.479658    0.195330    0.280491
      6          1           0        4.521485    2.250591   -0.699215
      7          1           0        3.915037    2.130563    0.948637
      8          1           0        1.582428    2.605584    0.130122
      9          1           0        2.192322    2.726294   -1.527092
     10          1           0        2.687567    3.917752   -0.312814
     11          6           0        4.531679   -0.422857    0.049696
     12          6           0        4.243206   -1.909058   -0.164722
     13          6           0        5.428400   -2.800856    0.206499
     14          1           0        5.408340   -0.136723   -0.547789
     15          1           0        4.802393   -0.256409    1.101340
     16          1           0        3.972961   -2.071956   -1.215935
     17          1           0        3.366513   -2.191984    0.431917
     18          1           0        5.695676   -2.667687    1.259794
     19          1           0        6.305570   -2.546977   -0.397421
     20          1           0        5.200431   -3.859145    0.045516
     21          6           0       -3.478710    0.540001    0.340607
     22          6           0       -2.001754    0.144333    0.346407
     23          6           0       -1.083443    1.293832    0.762522
     24          1           0       -3.621334    1.390109   -0.340509
     25          1           0       -3.760864    0.891600    1.342685
     26          1           0       -1.722822   -0.207721   -0.655028
     27          1           0       -1.862662   -0.705055    1.027442
     28          1           0       -1.333462    1.641203    1.770205
     29          1           0       -1.192827    2.141362    0.078176
     30          1           0       -0.032270    0.989059    0.759801
     31          6           0       -4.409289   -0.598606   -0.073309
     32          6           0       -5.886245   -0.202940   -0.079109
     33          6           0       -6.804555   -1.352439   -0.495224
     34          1           0       -4.127134   -0.950207   -1.075387
     35          1           0       -4.266664   -1.448715    0.607807
     36          1           0       -6.025337    0.646448   -0.760144
     37          1           0       -6.165177    0.149114    0.922326
     38          1           0       -6.695171   -2.199969    0.189122
     39          1           0       -6.554536   -1.699810   -1.502907
     40          1           0       -7.855729   -1.047666   -0.492502
 ---------------------------------------------------------------------

 SCF Done:  E(RHF) =  -470.732808192     A.U. after   11 cycles
 E2 =    -0.1582927995D+01 EUMP2 =    -0.47231573618648D+03

 The electronic state is 1-A.
 Alpha  occ. eigenvalues --  -11.21612 -11.21603 -11.21597 -11.21554 -11.21409
 Alpha  occ. eigenvalues --  -11.21402 -11.21350 -11.21343 -11.21080 -11.21072
 Alpha  occ. eigenvalues --  -11.21067 -11.20921  -1.08440  -1.08411  -1.03555
 Alpha  occ. eigenvalues --   -1.03483  -0.96021  -0.95920  -0.87060  -0.86921
 Alpha  occ. eigenvalues --   -0.79668  -0.79503  -0.78256  -0.78223  -0.65073
 Alpha  occ. eigenvalues --   -0.65049  -0.60977  -0.60892  -0.59471  -0.59217
 Alpha  occ. eigenvalues --   -0.57623  -0.57535  -0.55340  -0.55184  -0.52794
 Alpha  occ. eigenvalues --   -0.52633  -0.52423  -0.52295  -0.49994  -0.49811
 Alpha  occ. eigenvalues --   -0.47952  -0.47841  -0.46665  -0.46549  -0.45791
 Alpha  occ. eigenvalues --   -0.45767  -0.45716  -0.45690  -0.43769  -0.43702
 Alpha virt. eigenvalues --    0.21559   0.23025   0.23576   0.24884   0.26060
 Alpha virt. eigenvalues --    0.26602   0.27128   0.27217   0.27899   0.29027
 Alpha virt. eigenvalues --    0.30596   0.30883   0.31514   0.31858   0.31998

 Mulliken charges:
               1
     1  C   -0.302226
     2  C   -0.299430
     3  C   -0.482932
     4  H    0.149739
     5  H    0.152104
     6  H    0.151642
     7  H    0.151554
     8  H    0.165124
     9  H    0.154066
    10  H    0.159476
    11  C   -0.298079
    12  C   -0.299658
    13  C   -0.475705
    14  H    0.149749
    15  H    0.149652
    16  H    0.151940
    17  H    0.151861
    18  H    0.155175
    19  H    0.155196
    20  H    0.160241
    21  C   -0.298772
    22  C   -0.299244
    23  C   -0.482846
    24  H    0.149878
    25  H    0.149469
    26  H    0.152590
    27  H    0.151573
    28  H    0.155007
    29  H    0.156986
    30  H    0.165736
    31  C   -0.298277
    32  C   -0.299635
    33  C   -0.475703
    34  H    0.149605
    35  H    0.149605
    36  H    0.151995
    37  H    0.151912
    38  H    0.155161
    39  H    0.155204
    40  H    0.160267
 Sum of Mulliken charges =  -0.00000

 Dipole moment (field-independent basis, Debye):
    X=             -0.0286    Y=             -0.0028    Z=              0.0044  Tot=              0.0291
 Quadrupole moment (field-independent basis, Debye-Ang):
   XX=            -85.9923   YY=            -85.8962   ZZ=            -83.0197
   XY=             -0.0181   XZ=             -0.7786   YZ=             -0.3584

 Normal termination of Gaussian 16 at Wed May  5 16:43:51 2021.
