 Gaussian 16, Revision A.03,
 Gaussian 16:  EM64L-G16RevA.03 25-Dec-2016

 -------------
 #p 6-31g* mp2
 -------------

 ------------------------------------------------------
 Input file generated by CHIRIPA (05-May-2021 14:55:22)
 ------------------------------------------------------
 Symbolic Z-matrix:
 Charge =  0 Multiplicity = 1

                         Standard orientation:
 ---------------------------------------------------------------------
 Center     Atomic      Atomic             Coordinates (Angstroms)
 Number     Number       Type             X           Y           Z
 ---------------------------------------------------------------------
      1          6           0        4.081213   -2.339627   -0.118068
      2          6           0        3.914707   -1.586837   -1.285160
      3          6           0        3.453110   -0.268792   -1.220094
      4          6           0        3.166321    0.267292    0.034360
      5          6           0        3.321933   -0.457216    1.215107
      6          6           0        3.784818   -1.773413    1.126147
      7          1           0        4.440292   -3.362798   -0.177894
      8          1           0        4.144103   -2.023973   -2.252804
      9          1           0        3.315134    0.336507   -2.107784
     10          1           0        3.084959    0.005878    2.165267
     11          1           0        3.913178   -2.355680    2.034185
     12          7           0        2.676967    1.661668    0.115891
     13          8           0        2.431314    2.110879    1.233254
     14          8           0        2.548332    2.278967   -0.939113
     15          6           0       -4.858561    0.053103   -0.309265
     16          6           0       -5.930068   -0.750907    0.427908
     17          6           0       -7.330041   -0.538186   -0.148825
     18          1           0       -5.115917    1.120299   -0.266781
     19          1           0       -4.865134   -0.227964   -1.371505
     20          1           0       -5.920542   -0.469413    1.488703
     21          1           0       -5.670032   -1.816297    0.383828
     22          1           0       -7.362529   -0.837124   -1.201527
     23          1           0       -7.614463    0.517411   -0.090373
     24          1           0       -8.080466   -1.122246    0.393021
     25          6           0       -3.453687   -0.149056    0.255703
     26          6           0       -2.382180    0.654955   -0.481471
     27          6           0       -0.982207    0.442234    0.095261
     28          1           0       -3.447115    0.132010    1.317942
     29          1           0       -3.196331   -1.216252    0.213217
     30          1           0       -2.642216    1.720344   -0.437390
     31          1           0       -2.391707    0.373461   -1.542266
     32          1           0       -0.697785   -0.613364    0.036810
     33          1           0       -0.949719    0.741172    1.147963
     34          1           0       -0.231782    1.026293   -0.446584
 ---------------------------------------------------------------------

 SCF Done:  E(RHF) =  -669.536090571     A.U. after   15 cycles
 E2 =    -0.2091378090D+01 EUMP2 =    -0.67162746866127D+03

 The electronic state is 1-A.
 Alpha  occ. eigenvalues --  -20.60817 -20.60805 -15.85840 -11.31182 -11.27750
 Alpha  occ. eigenvalues --  -11.27746 -11.27497 -11.26766 -11.26756 -11.21407
 Alpha  occ. eigenvalues --  -11.21164 -11.21125 -11.21043 -11.20904 -11.20543
 Alpha  occ. eigenvalues --   -1.59876  -1.39431  -1.19353  -1.08757  -1.08126
 Alpha  occ. eigenvalues --   -1.04755  -1.03203  -0.95657  -0.95597  -0.86681
 Alpha  occ. eigenvalues --   -0.86155  -0.82432  -0.79280  -0.77939  -0.77481
 Alpha  occ. eigenvalues --   -0.72070  -0.71201  -0.70468  -0.65011  -0.64763
 Alpha  occ. eigenvalues --   -0.64758  -0.62105  -0.60598  -0.59020  -0.57256
 Alpha  occ. eigenvalues --   -0.55264  -0.54945  -0.53085  -0.52851  -0.52337
 Alpha  occ. eigenvalues --   -0.52079  -0.49601  -0.48831  -0.48826  -0.47592
 Alpha  occ. eigenvalues --   -0.46311  -0.45485  -0.45407  -0.44820  -0.43461
 Alpha  occ. eigenvalues --   -0.37327  -0.36354
 Alpha virt. eigenvalues --    0.05046   0.11290   0.16525   0.21414   0.23162
 Alpha virt. eigenvalues --    0.24632   0.26942   0.27325   0.27798   0.28008
 Alpha virt. eigenvalues --    0.28471   0.30835   0.31710   0.32030   0.32121

 Mulliken charges:
               1
     1  C   -0.170768
     2  C   -0.218693
     3  C   -0.171255
     4  C    0.159313
     5  C   -0.170225
     6  C   -0.218774
     7  H    0.225491
     8  H    0.223327
     9  H    0.275527
    10  H    0.275691
    11  H    0.223394
    12  N    0.489118
    13  O   -0.458511
    14  O   -0.460968
    15  C   -0.298087
    16  C   -0.299327
    17  C   -0.475540
    18  H    0.150764
    19  H    0.148656
    20  H    0.151920
    21  H    0.150494
    22  H    0.154665
    23  H    0.155677
    24  H    0.159346
    25  C   -0.298102
    26  C   -0.298832
    27  C   -0.482949
    28  H    0.149785
    29  H    0.146742
    30  H    0.155898
    31  H    0.149865
    32  H    0.148626
    33  H    0.159936
    34  H    0.167797
 Sum of Mulliken charges =  -0.00000

 Dipole moment (field-independent basis, Debye):
    X=              1.8068    Y=             -4.8357    Z=             -0.2577  Tot=              5.1687
 Quadrupole moment (field-independent basis, Debye-Ang):
   XX=            -86.0835   YY=            -97.3683   ZZ=            -89.4842
   XY=            -15.6047   XZ=             -1.5779   YZ=             -0.1199

 Normal termination of Gaussian 16 at Thu May  6 12:31:59 2021.
