 Gaussian 16, Revision A.03,
 Gaussian 16:  EM64L-G16RevA.03 25-Dec-2016

 -------------
 #p 6-31g* mp2
 -------------

 ------------------------------------------------------
 Input file generated by CHIRIPA (05-May-2021 14:57:26)
 ------------------------------------------------------
 Symbolic Z-matrix:
 Charge =  0 Multiplicity = 1

                         Standard orientation:
 ---------------------------------------------------------------------
 Center     Atomic      Atomic             Coordinates (Angstroms)
 Number     Number       Type             X           Y           Z
 ---------------------------------------------------------------------
      1          6           0       -3.573298   -2.400839   -0.042647
      2          6           0       -4.712094   -1.735216   -0.508061
      3          6           0       -4.752411   -0.338244   -0.545366
      4          6           0       -3.631047    0.364794   -0.107679
      5          6           0       -2.481758   -0.269507    0.361454
      6          6           0       -2.463720   -1.667154    0.389862
      7          1           0       -3.550632   -3.486302   -0.017123
      8          1           0       -5.575274   -2.302421   -0.844579
      9          1           0       -5.621078    0.202538   -0.900882
     10          1           0       -1.636759    0.323150    0.690318
     11          1           0       -1.577958   -2.181415    0.751811
     12          7           0       -3.661936    1.844062   -0.142463
     13          8           0       -2.660959    2.440442    0.248707
     14          8           0       -4.686538    2.379124   -0.560239
     15          6           0        5.711480    0.581311   -1.132266
     16          6           0        4.860633   -0.380714   -1.686420
     17          6           0        3.702377   -0.777453   -1.011445
     18          6           0        3.424335   -0.188888    0.221266
     19          6           0        4.252256    0.772110    0.799467
     20          6           0        5.405117    1.153644    0.106724
     21          1           0        6.609145    0.883602   -1.663506
     22          1           0        5.096043   -0.826892   -2.648476
     23          1           0        3.026209   -1.520007   -1.417434
     24          1           0        3.991084    1.199015    1.760175
     25          1           0        6.064065    1.900999    0.539498
     26          7           0        2.200998   -0.600849    0.945237
     27          8           0        1.978420   -0.067238    2.029835
     28          8           0        1.487889   -1.449555    0.414378
 ---------------------------------------------------------------------

 SCF Done:  E(RHF) =  -868.340758504     A.U. after   16 cycles
 E2 =    -0.2598403725D+01 EUMP2 =    -0.87093916222851D+03

 The electronic state is 1-A.
 Alpha  occ. eigenvalues --  -20.61539 -20.61509 -20.59942 -20.59930 -15.86535
 Alpha  occ. eigenvalues --  -15.84979 -11.31580 -11.30135 -11.28129 -11.28093
 Alpha  occ. eigenvalues --  -11.27806 -11.27069 -11.27043 -11.26745 -11.26513
 Alpha  occ. eigenvalues --  -11.26386 -11.25765 -11.25415  -1.60583  -1.59018
 Alpha  occ. eigenvalues --   -1.40141  -1.38576  -1.19724  -1.18278  -1.09183
 Alpha  occ. eigenvalues --   -1.07728  -1.05081  -1.03608  -0.96070  -0.94595
 Alpha  occ. eigenvalues --   -0.86495  -0.85034  -0.82915  -0.81402  -0.77993
 Alpha  occ. eigenvalues --   -0.76468  -0.72771  -0.71871  -0.71205  -0.70834
 Alpha  occ. eigenvalues --   -0.70338  -0.69406  -0.65384  -0.65085  -0.63915
 Alpha  occ. eigenvalues --   -0.63579  -0.62432  -0.60927  -0.55600  -0.54176
 Alpha  occ. eigenvalues --   -0.53423  -0.53172  -0.52009  -0.51665  -0.49542
 Alpha  occ. eigenvalues --   -0.49500  -0.47968  -0.47942  -0.45610  -0.44027
 Alpha  occ. eigenvalues --   -0.37686  -0.36665  -0.36298  -0.35209
 Alpha virt. eigenvalues --    0.04513   0.06002   0.10994   0.12421   0.16072
 Alpha virt. eigenvalues --    0.17545   0.21138   0.22628   0.27078   0.27948
 Alpha virt. eigenvalues --    0.28727   0.29348   0.30764   0.32049   0.32337

 Mulliken charges:
               1
     1  C   -0.172813
     2  C   -0.219007
     3  C   -0.173629
     4  C    0.157403
     5  C   -0.173516
     6  C   -0.223256
     7  H    0.222456
     8  H    0.218742
     9  H    0.271392
    10  H    0.282353
    11  H    0.244327
    12  N    0.487971
    13  O   -0.461001
    14  O   -0.464705
    15  C   -0.169467
    16  C   -0.218434
    17  C   -0.170061
    18  C    0.158087
    19  C   -0.169230
    20  C   -0.218433
    21  H    0.227441
    22  H    0.224550
    23  H    0.274369
    24  H    0.277421
    25  H    0.225619
    26  N    0.490004
    27  O   -0.457048
    28  O   -0.471534
 Sum of Mulliken charges =  -0.00000

 Dipole moment (field-independent basis, Debye):
    X=              5.0113    Y=             -3.7501    Z=             -2.3218  Tot=              6.6759
 Quadrupole moment (field-independent basis, Debye-Ang):
   XX=            -72.8857   YY=           -108.5339   ZZ=           -103.4752
   XY=             24.7422   XZ=             -5.8656   YZ=              4.1853

 Normal termination of Gaussian 16 at Thu May  6 22:57:14 2021.
