 Gaussian 16, Revision A.03,
 Gaussian 16:  EM64L-G16RevA.03 25-Dec-2016

 -------------
 #p 6-31g* mp2
 -------------

 ------------------------------------------------------
 Input file generated by CHIRIPA (05-May-2021 14:57:23)
 ------------------------------------------------------
 Symbolic Z-matrix:
 Charge =  0 Multiplicity = 1

                         Standard orientation:
 ---------------------------------------------------------------------
 Center     Atomic      Atomic             Coordinates (Angstroms)
 Number     Number       Type             X           Y           Z
 ---------------------------------------------------------------------
      1          6           0       -3.471385    2.098681    1.250599
      2          6           0       -2.834387    2.039887    0.006694
      3          6           0       -2.693799    0.820237   -0.662063
      4          6           0       -3.204294   -0.326197   -0.055125
      5          6           0       -3.843943   -0.300067    1.183203
      6          6           0       -3.973245    0.930576    1.833855
      7          1           0       -3.576214    3.050405    1.763073
      8          1           0       -2.443667    2.945446   -0.448658
      9          1           0       -2.205061    0.746090   -1.625938
     10          1           0       -4.223219   -1.219708    1.611953
     11          1           0       -4.468408    0.973235    2.799794
     12          7           0       -3.061434   -1.623205   -0.753525
     13          8           0       -3.519803   -2.618917   -0.197564
     14          8           0       -2.493796   -1.619529   -1.843667
     15          6           0        1.457462    1.485337   -1.220509
     16          6           0        1.142211    0.219887   -0.714766
     17          6           0        2.115160   -0.549583   -0.069913
     18          6           0        3.398993   -0.020292    0.052216
     19          6           0        3.743987    1.237054   -0.441088
     20          6           0        2.755056    1.988993   -1.082300
     21          1           0        0.695445    2.076270   -1.720032
     22          1           0        0.135315   -0.173801   -0.820661
     23          1           0        1.898370   -1.532297    0.330952
     24          1           0        4.756475    1.602717   -0.320352
     25          1           0        3.002741    2.971438   -1.474089
     26          7           0        4.437470   -0.825616    0.732966
     27          8           0        5.561130   -0.336697    0.827749
     28          8           0        4.108105   -1.930499    1.158864
 ---------------------------------------------------------------------

 SCF Done:  E(RHF) =  -868.337449489     A.U. after   16 cycles
 E2 =    -0.2601178087D+01 EUMP2 =    -0.87093862757542D+03

 The electronic state is 1-A.
 Alpha  occ. eigenvalues --  -20.61794 -20.61760 -20.60671 -20.60659 -15.86802
 Alpha  occ. eigenvalues --  -15.85719 -11.32178 -11.31118 -11.28814 -11.28646
 Alpha  occ. eigenvalues --  -11.28389 -11.27779 -11.27698 -11.27643 -11.27614
 Alpha  occ. eigenvalues --  -11.27523 -11.26784 -11.26629  -1.60839  -1.59742
 Alpha  occ. eigenvalues --   -1.40394  -1.39294  -1.20330  -1.19292  -1.09706
 Alpha  occ. eigenvalues --   -1.08708  -1.05735  -1.04681  -0.96548  -0.95536
 Alpha  occ. eigenvalues --   -0.87133  -0.86096  -0.83379  -0.82350  -0.78456
 Alpha  occ. eigenvalues --   -0.77371  -0.73007  -0.72170  -0.71939  -0.71418
 Alpha  occ. eigenvalues --   -0.71064  -0.70467  -0.65972  -0.65741  -0.64951
 Alpha  occ. eigenvalues --   -0.64700  -0.63082  -0.62001  -0.56178  -0.55286
 Alpha  occ. eigenvalues --   -0.54066  -0.53819  -0.53024  -0.52743  -0.49788
 Alpha  occ. eigenvalues --   -0.49761  -0.48702  -0.48689  -0.45773  -0.44691
 Alpha  occ. eigenvalues --   -0.38266  -0.37469  -0.37180  -0.36252
 Alpha virt. eigenvalues --    0.04056   0.05138   0.10179   0.11373   0.15563
 Alpha virt. eigenvalues --    0.16612   0.19133   0.21952   0.25233   0.26796
 Alpha virt. eigenvalues --    0.27557   0.29454   0.29992   0.31542   0.31742

 Mulliken charges:
               1
     1  C   -0.169708
     2  C   -0.215894
     3  C   -0.181499
     4  C    0.160000
     5  C   -0.169647
     6  C   -0.216964
     7  H    0.229324
     8  H    0.221904
     9  H    0.270445
    10  H    0.279127
    11  H    0.227962
    12  N    0.487473
    13  O   -0.453045
    14  O   -0.463667
    15  C   -0.172870
    16  C   -0.219840
    17  C   -0.172184
    18  C    0.159119
    19  C   -0.171908
    20  C   -0.218139
    21  H    0.215163
    22  H    0.231234
    23  H    0.279204
    24  H    0.275091
    25  H    0.221451
    26  N    0.487844
    27  O   -0.461283
    28  O   -0.458691
 Sum of Mulliken charges =  -0.00000

 Dipole moment (field-independent basis, Debye):
    X=             -4.4655    Y=              7.2722    Z=              0.3087  Tot=              8.5394
 Quadrupole moment (field-independent basis, Debye-Ang):
   XX=           -123.0780   YY=           -104.7930   ZZ=           -103.3959
   XY=             -0.9595   XZ=            -19.5776   YZ=             -3.2277

 Normal termination of Gaussian 16 at Thu May  6 17:57:22 2021.
