 Gaussian 16, Revision A.03,
 Gaussian 16:  EM64L-G16RevA.03 25-Dec-2016

 -------------
 #p 6-31g* mp2
 -------------

 ------------------------------------------------------
 Input file generated by CHIRIPA (05-May-2021 14:51:08)
 ------------------------------------------------------
 Symbolic Z-matrix:
 Charge =  0 Multiplicity = 1

                         Standard orientation:
 ---------------------------------------------------------------------
 Center     Atomic      Atomic             Coordinates (Angstroms)
 Number     Number       Type             X           Y           Z
 ---------------------------------------------------------------------
      1          6           0        4.281146   -0.480744    0.280850
      2          6           0        5.032522   -1.495195   -0.581883
      3          6           0        5.634766   -2.636994    0.237503
      4          1           0        4.967035   -0.070816    1.034813
      5          1           0        3.483683   -0.998015    0.832103
      6          1           0        5.827446   -0.975922   -1.132399
      7          1           0        4.344814   -1.902615   -1.334002
      8          1           0        4.850985   -3.180709    0.774775
      9          1           0        6.342041   -2.248751    0.977524
     10          1           0        6.167289   -3.350509   -0.399030
     11          6           0        3.673397    0.666695   -0.523980
     12          6           0        2.922021    1.681146    0.338753
     13          6           0        2.319777    2.822945   -0.480633
     14          1           0        4.470860    1.183966   -1.075233
     15          1           0        2.987508    0.256767   -1.277943
     16          1           0        3.609729    2.088566    1.090872
     17          1           0        2.127097    1.161874    0.889269
     18          1           0        1.612502    2.434702   -1.220654
     19          1           0        3.103558    3.366660   -1.017905
     20          1           0        1.787253    3.536460    0.155900
     21          6           0       -4.580687   -0.154278   -0.342723
     22          6           0       -5.745861   -0.927210    0.276092
     23          6           0       -6.945604   -1.041398   -0.664849
     24          1           0       -4.924138    0.850404   -0.624859
     25          1           0       -4.272449   -0.651847   -1.272674
     26          1           0       -6.050905   -0.429115    1.205321
     27          1           0       -5.399546   -1.930102    0.556963
     28          1           0       -6.663393   -1.557893   -1.587992
     29          1           0       -7.318452   -0.048377   -0.935949
     30          1           0       -7.766985   -1.597589   -0.202416
     31          6           0       -3.373855   -0.031673    0.585853
     32          6           0       -2.208682    0.741258   -0.032963
     33          6           0       -1.008939    0.855447    0.907980
     34          1           0       -3.682094    0.465896    1.515805
     35          1           0       -3.030405   -1.036355    0.867989
     36          1           0       -2.554996    1.744152   -0.313832
     37          1           0       -1.903637    0.243164   -0.962191
     38          1           0       -0.636091   -0.137574    1.179079
     39          1           0       -1.291150    1.371941    1.831122
     40          1           0       -0.187558    1.411638    0.445547
 ---------------------------------------------------------------------

 SCF Done:  E(RHF) =  -470.732821527     A.U. after   11 cycles
 E2 =    -0.1582996443D+01 EUMP2 =    -0.47231581796943D+03

 The electronic state is 1-A.
 Alpha  occ. eigenvalues --  -11.21615 -11.21609 -11.21588 -11.21525 -11.21414
 Alpha  occ. eigenvalues --  -11.21379 -11.21354 -11.21319 -11.21084 -11.21077
 Alpha  occ. eigenvalues --  -11.21062 -11.21042  -1.08445  -1.08402  -1.03577
 Alpha  occ. eigenvalues --   -1.03484  -0.96045  -0.95923  -0.87023  -0.86978
 Alpha  occ. eigenvalues --   -0.79646  -0.79539  -0.78260  -0.78208  -0.65090
 Alpha  occ. eigenvalues --   -0.65047  -0.61069  -0.60923  -0.59448  -0.59192
 Alpha  occ. eigenvalues --   -0.57659  -0.57510  -0.55290  -0.55264  -0.52709
 Alpha  occ. eigenvalues --   -0.52595  -0.52397  -0.52389  -0.49966  -0.49885
 Alpha  occ. eigenvalues --   -0.47932  -0.47868  -0.46678  -0.46573  -0.45804
 Alpha  occ. eigenvalues --   -0.45757  -0.45726  -0.45672  -0.43784  -0.43721
 Alpha virt. eigenvalues --    0.21507   0.23074   0.23629   0.25175   0.26257
 Alpha virt. eigenvalues --    0.26712   0.26932   0.27499   0.27808   0.28910
 Alpha virt. eigenvalues --    0.31086   0.31370   0.31494   0.31749   0.32166

 Mulliken charges:
               1
     1  C   -0.298332
     2  C   -0.299629
     3  C   -0.475677
     4  H    0.149656
     5  H    0.149681
     6  H    0.151898
     7  H    0.151794
     8  H    0.155099
     9  H    0.155201
    10  H    0.160168
    11  C   -0.297702
    12  C   -0.306163
    13  C   -0.478676
    14  H    0.149314
    15  H    0.149266
    16  H    0.151993
    17  H    0.158918
    18  H    0.154779
    19  H    0.156386
    20  H    0.160756
    21  C   -0.298241
    22  C   -0.299620
    23  C   -0.475702
    24  H    0.149712
    25  H    0.149431
    26  H    0.151958
    27  H    0.151898
    28  H    0.155164
    29  H    0.155214
    30  H    0.160274
    31  C   -0.298550
    32  C   -0.299208
    33  C   -0.485042
    34  H    0.149600
    35  H    0.149486
    36  H    0.152165
    37  H    0.151333
    38  H    0.153868
    39  H    0.155234
    40  H    0.172298
 Sum of Mulliken charges =  -0.00000

 Dipole moment (field-independent basis, Debye):
    X=             -0.0015    Y=              0.0166    Z=              0.0089  Tot=              0.0189
 Quadrupole moment (field-independent basis, Debye-Ang):
   XX=            -85.1215   YY=            -84.5360   ZZ=            -85.1850
   XY=              0.4055   XZ=             -0.7669   YZ=              0.7300

 Normal termination of Gaussian 16 at Wed May  5 22:55:23 2021.
