 Gaussian 16, Revision A.03,
 Gaussian 16:  EM64L-G16RevA.03 25-Dec-2016

 -------------
 #p 6-31g* mp2
 -------------

 ------------------------------------------------------
 Input file generated by CHIRIPA (05-May-2021 14:57:26)
 ------------------------------------------------------
 Symbolic Z-matrix:
 Charge =  0 Multiplicity = 1

                         Standard orientation:
 ---------------------------------------------------------------------
 Center     Atomic      Atomic             Coordinates (Angstroms)
 Number     Number       Type             X           Y           Z
 ---------------------------------------------------------------------
      1          6           0       -1.751803   -1.159730   -0.074376
      2          6           0       -1.967752    0.194068    0.203326
      3          6           0       -3.263530    0.718854    0.213610
      4          6           0       -4.325013   -0.142548   -0.059393
      5          6           0       -4.142203   -1.495815   -0.339641
      6          6           0       -2.837804   -1.998871   -0.344497
      7          1           0       -0.741863   -1.558956   -0.080257
      8          1           0       -1.126248    0.848101    0.413464
      9          1           0       -3.459252    1.762997    0.425451
     10          1           0       -5.001061   -2.123087   -0.545341
     11          1           0       -2.673087   -3.050660   -0.560494
     12          7           0       -5.701359    0.401517   -0.051378
     13          8           0       -6.619637   -0.378234   -0.295083
     14          8           0       -5.835800    1.597404    0.198456
     15          6           0        1.992218    1.589792    0.357135
     16          6           0        3.040412    2.085657   -0.425123
     17          6           0        4.211889    1.342090   -0.596302
     18          6           0        4.301770    0.100972    0.032057
     19          6           0        3.274853   -0.420219    0.817609
     20          6           0        2.112572    0.340638    0.974914
     21          1           0        1.085760    2.174127    0.484722
     22          1           0        2.949722    3.055446   -0.906087
     23          1           0        5.038741    1.702018   -1.196455
     24          1           0        3.394524   -1.390310    1.284536
     25          1           0        1.300142   -0.046968    1.582997
     26          7           0        5.537093   -0.695361   -0.141820
     27          8           0        5.591570   -1.785955    0.422337
     28          8           0        6.427470   -0.213854   -0.838968
 ---------------------------------------------------------------------

 SCF Done:  E(RHF) =  -868.336547776     A.U. after   16 cycles
 E2 =    -0.2600526186D+01 EUMP2 =    -0.87093707396153D+03

 The electronic state is 1-A.
 Alpha  occ. eigenvalues --  -20.61491 -20.61480 -20.61293 -20.61283 -15.86549
 Alpha  occ. eigenvalues --  -15.86351 -11.32095 -11.31831 -11.28730 -11.28647
 Alpha  occ. eigenvalues --  -11.28560 -11.28482 -11.28387 -11.28213 -11.27848
 Alpha  occ. eigenvalues --  -11.27698 -11.27593 -11.27403  -1.60560  -1.60364
 Alpha  occ. eigenvalues --   -1.40108  -1.39914  -1.20302  -1.20031  -1.09685
 Alpha  occ. eigenvalues --   -1.09405  -1.05729  -1.05464  -0.96482  -0.96215
 Alpha  occ. eigenvalues --   -0.87151  -0.86845  -0.83309  -0.83050  -0.78308
 Alpha  occ. eigenvalues --   -0.78078  -0.72764  -0.72567  -0.71886  -0.71689
 Alpha  occ. eigenvalues --   -0.71474  -0.71138  -0.66010  -0.65867  -0.65677
 Alpha  occ. eigenvalues --   -0.65358  -0.63080  -0.62784  -0.56337  -0.55925
 Alpha  occ. eigenvalues --   -0.54055  -0.53847  -0.53748  -0.53543  -0.49538
 Alpha  occ. eigenvalues --   -0.49506  -0.49335  -0.49313  -0.45473  -0.45294
 Alpha  occ. eigenvalues --   -0.38315  -0.38014  -0.37325  -0.37064
 Alpha virt. eigenvalues --    0.04215   0.04477   0.10190   0.10541   0.15584
 Alpha virt. eigenvalues --    0.15929   0.17927   0.22163   0.24574   0.25472
 Alpha virt. eigenvalues --    0.27919   0.28731   0.29872   0.31172   0.31944

 Mulliken charges:
               1
     1  C   -0.173512
     2  C   -0.221001
     3  C   -0.171176
     4  C    0.159207
     5  C   -0.169599
     6  C   -0.218108
     7  H    0.226442
     8  H    0.215062
     9  H    0.275584
    10  H    0.278130
    11  H    0.226756
    12  N    0.488067
    13  O   -0.458179
    14  O   -0.459987
    15  C   -0.173437
    16  C   -0.217460
    17  C   -0.169224
    18  C    0.159514
    19  C   -0.170913
    20  C   -0.225103
    21  H    0.222457
    22  H    0.227571
    23  H    0.279120
    24  H    0.277164
    25  H    0.221109
    26  N    0.487948
    27  O   -0.459065
    28  O   -0.457368
 Sum of Mulliken charges =  -0.00000

 Dipole moment (field-independent basis, Debye):
    X=              0.6183    Y=              0.8292    Z=              0.4637  Tot=              1.1335
 Quadrupole moment (field-independent basis, Debye-Ang):
   XX=           -181.8717   YY=            -97.0424   ZZ=           -104.2645
   XY=             23.2792   XZ=              1.4596   YZ=             -1.0252

 Normal termination of Gaussian 16 at Thu May  6 09:57:56 2021.
