 Gaussian 16, Revision A.03,
 Gaussian 16:  EM64L-G16RevA.03 25-Dec-2016

 -------------
 #p 6-31g* mp2
 -------------

 ------------------------------------------------------
 Input file generated by CHIRIPA (05-May-2021 14:53:13)
 ------------------------------------------------------
 Symbolic Z-matrix:
 Charge =  0 Multiplicity = 1

                         Standard orientation:
 ---------------------------------------------------------------------
 Center     Atomic      Atomic             Coordinates (Angstroms)
 Number     Number       Type             X           Y           Z
 ---------------------------------------------------------------------
      1          6           0       -3.423168   -0.494975   -0.205663
      2          6           0       -4.516228   -1.137407   -1.060349
      3          6           0       -4.320642   -2.643636   -1.235893
      4          1           0       -2.444980   -0.687831   -0.667073
      5          1           0       -3.405108   -0.980629    0.779836
      6          1           0       -4.533143   -0.649749   -2.043466
      7          1           0       -5.491944   -0.942835   -0.596952
      8          1           0       -4.325271   -3.148509   -0.264460
      9          1           0       -3.361022   -2.853758   -1.719192
     10          1           0       -5.113122   -3.082488   -1.850095
     11          6           0       -3.604904    1.010558   -0.021080
     12          6           0       -2.511845    1.652990    0.833605
     13          6           0       -2.707430    3.159219    1.009150
     14          1           0       -3.622964    1.496212   -1.006579
     15          1           0       -4.583092    1.203415    0.440330
     16          1           0       -1.536129    1.458418    0.370209
     17          1           0       -2.494930    1.165333    1.816723
     18          1           0       -3.667050    3.369341    1.492449
     19          1           0       -2.702802    3.664092    0.037716
     20          1           0       -1.914950    3.598071    1.623352
     21          6           0        1.496882   -1.477105    1.871785
     22          6           0        2.782483   -1.878584    1.494206
     23          6           0        3.483543   -1.179219    0.507316
     24          6           0        2.866037   -0.078069   -0.083823
     25          6           0        1.586468    0.346568    0.270684
     26          6           0        0.904023   -0.367766    1.259898
     27          1           0        0.959512   -2.026203    2.639328
     28          1           0        3.245387   -2.739731    1.967695
     29          1           0        4.479965   -1.468294    0.195875
     30          1           0        1.151166    1.209010   -0.219342
     31          1           0       -0.094272   -0.053694    1.551125
     32          7           0        3.598364    0.670240   -1.129829
     33          8           0        3.032270    1.636973   -1.635401
     34          8           0        4.724591    0.275865   -1.424310
 ---------------------------------------------------------------------

 SCF Done:  E(RHF) =  -669.535344189     A.U. after   15 cycles
 E2 =    -0.2092113653D+01 EUMP2 =    -0.67162745784201D+03

 The electronic state is 1-A.
 Alpha  occ. eigenvalues --  -20.60722 -20.60717 -15.85773 -11.31118 -11.27679
 Alpha  occ. eigenvalues --  -11.27663 -11.27395 -11.26696 -11.26588 -11.22656
 Alpha  occ. eigenvalues --  -11.22141 -11.22112 -11.22051 -11.21767 -11.21514
 Alpha  occ. eigenvalues --   -1.59797  -1.39351  -1.19277  -1.09167  -1.08674
 Alpha  occ. eigenvalues --   -1.04680  -1.04218  -0.96620  -0.95518  -0.87643
 Alpha  occ. eigenvalues --   -0.86073  -0.82365  -0.80346  -0.79004  -0.77382
 Alpha  occ. eigenvalues --   -0.71992  -0.71120  -0.70394  -0.65794  -0.64925
 Alpha  occ. eigenvalues --   -0.64675  -0.62101  -0.61567  -0.59990  -0.58250
 Alpha  occ. eigenvalues --   -0.55885  -0.55179  -0.53344  -0.53054  -0.53005
 Alpha  occ. eigenvalues --   -0.52743  -0.50560  -0.48775  -0.48749  -0.48575
 Alpha  occ. eigenvalues --   -0.47372  -0.46482  -0.46421  -0.44762  -0.44468
 Alpha  occ. eigenvalues --   -0.37256  -0.36272
 Alpha virt. eigenvalues --    0.05115   0.11364   0.16573   0.20021   0.22599
 Alpha virt. eigenvalues --    0.23684   0.24851   0.25352   0.27307   0.28103
 Alpha virt. eigenvalues --    0.29096   0.30140   0.31039   0.31429   0.31860

 Mulliken charges:
               1
     1  C   -0.300977
     2  C   -0.300070
     3  C   -0.476353
     4  H    0.150806
     5  H    0.145481
     6  H    0.155004
     7  H    0.153084
     8  H    0.153734
     9  H    0.156794
    10  H    0.162573
    11  C   -0.297527
    12  C   -0.308244
    13  C   -0.475642
    14  H    0.154538
    15  H    0.152689
    16  H    0.148071
    17  H    0.148144
    18  H    0.158287
    19  H    0.160589
    20  H    0.161784
    21  C   -0.172228
    22  C   -0.218377
    23  C   -0.171439
    24  C    0.159341
    25  C   -0.177030
    26  C   -0.223941
    27  H    0.225513
    28  H    0.223023
    29  H    0.275228
    30  H    0.275931
    31  H    0.234437
    32  N    0.488412
    33  O   -0.460982
    34  O   -0.460652
 Sum of Mulliken charges =  -0.00000

 Dipole moment (field-independent basis, Debye):
    X=             -2.8150    Y=             -2.5717    Z=              3.6200  Tot=              5.2576
 Quadrupole moment (field-independent basis, Debye-Ang):
   XX=           -105.8587   YY=            -93.6138   ZZ=            -95.3824
   XY=            -10.3991   XZ=             11.0574   YZ=             -0.8010

 Normal termination of Gaussian 16 at Thu May  6 05:47:38 2021.
