 Gaussian 16, Revision A.03,
 Gaussian 16:  EM64L-G16RevA.03 25-Dec-2016

 -------------
 #p 6-31g* mp2
 -------------

 ------------------------------------------------------
 Input file generated by CHIRIPA (05-May-2021 14:57:21)
 ------------------------------------------------------
 Symbolic Z-matrix:
 Charge =  0 Multiplicity = 1

                         Standard orientation:
 ---------------------------------------------------------------------
 Center     Atomic      Atomic             Coordinates (Angstroms)
 Number     Number       Type             X           Y           Z
 ---------------------------------------------------------------------
      1          6           0        4.439959    2.158837    0.035316
      2          6           0        3.353804    2.092894   -0.843570
      3          6           0        2.588785    0.926758   -0.940630
      4          6           0        2.939649   -0.159455   -0.140425
      5          6           0        4.015997   -0.124643    0.744760
      6          6           0        4.767012    1.051809    0.825284
      7          1           0        5.028805    3.068726    0.104292
      8          1           0        3.097497    2.951077   -1.458284
      9          1           0        1.742790    0.848452   -1.612625
     10          1           0        4.247120   -0.996443    1.344731
     11          1           0        5.609996    1.100165    1.508719
     12          7           0        2.137170   -1.399451   -0.234425
     13          8           0        2.466862   -2.342627    0.481368
     14          8           0        1.193691   -1.404706   -1.022116
     15          6           0       -4.459843    2.061647    0.169258
     16          6           0       -4.322907    1.338490   -1.020201
     17          6           0       -3.556331    0.169903   -1.056426
     18          6           0       -2.937727   -0.248566    0.120648
     19          6           0       -3.055151    0.450083    1.321227
     20          6           0       -3.826646    1.615921    1.334123
     21          1           0       -5.057249    2.968366    0.188336
     22          1           0       -4.813523    1.682277   -1.926376
     23          1           0       -3.433546   -0.409221   -1.963596
     24          1           0       -2.554127    0.082412    2.208475
     25          1           0       -3.931234    2.175514    2.259305
     26          7           0       -2.123584   -1.484242    0.094648
     27          8           0       -1.588686   -1.831835    1.145219
     28          8           0       -2.035772   -2.081775   -0.975811
 ---------------------------------------------------------------------

 SCF Done:  E(RHF) =  -868.334914618     A.U. after   16 cycles
 E2 =    -0.2601351870D+01 EUMP2 =    -0.87093626648762D+03

 The electronic state is 1-A.
 Alpha  occ. eigenvalues --  -20.59805 -20.59796 -20.59637 -20.59559 -15.84877
 Alpha  occ. eigenvalues --  -15.84677 -11.30654 -11.30561 -11.27290 -11.27255
 Alpha  occ. eigenvalues --  -11.27194 -11.27175 -11.27094 -11.27030 -11.26396
 Alpha  occ. eigenvalues --  -11.26366 -11.26326 -11.26313  -1.58863  -1.58637
 Alpha  occ. eigenvalues --   -1.38416  -1.38197  -1.18867  -1.18781  -1.08183
 Alpha  occ. eigenvalues --   -1.08075  -1.04333  -1.04260  -0.94950  -0.94819
 Alpha  occ. eigenvalues --   -0.85711  -0.85632  -0.81785  -0.81662  -0.76762
 Alpha  occ. eigenvalues --   -0.76617  -0.71155  -0.70881  -0.70323  -0.69980
 Alpha  occ. eigenvalues --   -0.69883  -0.69791  -0.64509  -0.64419  -0.64341
 Alpha  occ. eigenvalues --   -0.64265  -0.61678  -0.61600  -0.54822  -0.54744
 Alpha  occ. eigenvalues --   -0.52643  -0.52563  -0.52431  -0.52357  -0.47973
 Alpha  occ. eigenvalues --   -0.47826  -0.47612  -0.47494  -0.43738  -0.43479
 Alpha  occ. eigenvalues --   -0.36876  -0.36786  -0.35957  -0.35894
 Alpha virt. eigenvalues --    0.05779   0.05936   0.11691   0.11755   0.17197
 Alpha virt. eigenvalues --    0.17339   0.21771   0.21840   0.27651   0.27715
 Alpha virt. eigenvalues --    0.28693   0.28783   0.31263   0.31378   0.32944

 Mulliken charges:
               1
     1  C   -0.172348
     2  C   -0.218599
     3  C   -0.172445
     4  C    0.159879
     5  C   -0.171222
     6  C   -0.218584
     7  H    0.222984
     8  H    0.220304
     9  H    0.273870
    10  H    0.276229
    11  H    0.221757
    12  N    0.489266
    13  O   -0.456251
    14  O   -0.454724
    15  C   -0.173014
    16  C   -0.219179
    17  C   -0.172115
    18  C    0.160251
    19  C   -0.172874
    20  C   -0.218866
    21  H    0.222410
    22  H    0.220863
    23  H    0.276311
    24  H    0.274855
    25  H    0.220586
    26  N    0.490981
    27  O   -0.460473
    28  O   -0.449853
 Sum of Mulliken charges =  -0.00000

 Dipole moment (field-independent basis, Debye):
    X=              0.0112    Y=              8.3247    Z=              0.3549  Tot=              8.3323
 Quadrupole moment (field-independent basis, Debye-Ang):
   XX=            -72.1717   YY=           -108.6972   ZZ=            -98.3701
   XY=             -0.9232   XZ=              3.7533   YZ=             -1.1059

 Normal termination of Gaussian 16 at Thu May  6 06:28:48 2021.
