 Gaussian 16, Revision A.03,
 Gaussian 16:  EM64L-G16RevA.03 25-Dec-2016

 -------------
 #p 6-31g* mp2
 -------------

 ------------------------------------------------------
 Input file generated by CHIRIPA (05-May-2021 14:57:24)
 ------------------------------------------------------
 Symbolic Z-matrix:
 Charge =  0 Multiplicity = 1

                         Standard orientation:
 ---------------------------------------------------------------------
 Center     Atomic      Atomic             Coordinates (Angstroms)
 Number     Number       Type             X           Y           Z
 ---------------------------------------------------------------------
      1          6           0        4.902050    1.449490    1.282129
      2          6           0        4.841126    0.121143    1.716071
      3          6           0        4.123764   -0.831827    0.986834
      4          6           0        3.476328   -0.419906   -0.176969
      5          6           0        3.518308    0.895973   -0.635216
      6          6           0        4.241611    1.831991    0.109937
      7          1           0        5.461621    2.183195    1.854800
      8          1           0        5.353053   -0.178763    2.626034
      9          1           0        4.060081   -1.866881    1.299924
     10          1           0        2.997687    1.164893   -1.546289
     11          1           0        4.287194    2.862900   -0.229464
     12          7           0        2.713745   -1.419799   -0.957405
     13          8           0        2.152054   -1.031532   -1.979359
     14          8           0        2.692162   -2.572849   -0.532379
     15          6           0       -1.819506    1.853308   -0.748128
     16          6           0       -3.123027    2.311049   -0.529434
     17          6           0       -4.118703    1.434442   -0.088143
     18          6           0       -3.774337    0.100603    0.125344
     19          6           0       -2.484700   -0.385704   -0.083541
     20          6           0       -1.505057    0.508763   -0.524877
     21          1           0       -1.052269    2.541214   -1.090951
     22          1           0       -3.370105    3.354707   -0.701986
     23          1           0       -5.135869    1.762120    0.089108
     24          1           0       -2.268683   -1.431693    0.097183
     25          1           0       -0.493567    0.150477   -0.693885
     26          7           0       -4.819928   -0.836875    0.592543
     27          8           0       -4.490974   -2.007245    0.773267
     28          8           0       -5.948617   -0.383550    0.769162
 ---------------------------------------------------------------------

 SCF Done:  E(RHF) =  -868.338861222     A.U. after   16 cycles
 E2 =    -0.2599015671D+01 EUMP2 =    -0.87093787689317D+03

 The electronic state is 1-A.
 Alpha  occ. eigenvalues --  -20.61782 -20.61739 -20.60360 -20.60346 -15.86776
 Alpha  occ. eigenvalues --  -15.85405 -11.32004 -11.30733 -11.28591 -11.28504
 Alpha  occ. eigenvalues --  -11.28229 -11.27542 -11.27478 -11.27326 -11.27215
 Alpha  occ. eigenvalues --  -11.27066 -11.26374 -11.26196  -1.60825  -1.59432
 Alpha  occ. eigenvalues --   -1.40380  -1.38985  -1.20155  -1.18898  -1.09570
 Alpha  occ. eigenvalues --   -1.08314  -1.05532  -1.04279  -0.96428  -0.95155
 Alpha  occ. eigenvalues --   -0.86935  -0.85687  -0.83259  -0.81973  -0.78338
 Alpha  occ. eigenvalues --   -0.77016  -0.72983  -0.72147  -0.71625  -0.71245
 Alpha  occ. eigenvalues --   -0.70754  -0.70039  -0.65803  -0.65522  -0.64550
 Alpha  occ. eigenvalues --   -0.64267  -0.62881  -0.61611  -0.56016  -0.54834
 Alpha  occ. eigenvalues --   -0.53870  -0.53615  -0.52633  -0.52361  -0.49769
 Alpha  occ. eigenvalues --   -0.49730  -0.48385  -0.48378  -0.45788  -0.44398
 Alpha  occ. eigenvalues --   -0.38116  -0.37131  -0.36907  -0.35877
 Alpha virt. eigenvalues --    0.04164   0.05493   0.10499   0.11768   0.15668
 Alpha virt. eigenvalues --    0.16993   0.20595   0.21833   0.26489   0.27142
 Alpha virt. eigenvalues --    0.27999   0.28715   0.30331   0.31260   0.31871

 Mulliken charges:
               1
     1  C   -0.169923
     2  C   -0.217978
     3  C   -0.170152
     4  C    0.157061
     5  C   -0.174793
     6  C   -0.218057
     7  H    0.228401
     8  H    0.226835
     9  H    0.278176
    10  H    0.272435
    11  H    0.224228
    12  N    0.486215
    13  O   -0.464465
    14  O   -0.453625
    15  C   -0.171473
    16  C   -0.218563
    17  C   -0.172182
    18  C    0.158394
    19  C   -0.171853
    20  C   -0.221163
    21  H    0.220404
    22  H    0.220508
    23  H    0.273868
    24  H    0.279561
    25  H    0.231895
    26  N    0.487951
    27  O   -0.459237
    28  O   -0.462469
 Sum of Mulliken charges =  -0.00000

 Dipole moment (field-independent basis, Debye):
    X=              6.7336    Y=              6.6703    Z=              1.2119  Tot=              9.5552
 Quadrupole moment (field-independent basis, Debye-Ang):
   XX=           -111.9717   YY=           -102.3456   ZZ=           -105.2056
   XY=             -4.5286   XZ=             17.4414   YZ=             -4.1782

 Normal termination of Gaussian 16 at Thu May  6 05:03:31 2021.
