 Gaussian 16, Revision A.03,
 Gaussian 16:  EM64L-G16RevA.03 25-Dec-2016

 -------------
 #p 6-31g* mp2
 -------------

 ------------------------------------------------------
 Input file generated by CHIRIPA (05-May-2021 14:57:27)
 ------------------------------------------------------
 Symbolic Z-matrix:
 Charge =  0 Multiplicity = 1

                         Standard orientation:
 ---------------------------------------------------------------------
 Center     Atomic      Atomic             Coordinates (Angstroms)
 Number     Number       Type             X           Y           Z
 ---------------------------------------------------------------------
      1          6           0        1.342791    2.863908   -0.545952
      2          6           0        0.974580    1.822853   -1.404524
      3          6           0        1.440094    0.523021   -1.184791
      4          6           0        2.276015    0.298900   -0.091952
      5          6           0        2.660670    1.315104    0.781352
      6          6           0        2.183180    2.607163    0.542327
      7          1           0        0.976517    3.870630   -0.724139
      8          1           0        0.322051    2.019314   -2.250487
      9          1           0        1.170741   -0.301480   -1.833685
     10          1           0        3.312487    1.088388    1.616308
     11          1           0        2.470783    3.413716    1.210760
     12          7           0        2.775173   -1.073060    0.150881
     13          8           0        3.510487   -1.244446    1.120715
     14          8           0        2.421649   -1.951038   -0.633219
     15          6           0       -3.535958    1.577679    0.510225
     16          6           0       -2.946447    0.919023    1.594278
     17          6           0       -2.200597   -0.246794    1.396477
     18          6           0       -2.063988   -0.728296    0.095406
     19          6           0       -2.639159   -0.094729   -1.005076
     20          6           0       -3.380706    1.069597   -0.783711
     21          1           0       -4.113680    2.482735    0.673035
     22          1           0       -3.065347    1.311320    2.600266
     23          1           0       -1.733477   -0.776706    2.217702
     24          1           0       -2.503021   -0.509875   -1.996306
     25          1           0       -3.837401    1.579021   -1.627488
     26          7           0       -1.276668   -1.961705   -0.126470
     27          8           0       -1.171184   -2.365574   -1.282498
     28          8           0       -0.779958   -2.501227    0.859852
 ---------------------------------------------------------------------

 SCF Done:  E(RHF) =  -868.335942585     A.U. after   16 cycles
 E2 =    -0.2603727669D+01 EUMP2 =    -0.87093967025417D+03

 The electronic state is 1-A.
 Alpha  occ. eigenvalues --  -20.60709 -20.60668 -20.60057 -20.59953 -15.85733
 Alpha  occ. eigenvalues --  -15.85068 -11.31365 -11.30841 -11.28009 -11.27923
 Alpha  occ. eigenvalues --  -11.27757 -11.27464 -11.27378 -11.27302 -11.27078
 Alpha  occ. eigenvalues --  -11.27007 -11.26588 -11.26576  -1.59739  -1.59071
 Alpha  occ. eigenvalues --   -1.39297  -1.38613  -1.19563  -1.19054  -1.08909
 Alpha  occ. eigenvalues --   -1.08382  -1.05010  -1.04513  -0.95698  -0.95142
 Alpha  occ. eigenvalues --   -0.86398  -0.85896  -0.82531  -0.81969  -0.77540
 Alpha  occ. eigenvalues --   -0.76941  -0.71939  -0.71344  -0.71129  -0.70675
 Alpha  occ. eigenvalues --   -0.70314  -0.70137  -0.65216  -0.65016  -0.64694
 Alpha  occ. eigenvalues --   -0.64522  -0.62359  -0.61835  -0.55500  -0.55021
 Alpha  occ. eigenvalues --   -0.53467  -0.53107  -0.52693  -0.52598  -0.48711
 Alpha  occ. eigenvalues --   -0.48682  -0.48081  -0.48003  -0.44641  -0.43901
 Alpha  occ. eigenvalues --   -0.37642  -0.37067  -0.36672  -0.35992
 Alpha virt. eigenvalues --    0.04954   0.05588   0.10996   0.11494   0.16410
 Alpha virt. eigenvalues --    0.17017   0.20984   0.21685   0.26706   0.27495
 Alpha virt. eigenvalues --    0.28128   0.28661   0.30560   0.31195   0.32214

 Mulliken charges:
               1
     1  C   -0.172129
     2  C   -0.215219
     3  C   -0.182784
     4  C    0.158831
     5  C   -0.172108
     6  C   -0.219116
     7  H    0.221303
     8  H    0.218565
     9  H    0.286594
    10  H    0.275229
    11  H    0.220789
    12  N    0.488789
    13  O   -0.464134
    14  O   -0.446975
    15  C   -0.172003
    16  C   -0.217817
    17  C   -0.170177
    18  C    0.161330
    19  C   -0.175560
    20  C   -0.220062
    21  H    0.224360
    22  H    0.223630
    23  H    0.278226
    24  H    0.273095
    25  H    0.221148
    26  N    0.487136
    27  O   -0.459706
    28  O   -0.451237
 Sum of Mulliken charges =  -0.00000

 Dipole moment (field-independent basis, Debye):
    X=             -4.4817    Y=              8.7826    Z=              0.0054  Tot=              9.8600
 Quadrupole moment (field-independent basis, Debye-Ang):
   XX=           -101.7171   YY=           -108.9259   ZZ=            -96.7852
   XY=              4.0274   XZ=             -0.7217   YZ=              0.4025

 Normal termination of Gaussian 16 at Thu May  6 16:32:37 2021.
