 Gaussian 16, Revision A.03,
 Gaussian 16:  EM64L-G16RevA.03 25-Dec-2016

 -------------
 #p 6-31g* mp2
 -------------

 ------------------------------------------------------
 Input file generated by CHIRIPA (05-May-2021 14:55:24)
 ------------------------------------------------------
 Symbolic Z-matrix:
 Charge =  0 Multiplicity = 1

                         Standard orientation:
 ---------------------------------------------------------------------
 Center     Atomic      Atomic             Coordinates (Angstroms)
 Number     Number       Type             X           Y           Z
 ---------------------------------------------------------------------
      1          6           0        3.991849    2.213872    0.634717
      2          6           0        2.738174    2.303281    0.020855
      3          6           0        2.115691    1.161348   -0.492031
      4          6           0        2.778363   -0.059339   -0.373378
      5          6           0        4.027823   -0.180801    0.232746
      6          6           0        4.631545    0.974301    0.738520
      7          1           0        4.468121    3.106068    1.030377
      8          1           0        2.239035    3.264623   -0.061168
      9          1           0        1.145485    1.201994   -0.972099
     10          1           0        4.500706   -1.153078    0.299667
     11          1           0        5.605201    0.901869    1.214746
     12          7           0        2.129299   -1.275223   -0.912582
     13          8           0        2.733953   -2.338862   -0.795517
     14          8           0        1.028199   -1.141572   -1.442067
     15          6           0       -3.230131   -0.372997    0.940311
     16          6           0       -2.181728   -1.416450    0.552959
     17          6           0       -1.262783   -1.791186    1.716103
     18          1           0       -2.722181    0.527085    1.312850
     19          1           0       -3.831901   -0.760068    1.774243
     20          1           0       -1.583012   -1.028089   -0.280907
     21          1           0       -2.692229   -2.314081    0.181118
     22          1           0       -1.842966   -2.203009    2.548203
     23          1           0       -0.727448   -0.909711    2.083553
     24          1           0       -0.521052   -2.538379    1.417106
     25          6           0       -4.156330    0.011900   -0.211965
     26          6           0       -5.204733    1.055353    0.175387
     27          6           0       -6.123679    1.430090   -0.987757
     28          1           0       -3.554560    0.398971   -1.045898
     29          1           0       -4.664280   -0.888181   -0.584505
     30          1           0       -4.694233    1.952983    0.547228
     31          1           0       -5.803449    0.666992    1.009253
     32          1           0       -6.659013    0.548614   -1.355207
     33          1           0       -5.543496    1.841913   -1.819857
     34          1           0       -6.865409    2.177282   -0.688760
 ---------------------------------------------------------------------

 SCF Done:  E(RHF) =  -669.536222662     A.U. after   15 cycles
 E2 =    -0.2091464311D+01 EUMP2 =    -0.67162768697298D+03

 The electronic state is 1-A.
 Alpha  occ. eigenvalues --  -20.60946 -20.60939 -15.85973 -11.31290 -11.27858
 Alpha  occ. eigenvalues --  -11.27846 -11.27589 -11.26862 -11.26851 -11.21297
 Alpha  occ. eigenvalues --  -11.20921 -11.20823 -11.20798 -11.20583 -11.20290
 Alpha  occ. eigenvalues --   -1.59999  -1.39557  -1.19457  -1.08862  -1.07882
 Alpha  occ. eigenvalues --   -1.04855  -1.02946  -0.95707  -0.95438  -0.86464
 Alpha  occ. eigenvalues --   -0.86255  -0.82543  -0.79025  -0.77685  -0.77561
 Alpha  occ. eigenvalues --   -0.72199  -0.71311  -0.70568  -0.65118  -0.64859
 Alpha  occ. eigenvalues --   -0.64522  -0.62204  -0.60349  -0.58806  -0.57008
 Alpha  occ. eigenvalues --   -0.55359  -0.54758  -0.53184  -0.52948  -0.52120
 Alpha  occ. eigenvalues --   -0.51857  -0.49418  -0.48962  -0.48948  -0.47338
 Alpha  occ. eigenvalues --   -0.46087  -0.45292  -0.45208  -0.44720  -0.43211
 Alpha  occ. eigenvalues --   -0.37432  -0.36455
 Alpha virt. eigenvalues --    0.04907   0.11189   0.16373   0.21199   0.23267
 Alpha virt. eigenvalues --    0.24709   0.26809   0.27383   0.27792   0.28441
 Alpha virt. eigenvalues --    0.28639   0.30783   0.31743   0.32125   0.32621

 Mulliken charges:
               1
     1  C   -0.170582
     2  C   -0.218540
     3  C   -0.170799
     4  C    0.158871
     5  C   -0.170705
     6  C   -0.218489
     7  H    0.226015
     8  H    0.223757
     9  H    0.275157
    10  H    0.275894
    11  H    0.223870
    12  N    0.490203
    13  O   -0.459128
    14  O   -0.461296
    15  C   -0.297572
    16  C   -0.306527
    17  C   -0.477037
    18  H    0.143061
    19  H    0.146934
    20  H    0.171829
    21  H    0.151790
    22  H    0.150929
    23  H    0.146584
    24  H    0.168585
    25  C   -0.297576
    26  C   -0.298795
    27  C   -0.475242
    28  H    0.149271
    29  H    0.150849
    30  H    0.148605
    31  H    0.151433
    32  H    0.155894
    33  H    0.154286
    34  H    0.158469
 Sum of Mulliken charges =  -0.00000

 Dipole moment (field-independent basis, Debye):
    X=              2.4984    Y=              4.1911    Z=              1.7714  Tot=              5.1909
 Quadrupole moment (field-independent basis, Debye-Ang):
   XX=            -79.7956   YY=            -93.6525   ZZ=            -97.3294
   XY=             10.4993   XZ=              5.4887   YZ=             -2.4070

 Normal termination of Gaussian 16 at Thu May  6 03:11:25 2021.
