 Gaussian 16, Revision A.03,
 Gaussian 16:  EM64L-G16RevA.03 25-Dec-2016

 -------------
 #p 6-31g* mp2
 -------------

 ------------------------------------------------------
 Input file generated by CHIRIPA (05-May-2021 14:57:22)
 ------------------------------------------------------
 Symbolic Z-matrix:
 Charge =  0 Multiplicity = 1

                         Standard orientation:
 ---------------------------------------------------------------------
 Center     Atomic      Atomic             Coordinates (Angstroms)
 Number     Number       Type             X           Y           Z
 ---------------------------------------------------------------------
      1          6           0        5.531420    0.806390    0.559350
      2          6           0        5.384516   -0.581130    0.657974
      3          6           0        4.210034   -1.203359    0.224419
      4          6           0        3.198123   -0.403952   -0.304990
      5          6           0        3.314492    0.980724   -0.416442
      6          6           0        4.497761    1.581522    0.023401
      7          1           0        6.447199    1.281429    0.898589
      8          1           0        6.185609   -1.185617    1.073776
      9          1           0        4.069840   -2.275542    0.289132
     10          1           0        2.498430    1.556872   -0.835388
     11          1           0        4.609074    2.659298   -0.054412
     12          7           0        1.950099   -1.051334   -0.767305
     13          8           0        1.073372   -0.324738   -1.229955
     14          8           0        1.872258   -2.273090   -0.658263
     15          6           0       -1.198743    1.468580    0.591556
     16          6           0       -1.569147    0.402246    1.417541
     17          6           0       -2.788551   -0.254114    1.225724
     18          6           0       -3.616990    0.184017    0.193726
     19          6           0       -3.276070    1.243305   -0.645900
     20          6           0       -2.051883    1.884972   -0.435718
     21          1           0       -0.249623    1.972749    0.747697
     22          1           0       -0.908582    0.076718    2.216122
     23          1           0       -3.100121   -1.082393    1.850461
     24          1           0       -3.955571    1.545131   -1.433681
     25          1           0       -1.766824    2.712812   -1.078732
     26          7           0       -4.910450   -0.503065   -0.019065
     27          8           0       -5.622562   -0.097927   -0.935251
     28          8           0       -5.187661   -1.433728    0.734367
 ---------------------------------------------------------------------

 SCF Done:  E(RHF) =  -868.337152039     A.U. after   16 cycles
 E2 =    -0.2600501700D+01 EUMP2 =    -0.87093765373890D+03

 The electronic state is 1-A.
 Alpha  occ. eigenvalues --  -20.61468 -20.61456 -20.59974 -20.59969 -15.86496
 Alpha  occ. eigenvalues --  -15.85027 -11.31939 -11.30250 -11.28558 -11.28450
 Alpha  occ. eigenvalues --  -11.28198 -11.27534 -11.27468 -11.26858 -11.26849
 Alpha  occ. eigenvalues --  -11.26659 -11.25856 -11.25847  -1.60531  -1.59051
 Alpha  occ. eigenvalues --   -1.40086  -1.38610  -1.20100  -1.18429  -1.09472
 Alpha  occ. eigenvalues --   -1.07863  -1.05509  -1.03840  -0.96302  -0.94725
 Alpha  occ. eigenvalues --   -0.86899  -0.85268  -0.83131  -0.81577  -0.78187
 Alpha  occ. eigenvalues --   -0.76627  -0.72717  -0.71873  -0.71258  -0.71189
 Alpha  occ. eigenvalues --   -0.70365  -0.69622  -0.65743  -0.65496  -0.64122
 Alpha  occ. eigenvalues --   -0.63901  -0.62860  -0.61226  -0.55974  -0.54434
 Alpha  occ. eigenvalues --   -0.53835  -0.53588  -0.52120  -0.51985  -0.49489
 Alpha  occ. eigenvalues --   -0.49461  -0.48012  -0.48003  -0.45472  -0.44048
 Alpha  occ. eigenvalues --   -0.38069  -0.37120  -0.36307  -0.35408
 Alpha virt. eigenvalues --    0.04298   0.05976   0.10496   0.12240   0.15807
 Alpha virt. eigenvalues --    0.17495   0.20356   0.21997   0.26093   0.27204
 Alpha virt. eigenvalues --    0.28047   0.28854   0.30623   0.31177   0.32928

 Mulliken charges:
               1
     1  C   -0.170816
     2  C   -0.217924
     3  C   -0.171139
     4  C    0.158347
     5  C   -0.175562
     6  C   -0.217876
     7  H    0.227915
     8  H    0.226173
     9  H    0.277811
    10  H    0.270134
    11  H    0.223969
    12  N    0.487347
    13  O   -0.460451
    14  O   -0.456707
    15  C   -0.151750
    16  C   -0.215917
    17  C   -0.168058
    18  C    0.158764
    19  C   -0.169456
    20  C   -0.214748
    21  H    0.214486
    22  H    0.217937
    23  H    0.273544
    24  H    0.272932
    25  H    0.217840
    26  N    0.488380
    27  O   -0.462884
    28  O   -0.462290
 Sum of Mulliken charges =  -0.00000

 Dipole moment (field-independent basis, Debye):
    X=              9.2437    Y=              4.5580    Z=              2.3278  Tot=             10.5659
 Quadrupole moment (field-independent basis, Debye-Ang):
   XX=           -109.8661   YY=           -100.6124   ZZ=           -103.5380
   XY=             -5.0050   XZ=              3.8168   YZ=             -4.8543

 Normal termination of Gaussian 16 at Fri May  7 07:57:40 2021.
