 Gaussian 16, Revision A.03,
 Gaussian 16:  EM64L-G16RevA.03 25-Dec-2016

 -------------
 #p 6-31g* mp2
 -------------

 ------------------------------------------------------
 Input file generated by CHIRIPA (05-May-2021 14:51:12)
 ------------------------------------------------------
 Symbolic Z-matrix:
 Charge =  0 Multiplicity = 1

                         Standard orientation:
 ---------------------------------------------------------------------
 Center     Atomic      Atomic             Coordinates (Angstroms)
 Number     Number       Type             X           Y           Z
 ---------------------------------------------------------------------
      1          6           0       -4.353520   -0.673051   -0.106282
      2          6           0       -5.801130   -1.091053    0.153885
      3          6           0       -5.997638   -2.606404    0.100119
      4          1           0       -4.040767   -1.050120   -1.089618
      5          1           0       -3.701188   -1.154849    0.635154
      6          1           0       -6.450700   -0.607514   -0.586969
      7          1           0       -6.110535   -0.712781    1.136634
      8          1           0       -5.373520   -3.102658    0.850326
      9          1           0       -5.715618   -2.996793   -0.883070
     10          1           0       -7.039607   -2.883057    0.288863
     11          6           0       -4.141153    0.838930   -0.055852
     12          6           0       -2.693544    1.256932   -0.316019
     13          6           0       -2.497036    2.772283   -0.262253
     14          1           0       -4.793486    1.320728   -0.797288
     15          1           0       -4.453906    1.215999    0.927484
     16          1           0       -2.384139    0.878660   -1.298768
     17          1           0       -2.043973    0.773393    0.424835
     18          1           0       -2.779055    3.162672    0.720936
     19          1           0       -3.121153    3.268537   -1.012460
     20          1           0       -1.455067    3.048936   -0.450997
     21          6           0        4.734624   -0.602495   -0.194698
     22          6           0        6.189649   -0.334046    0.191077
     23          6           0        7.152453   -1.382006   -0.368012
     24          1           0        4.444170   -1.598767    0.165889
     25          1           0        4.652133   -0.630221   -1.290062
     26          1           0        6.269120   -0.305460    1.285372
     27          1           0        6.476614    0.661782   -0.170304
     28          1           0        7.102639   -1.406506   -1.461410
     29          1           0        6.893966   -2.379241    0.002537
     30          1           0        8.187053   -1.170775   -0.080184
     31          6           0        3.760050    0.436616    0.356832
     32          6           0        2.305024    0.168167   -0.028943
     33          6           0        1.342220    1.216127    0.530146
     34          1           0        3.842540    0.464342    1.452195
     35          1           0        4.050504    1.432888   -0.003755
     36          1           0        2.018059   -0.827660    0.332438
     37          1           0        2.225554    0.139580   -1.123238
     38          1           0        1.600708    2.213362    0.159598
     39          1           0        1.392035    1.240627    1.623544
     40          1           0        0.307621    1.004896    0.242318
 ---------------------------------------------------------------------

 SCF Done:  E(RHF) =  -470.733062291     A.U. after   11 cycles
 E2 =    -0.1582708863D+01 EUMP2 =    -0.47231577115342D+03

 The electronic state is 1-A.
 Alpha  occ. eigenvalues --  -11.21601 -11.21600 -11.21593 -11.21578 -11.21404
 Alpha  occ. eigenvalues --  -11.21390 -11.21345 -11.21330 -11.21072 -11.21064
 Alpha  occ. eigenvalues --  -11.21025 -11.21001  -1.08436  -1.08409  -1.03557
 Alpha  occ. eigenvalues --   -1.03484  -0.96017  -0.95916  -0.86999  -0.86967
 Alpha  occ. eigenvalues --   -0.79636  -0.79542  -0.78255  -0.78223  -0.65067
 Alpha  occ. eigenvalues --   -0.65043  -0.60953  -0.60907  -0.59612  -0.59118
 Alpha  occ. eigenvalues --   -0.57739  -0.57391  -0.55259  -0.55245  -0.52781
 Alpha  occ. eigenvalues --   -0.52555  -0.52387  -0.52345  -0.49920  -0.49891
 Alpha  occ. eigenvalues --   -0.48012  -0.47797  -0.46632  -0.46596  -0.45799
 Alpha  occ. eigenvalues --   -0.45757  -0.45710  -0.45694  -0.43782  -0.43713
 Alpha virt. eigenvalues --    0.22048   0.23016   0.23421   0.24971   0.26504
 Alpha virt. eigenvalues --    0.26617   0.26890   0.27369   0.27770   0.28870
 Alpha virt. eigenvalues --    0.30627   0.30952   0.31464   0.31715   0.32319

 Mulliken charges:
               1
     1  C   -0.298435
     2  C   -0.299646
     3  C   -0.475704
     4  H    0.149617
     5  H    0.149489
     6  H    0.151959
     7  H    0.151974
     8  H    0.155160
     9  H    0.155178
    10  H    0.160263
    11  C   -0.297495
    12  C   -0.303680
    13  C   -0.477920
    14  H    0.149561
    15  H    0.149784
    16  H    0.151698
    17  H    0.154133
    18  H    0.155269
    19  H    0.154977
    20  H    0.163441
    21  C   -0.298188
    22  C   -0.299607
    23  C   -0.475687
    24  H    0.149587
    25  H    0.149474
    26  H    0.151889
    27  H    0.151922
    28  H    0.155164
    29  H    0.155155
    30  H    0.160217
    31  C   -0.298516
    32  C   -0.298859
    33  C   -0.485875
    34  H    0.149403
    35  H    0.149579
    36  H    0.151690
    37  H    0.151783
    38  H    0.154542
    39  H    0.154540
    40  H    0.172164
 Sum of Mulliken charges =  -0.00000

 Dipole moment (field-independent basis, Debye):
    X=             -0.0190    Y=              0.0030    Z=             -0.0009  Tot=              0.0192
 Quadrupole moment (field-independent basis, Debye-Ang):
   XX=            -85.6172   YY=            -86.0866   ZZ=            -83.1534
   XY=              0.2706   XZ=              0.3415   YZ=             -0.7910

 Normal termination of Gaussian 16 at Wed May  5 18:19:32 2021.
