 Gaussian 16, Revision A.03,
 Gaussian 16:  EM64L-G16RevA.03 25-Dec-2016

 -------------
 #p 6-31g* mp2
 -------------

 ------------------------------------------------------
 Input file generated by CHIRIPA (05-May-2021 14:57:22)
 ------------------------------------------------------
 Symbolic Z-matrix:
 Charge =  0 Multiplicity = 1

                         Standard orientation:
 ---------------------------------------------------------------------
 Center     Atomic      Atomic             Coordinates (Angstroms)
 Number     Number       Type             X           Y           Z
 ---------------------------------------------------------------------
      1          6           0        1.787292    2.127679   -0.502621
      2          6           0        2.987293    2.164432    0.215132
      3          6           0        3.708180    0.990563    0.453668
      4          6           0        3.197575   -0.208019   -0.042290
      5          6           0        2.005019   -0.277159   -0.760844
      6          6           0        1.300843    0.909149   -0.987463
      7          1           0        1.233780    3.044401   -0.683292
      8          1           0        3.367475    3.109328    0.592860
      9          1           0        4.639858    0.990319    1.006294
     10          1           0        1.651319   -1.234155   -1.124813
     11          1           0        0.369188    0.877598   -1.545198
     12          7           0        3.951901   -1.457326    0.203929
     13          8           0        3.480711   -2.500549   -0.243623
     14          8           0        5.000048   -1.369654    0.839805
     15          6           0       -2.245571    2.382568    0.202550
     16          6           0       -2.243974    1.701496   -1.019194
     17          6           0       -2.700289    0.382319   -1.097284
     18          6           0       -3.153271   -0.228016    0.071300
     19          6           0       -3.167329    0.424014    1.303352
     20          6           0       -2.706431    1.742781    1.357887
     21          1           0       -1.889315    3.407177    0.254064
     22          1           0       -1.886636    2.195857   -1.918061
     23          1           0       -2.710052   -0.168362   -2.030061
     24          1           0       -3.529568   -0.095200    2.182337
     25          1           0       -2.708826    2.269257    2.308078
     26          7           0       -3.638776   -1.624352    0.001097
     27          8           0       -4.032766   -2.139759    1.045016
     28          8           0       -3.616134   -2.176953   -1.096516
 ---------------------------------------------------------------------

 SCF Done:  E(RHF) =  -868.335414629     A.U. after   16 cycles
 E2 =    -0.2602353146D+01 EUMP2 =    -0.87093776777543D+03

 The electronic state is 1-A.
 Alpha  occ. eigenvalues --  -20.61363 -20.61350 -20.60882 -20.60867 -15.86423
 Alpha  occ. eigenvalues --  -15.85932 -11.32032 -11.31413 -11.28682 -11.28573
 Alpha  occ. eigenvalues --  -11.28461 -11.27989 -11.27937 -11.27845 -11.27795
 Alpha  occ. eigenvalues --  -11.27636 -11.27091 -11.26977  -1.60430  -1.59950
 Alpha  occ. eigenvalues --   -1.39977  -1.39500  -1.20244  -1.19598  -1.09601
 Alpha  occ. eigenvalues --   -1.08996  -1.05703  -1.05004  -0.96386  -0.95810
 Alpha  occ. eigenvalues --   -0.87093  -0.86412  -0.83230  -0.82626  -0.78227
 Alpha  occ. eigenvalues --   -0.77637  -0.72636  -0.72150  -0.71758  -0.71367
 Alpha  occ. eigenvalues --   -0.71275  -0.70762  -0.65900  -0.65771  -0.65254
 Alpha  occ. eigenvalues --   -0.65022  -0.63034  -0.62347  -0.56211  -0.55592
 Alpha  occ. eigenvalues --   -0.54138  -0.53791  -0.53310  -0.52962  -0.49414
 Alpha  occ. eigenvalues --   -0.49376  -0.48919  -0.48896  -0.45328  -0.44879
 Alpha  occ. eigenvalues --   -0.38342  -0.37574  -0.37266  -0.36513
 Alpha virt. eigenvalues --    0.04249   0.04916   0.10194   0.11107   0.15537
 Alpha virt. eigenvalues --    0.16386   0.19015   0.22124   0.25514   0.25815
 Alpha virt. eigenvalues --    0.28134   0.29518   0.29614   0.31217   0.32390

 Mulliken charges:
               1
     1  C   -0.173499
     2  C   -0.218311
     3  C   -0.171470
     4  C    0.159489
     5  C   -0.173224
     6  C   -0.212545
     7  H    0.214996
     8  H    0.222145
     9  H    0.276159
    10  H    0.278847
    11  H    0.221502
    12  N    0.487778
    13  O   -0.457572
    14  O   -0.460370
    15  C   -0.168981
    16  C   -0.228350
    17  C   -0.173869
    18  C    0.161245
    19  C   -0.168231
    20  C   -0.216581
    21  H    0.223352
    22  H    0.220609
    23  H    0.277224
    24  H    0.279795
    25  H    0.226929
    26  N    0.487988
    27  O   -0.456239
    28  O   -0.458816
 Sum of Mulliken charges =  -0.00000

 Dipole moment (field-independent basis, Debye):
    X=             -1.1616    Y=              9.0882    Z=             -0.4111  Tot=              9.1713
 Quadrupole moment (field-independent basis, Debye-Ang):
   XX=           -130.3848   YY=           -108.9104   ZZ=            -99.2341
   XY=              0.7213   XZ=             -2.8195   YZ=              2.1798

 Normal termination of Gaussian 16 at Thu May  6 01:46:42 2021.
