 Gaussian 16, Revision A.03,
 Gaussian 16:  EM64L-G16RevA.03 25-Dec-2016

 -------------
 #p 6-31g* mp2
 -------------

 ------------------------------------------------------
 Input file generated by CHIRIPA (05-May-2021 14:51:13)
 ------------------------------------------------------
 Symbolic Z-matrix:
 Charge =  0 Multiplicity = 1

                         Standard orientation:
 ---------------------------------------------------------------------
 Center     Atomic      Atomic             Coordinates (Angstroms)
 Number     Number       Type             X           Y           Z
 ---------------------------------------------------------------------
      1          6           0       -2.852479   -0.675153    0.758132
      2          6           0       -1.372438   -0.702389    0.375089
      3          6           0       -0.472773   -1.158932    1.523985
      4          1           0       -2.989344   -0.008090    1.620246
      5          1           0       -3.157330   -1.678142    1.087489
      6          1           0       -1.070817    0.300028    0.045239
      7          1           0       -1.239110   -1.369316   -0.486333
      8          1           0       -0.745567   -2.168075    1.849277
      9          1           0       -0.576318   -0.489246    2.383869
     10          1           0        0.580938   -1.171017    1.228336
     11          6           0       -3.764551   -0.220780   -0.380023
     12          6           0       -5.244592   -0.193544    0.003021
     13          6           0       -6.144258    0.262999   -1.145876
     14          1           0       -3.459700    0.782209   -0.709379
     15          1           0       -3.627687   -0.887843   -1.242136
     16          1           0       -5.377921    0.473383    0.864443
     17          1           0       -5.546214   -1.195961    0.332871
     18          1           0       -6.040712   -0.406687   -2.005760
     19          1           0       -5.871463    1.272142   -1.471168
     20          1           0       -7.197968    0.275084   -0.850227
     21          6           0        3.304084   -0.311747   -0.268098
     22          6           0        4.698582   -0.909907   -0.456686
     23          6           0        4.673272   -2.430627   -0.613422
     24          1           0        2.834014   -0.765067    0.615350
     25          1           0        2.677222   -0.582162   -1.129094
     26          1           0        5.323035   -0.637282    0.403750
     27          1           0        5.165461   -0.454970   -1.339676
     28          1           0        4.073116   -2.718376   -1.482682
     29          1           0        4.231586   -2.901724    0.270649
     30          1           0        5.680575   -2.837273   -0.746987
     31          6           0        3.312946    1.207680   -0.110011
     32          6           0        1.918449    1.805841    0.078577
     33          6           0        1.943758    3.326560    0.235312
     34          1           0        3.939808    1.478095    0.750985
     35          1           0        3.783016    1.661001   -0.993459
     36          1           0        1.451569    1.350904    0.961567
     37          1           0        1.293995    1.533215   -0.781859
     38          1           0        2.385445    3.797657   -0.648759
     39          1           0        2.543915    3.614310    1.104573
     40          1           0        0.936455    3.733205    0.368877
 ---------------------------------------------------------------------

 SCF Done:  E(RHF) =  -470.732701014     A.U. after   11 cycles
 E2 =    -0.1583896889D+01 EUMP2 =    -0.47231659790318D+03

 The electronic state is 1-A.
 Alpha  occ. eigenvalues --  -11.21623 -11.21582 -11.21581 -11.21512 -11.21432
 Alpha  occ. eigenvalues --  -11.21371 -11.21368 -11.21306 -11.21088 -11.21086
 Alpha  occ. eigenvalues --  -11.21058 -11.20974  -1.08469  -1.08378  -1.03561
 Alpha  occ. eigenvalues --   -1.03471  -0.96006  -0.95938  -0.87017  -0.86961
 Alpha  occ. eigenvalues --   -0.79650  -0.79518  -0.78316  -0.78174  -0.65108
 Alpha  occ. eigenvalues --   -0.65014  -0.60977  -0.60864  -0.59432  -0.59261
 Alpha  occ. eigenvalues --   -0.57663  -0.57512  -0.55296  -0.55227  -0.52783
 Alpha  occ. eigenvalues --   -0.52603  -0.52429  -0.52329  -0.49968  -0.49860
 Alpha  occ. eigenvalues --   -0.48048  -0.47785  -0.46695  -0.46533  -0.45870
 Alpha  occ. eigenvalues --   -0.45756  -0.45681  -0.45549  -0.43811  -0.43670
 Alpha virt. eigenvalues --    0.21439   0.23099   0.23740   0.24200   0.25896
 Alpha virt. eigenvalues --    0.26333   0.26703   0.27592   0.28043   0.29112
 Alpha virt. eigenvalues --    0.30602   0.31327   0.31595   0.31940   0.32282

 Mulliken charges:
               1
     1  C   -0.298260
     2  C   -0.302189
     3  C   -0.483843
     4  H    0.149303
     5  H    0.149292
     6  H    0.156410
     7  H    0.151244
     8  H    0.154587
     9  H    0.153541
    10  H    0.168587
    11  C   -0.298149
    12  C   -0.299579
    13  C   -0.475678
    14  H    0.149249
    15  H    0.149486
    16  H    0.151870
    17  H    0.151915
    18  H    0.155113
    19  H    0.155100
    20  H    0.160185
    21  C   -0.304334
    22  C   -0.298916
    23  C   -0.475850
    24  H    0.154462
    25  H    0.149918
    26  H    0.152002
    27  H    0.152108
    28  H    0.155209
    29  H    0.155256
    30  H    0.160398
    31  C   -0.297863
    32  C   -0.305815
    33  C   -0.475683
    34  H    0.149382
    35  H    0.149661
    36  H    0.158276
    37  H    0.153512
    38  H    0.155180
    39  H    0.155214
    40  H    0.159695
 Sum of Mulliken charges =  -0.00000

 Dipole moment (field-independent basis, Debye):
    X=              0.0455    Y=              0.0076    Z=             -0.0092  Tot=              0.0471
 Quadrupole moment (field-independent basis, Debye-Ang):
   XX=            -85.4528   YY=            -85.1791   ZZ=            -84.2375
   XY=              0.4473   XZ=             -0.3887   YZ=              0.3168

 Normal termination of Gaussian 16 at Wed May  5 23:14:33 2021.
