 Gaussian 16, Revision A.03,
 Gaussian 16:  EM64L-G16RevA.03 25-Dec-2016

 -------------
 #p 6-31g* mp2
 -------------

 ------------------------------------------------------
 Input file generated by CHIRIPA (05-May-2021 14:51:10)
 ------------------------------------------------------
 Symbolic Z-matrix:
 Charge =  0 Multiplicity = 1

                         Standard orientation:
 ---------------------------------------------------------------------
 Center     Atomic      Atomic             Coordinates (Angstroms)
 Number     Number       Type             X           Y           Z
 ---------------------------------------------------------------------
      1          6           0       -3.055041   -0.530197   -0.435026
      2          6           0       -4.174221    0.390324    0.052890
      3          6           0       -5.093793    0.853389   -1.077487
      4          1           0       -2.464364   -0.005833   -1.198628
      5          1           0       -3.498935   -1.405265   -0.929604
      6          1           0       -3.728370    1.262718    0.547624
      7          1           0       -4.762185   -0.136223    0.815558
      8          1           0       -5.565526   -0.005070   -1.566483
      9          1           0       -4.525837    1.401820   -1.835939
     10          1           0       -5.886617    1.510353   -0.706423
     11          6           0       -2.127391   -1.001504    0.683484
     12          6           0       -1.008211   -1.922024    0.195568
     13          6           0       -0.088639   -2.385090    1.325945
     14          1           0       -1.683497   -0.126436    1.178063
     15          1           0       -2.718068   -1.525868    1.447086
     16          1           0       -0.420247   -1.395477   -0.567099
     17          1           0       -1.454062   -2.794419   -0.299165
     18          1           0       -0.656595   -2.933521    2.084398
     19          1           0        0.383094   -1.526631    1.814941
     20          1           0        0.704185   -3.042053    0.954881
     21          6           0        2.687696    0.017813   -0.003549
     22          6           0        3.678139   -0.629819   -0.971837
     23          6           0        3.860510   -2.126477   -0.717767
     24          1           0        3.034686   -0.141061    1.026646
     25          1           0        1.717156   -0.490375   -0.088350
     26          1           0        4.646138   -0.119657   -0.886229
     27          1           0        3.328851   -0.469219   -1.999855
     28          1           0        2.907001   -2.654076   -0.822944
     29          1           0        4.231773   -2.302528    0.297009
     30          1           0        4.572621   -2.569243   -1.421128
     31          6           0        2.494736    1.513887   -0.244910
     32          6           0        1.504293    2.161520    0.723378
     33          6           0        1.321922    3.658178    0.469309
     34          1           0        3.465276    2.022076   -0.160107
     35          1           0        2.147747    1.672762   -1.275105
     36          1           0        1.853581    2.000919    1.751396
     37          1           0        0.536294    1.651358    0.637771
     38          1           0        0.950659    3.834228   -0.545467
     39          1           0        2.275431    4.185776    0.574485
     40          1           0        0.609811    4.100943    1.172669
 ---------------------------------------------------------------------

 SCF Done:  E(RHF) =  -470.732534629     A.U. after   11 cycles
 E2 =    -0.1584751625D+01 EUMP2 =    -0.47231728625416D+03

 The electronic state is 1-A.
 Alpha  occ. eigenvalues --  -11.21671 -11.21647 -11.21628 -11.21594 -11.21445
 Alpha  occ. eigenvalues --  -11.21406 -11.21386 -11.21297 -11.21125 -11.21092
 Alpha  occ. eigenvalues --  -11.21069 -11.21021  -1.08508  -1.08411  -1.03586
 Alpha  occ. eigenvalues --   -1.03529  -0.96034  -0.95967  -0.87034  -0.86996
 Alpha  occ. eigenvalues --   -0.79626  -0.79618  -0.78287  -0.78272  -0.65374
 Alpha  occ. eigenvalues --   -0.64853  -0.61060  -0.60888  -0.59465  -0.59267
 Alpha  occ. eigenvalues --   -0.57671  -0.57556  -0.55443  -0.55148  -0.52714
 Alpha  occ. eigenvalues --   -0.52681  -0.52497  -0.52328  -0.49982  -0.49913
 Alpha  occ. eigenvalues --   -0.47964  -0.47904  -0.46785  -0.46577  -0.46020
 Alpha  occ. eigenvalues --   -0.45810  -0.45646  -0.45441  -0.43807  -0.43797
 Alpha virt. eigenvalues --    0.19625   0.22479   0.23785   0.24285   0.26113
 Alpha virt. eigenvalues --    0.26145   0.26748   0.27364   0.28083   0.30206
 Alpha virt. eigenvalues --    0.30538   0.31197   0.31712   0.32037   0.32346

 Mulliken charges:
               1
     1  C   -0.298304
     2  C   -0.299708
     3  C   -0.475718
     4  H    0.149185
     5  H    0.149743
     6  H    0.152017
     7  H    0.152106
     8  H    0.155221
     9  H    0.155144
    10  H    0.160416
    11  C   -0.301168
    12  C   -0.304673
    13  C   -0.480900
    14  H    0.152134
    15  H    0.150359
    16  H    0.153031
    17  H    0.152721
    18  H    0.155655
    19  H    0.158821
    20  H    0.162437
    21  C   -0.309868
    22  C   -0.299057
    23  C   -0.477543
    24  H    0.149309
    25  H    0.164148
    26  H    0.151792
    27  H    0.151335
    28  H    0.156654
    29  H    0.155511
    30  H    0.160175
    31  C   -0.297367
    32  C   -0.303509
    33  C   -0.475519
    34  H    0.149677
    35  H    0.148967
    36  H    0.152149
    37  H    0.153541
    38  H    0.155155
    39  H    0.155686
    40  H    0.160245
 Sum of Mulliken charges =  -0.00000

 Dipole moment (field-independent basis, Debye):
    X=             -0.0051    Y=             -0.0100    Z=              0.0185  Tot=              0.0216
 Quadrupole moment (field-independent basis, Debye-Ang):
   XX=            -84.4562   YY=            -85.4438   ZZ=            -84.8441
   XY=              1.2165   XZ=             -0.1155   YZ=              0.3524

 Normal termination of Gaussian 16 at Wed May  5 21:23:42 2021.
