 Gaussian 16, Revision A.03,
 Gaussian 16:  EM64L-G16RevA.03 25-Dec-2016

 -------------
 #p 6-31g* mp2
 -------------

 ------------------------------------------------------
 Input file generated by CHIRIPA (05-May-2021 14:51:08)
 ------------------------------------------------------
 Symbolic Z-matrix:
 Charge =  0 Multiplicity = 1

                         Standard orientation:
 ---------------------------------------------------------------------
 Center     Atomic      Atomic             Coordinates (Angstroms)
 Number     Number       Type             X           Y           Z
 ---------------------------------------------------------------------
      1          6           0        2.319746    0.534334   -0.199711
      2          6           0        3.549924    1.394219   -0.491679
      3          6           0        3.205403    2.686937   -1.231936
      4          1           0        1.815602    0.293645   -1.145677
      5          1           0        1.604927    1.119380    0.395393
      6          1           0        4.262811    0.807262   -1.084882
      7          1           0        4.051306    1.632730    0.455076
      8          1           0        2.512687    3.295793   -0.641987
      9          1           0        2.725394    2.465635   -2.190694
     10          1           0        4.099361    3.286344   -1.430457
     11          6           0        2.648002   -0.761395    0.539926
     12          6           0        1.417825   -1.621281    0.831894
     13          6           0        1.762346   -2.913999    1.572151
     14          1           0        3.362822   -1.346442   -0.055178
     15          1           0        3.152146   -0.520706    1.485892
     16          1           0        0.916443   -1.859791   -0.114861
     17          1           0        0.704938   -1.034324    1.425096
     18          1           0        2.242355   -2.692697    2.530909
     19          1           0        2.455062   -3.522854    0.982202
     20          1           0        0.868388   -3.513406    1.770672
     21          6           0       -2.018458   -0.452259   -0.386214
     22          6           0       -2.751963   -1.626102   -1.035868
     23          6           0       -1.807403   -2.750077   -1.462811
     24          1           0       -1.272927   -0.058845   -1.090738
     25          1           0       -1.460972   -0.815905    0.488065
     26          1           0       -3.309011   -1.260102   -1.907852
     27          1           0       -3.495966   -2.016644   -0.329787
     28          1           0       -1.260845   -3.142816   -0.599312
     29          1           0       -1.072827   -2.381975   -2.186344
     30          1           0       -2.352706   -3.578976   -1.924797
     31          6           0       -2.949291    0.679320    0.046000
     32          6           0       -2.215786    1.853163    0.695653
     33          6           0       -3.160345    2.977139    1.122596
     34          1           0       -3.506776    1.042967   -0.828280
     35          1           0       -3.694822    0.285907    0.750524
     36          1           0       -1.471782    2.243705   -0.010428
     37          1           0       -1.658738    1.487163    1.567638
     38          1           0       -3.894922    2.609037    1.846129
     39          1           0       -3.706904    3.369878    0.259098
     40          1           0       -2.615043    3.806038    1.584583
 ---------------------------------------------------------------------

 SCF Done:  E(RHF) =  -470.732049051     A.U. after   11 cycles
 E2 =    -0.1585050481D+01 EUMP2 =    -0.47231709953259D+03

 The electronic state is 1-A.
 Alpha  occ. eigenvalues --  -11.21599 -11.21586 -11.21569 -11.21485 -11.21366
 Alpha  occ. eigenvalues --  -11.21338 -11.21306 -11.21222 -11.21077 -11.21073
 Alpha  occ. eigenvalues --  -11.21071 -11.21063  -1.08453  -1.08338  -1.03564
 Alpha  occ. eigenvalues --   -1.03464  -0.95977  -0.95949  -0.87001  -0.86961
 Alpha  occ. eigenvalues --   -0.79760  -0.79460  -0.78525  -0.77851  -0.65091
 Alpha  occ. eigenvalues --   -0.64977  -0.60957  -0.60895  -0.59469  -0.59202
 Alpha  occ. eigenvalues --   -0.57642  -0.57509  -0.55301  -0.55207  -0.52694
 Alpha  occ. eigenvalues --   -0.52639  -0.52463  -0.52331  -0.49951  -0.49865
 Alpha  occ. eigenvalues --   -0.48243  -0.47715  -0.46633  -0.46577  -0.46330
 Alpha  occ. eigenvalues --   -0.45798  -0.45455  -0.44955  -0.43764  -0.43731
 Alpha virt. eigenvalues --    0.21120   0.22473   0.23284   0.23813   0.25171
 Alpha virt. eigenvalues --    0.25821   0.26648   0.27686   0.28468   0.30222
 Alpha virt. eigenvalues --    0.30881   0.31353   0.31496   0.31806   0.32519

 Mulliken charges:
               1
     1  C   -0.300281
     2  C   -0.299594
     3  C   -0.475702
     4  H    0.149451
     5  H    0.151868
     6  H    0.151824
     7  H    0.151956
     8  H    0.155190
     9  H    0.154704
    10  H    0.160282
    11  C   -0.297785
    12  C   -0.307089
    13  C   -0.476533
    14  H    0.149128
    15  H    0.149012
    16  H    0.160781
    17  H    0.152961
    18  H    0.155010
    19  H    0.155479
    20  H    0.159201
    21  C   -0.304937
    22  C   -0.298887
    23  C   -0.478936
    24  H    0.150540
    25  H    0.158114
    26  H    0.151441
    27  H    0.151447
    28  H    0.158598
    29  H    0.154062
    30  H    0.160340
    31  C   -0.297968
    32  C   -0.300739
    33  C   -0.475612
    34  H    0.149049
    35  H    0.149075
    36  H    0.153255
    37  H    0.150786
    38  H    0.155138
    39  H    0.155413
    40  H    0.159958
 Sum of Mulliken charges =  -0.00000

 Dipole moment (field-independent basis, Debye):
    X=              0.0023    Y=             -0.0103    Z=             -0.0025  Tot=              0.0109
 Quadrupole moment (field-independent basis, Debye-Ang):
   XX=            -85.2477   YY=            -86.1868   ZZ=            -83.6191
   XY=              0.5911   XZ=             -0.1035   YZ=              0.2355

 Normal termination of Gaussian 16 at Thu May  6 03:40:12 2021.
