 Gaussian 16, Revision A.03,
 Gaussian 16:  EM64L-G16RevA.03 25-Dec-2016

 -------------
 #p 6-31g* mp2
 -------------

 ------------------------------------------------------
 Input file generated by CHIRIPA (05-May-2021 14:53:11)
 ------------------------------------------------------
 Symbolic Z-matrix:
 Charge =  0 Multiplicity = 1

                         Standard orientation:
 ---------------------------------------------------------------------
 Center     Atomic      Atomic             Coordinates (Angstroms)
 Number     Number       Type             X           Y           Z
 ---------------------------------------------------------------------
      1          6           0        3.055024   -0.346910   -0.232923
      2          6           0        2.401787   -1.729349   -0.221572
      3          6           0        3.393863   -2.849389    0.093213
      4          1           0        3.867020   -0.338132   -0.972876
      5          1           0        3.521012   -0.161203    0.744708
      6          1           0        1.935978   -1.911826   -1.198476
      7          1           0        1.591127   -1.734780    0.518304
      8          1           0        3.850319   -2.694700    1.076229
      9          1           0        4.197129   -2.872752   -0.650306
     10          1           0        2.905727   -3.828968    0.096181
     11          6           0        2.075995    0.783193   -0.546125
     12          6           0        2.729232    2.165632   -0.557476
     13          6           0        1.737155    3.285672   -0.872261
     14          1           0        1.610006    0.597486   -1.523757
     15          1           0        1.263999    0.774415    0.193828
     16          1           0        3.539891    2.171062   -1.297352
     17          1           0        3.195041    2.348109    0.419427
     18          1           0        0.933890    3.309035   -0.128743
     19          1           0        1.280700    3.130983   -1.855277
     20          1           0        2.225291    4.265251   -0.875230
     21          6           0       -3.097512   -0.809194   -1.878066
     22          6           0       -2.307234   -1.737874   -1.192837
     23          6           0       -1.696679   -1.394898    0.017178
     24          6           0       -1.898617   -0.108669    0.515301
     25          6           0       -2.680288    0.838816   -0.143905
     26          6           0       -3.281193    0.473924   -1.352340
     27          1           0       -3.568057   -1.084140   -2.817421
     28          1           0       -2.162834   -2.735085   -1.598748
     29          1           0       -1.079842   -2.094244    0.568400
     30          1           0       -2.805782    1.825259    0.285747
     31          1           0       -3.894405    1.197203   -1.882323
     32          7           0       -1.257357    0.266026    1.795453
     33          8           0       -1.450843    1.405634    2.213176
     34          8           0       -0.573396   -0.586993    2.356874
 ---------------------------------------------------------------------

 SCF Done:  E(RHF) =  -669.536150672     A.U. after   15 cycles
 E2 =    -0.2093589935D+01 EUMP2 =    -0.67162974060747D+03

 The electronic state is 1-A.
 Alpha  occ. eigenvalues --  -20.60966 -20.60961 -15.85975 -11.31225 -11.27797
 Alpha  occ. eigenvalues --  -11.27783 -11.27530 -11.26791 -11.26780 -11.21311
 Alpha  occ. eigenvalues --  -11.21235 -11.21068 -11.21004 -11.20852 -11.20734
 Alpha  occ. eigenvalues --   -1.60024  -1.39580  -1.19399  -1.08823  -1.08095
 Alpha  occ. eigenvalues --   -1.04787  -1.03220  -0.95684  -0.95664  -0.86694
 Alpha  occ. eigenvalues --   -0.86195  -0.82508  -0.79302  -0.77969  -0.77545
 Alpha  occ. eigenvalues --   -0.72206  -0.71348  -0.70518  -0.65063  -0.64816
 Alpha  occ. eigenvalues --   -0.64668  -0.62147  -0.60593  -0.59057  -0.57302
 Alpha  occ. eigenvalues --   -0.55305  -0.54944  -0.53127  -0.52889  -0.52377
 Alpha  occ. eigenvalues --   -0.52112  -0.49607  -0.48981  -0.48954  -0.47620
 Alpha  occ. eigenvalues --   -0.46311  -0.45557  -0.45409  -0.44819  -0.43474
 Alpha  occ. eigenvalues --   -0.37363  -0.36367
 Alpha virt. eigenvalues --    0.04915   0.11211   0.16409   0.21125   0.23210
 Alpha virt. eigenvalues --    0.24405   0.26016   0.27091   0.27642   0.28072
 Alpha virt. eigenvalues --    0.28857   0.30530   0.31293   0.31924   0.32173

 Mulliken charges:
               1
     1  C   -0.296381
     2  C   -0.309917
     3  C   -0.474763
     4  H    0.147032
     5  H    0.155039
     6  H    0.144234
     7  H    0.164479
     8  H    0.159448
     9  H    0.153466
    10  H    0.155732
    11  C   -0.300441
    12  C   -0.298957
    13  C   -0.478011
    14  H    0.145282
    15  H    0.152447
    16  H    0.149522
    17  H    0.156305
    18  H    0.161153
    19  H    0.150238
    20  H    0.159623
    21  C   -0.170420
    22  C   -0.219477
    23  C   -0.168594
    24  C    0.155974
    25  C   -0.170551
    26  C   -0.218630
    27  H    0.225723
    28  H    0.223807
    29  H    0.276976
    30  H    0.275584
    31  H    0.223619
    32  N    0.490100
    33  O   -0.458998
    34  O   -0.460644
 Sum of Mulliken charges =  -0.00000

 Dipole moment (field-independent basis, Debye):
    X=             -2.3254    Y=             -1.2690    Z=             -4.3602  Tot=              5.1019
 Quadrupole moment (field-independent basis, Debye-Ang):
   XX=            -86.2396   YY=            -91.4851   ZZ=            -99.2454
   XY=              1.3170   XZ=              7.8544   YZ=             -0.1325

 Normal termination of Gaussian 16 at Thu May  6 05:41:46 2021.
