 Gaussian 16, Revision A.03,
 Gaussian 16:  EM64L-G16RevA.03 25-Dec-2016

 -------------
 #p 6-31g* mp2
 -------------

 ------------------------------------------------------
 Input file generated by CHIRIPA (05-May-2021 14:55:23)
 ------------------------------------------------------
 Symbolic Z-matrix:
 Charge =  0 Multiplicity = 1

                         Standard orientation:
 ---------------------------------------------------------------------
 Center     Atomic      Atomic             Coordinates (Angstroms)
 Number     Number       Type             X           Y           Z
 ---------------------------------------------------------------------
      1          6           0        1.932491    2.487242    0.333885
      2          6           0        2.436538    2.155278   -0.927962
      3          6           0        3.055304    0.920178   -1.142915
      4          6           0        3.153360    0.037016   -0.068811
      5          6           0        2.661057    0.338676    1.200019
      6          6           0        2.046159    1.579481    1.391983
      7          1           0        1.453321    3.448913    0.491936
      8          1           0        2.349667    2.858291   -1.751535
      9          1           0        3.454248    0.637521   -2.109541
     10          1           0        2.762462   -0.382843    2.001609
     11          1           0        1.655625    1.834598    2.373025
     12          7           0        3.806372   -1.273549   -0.284203
     13          8           0        3.880258   -2.034122    0.678453
     14          8           0        4.231953   -1.515381   -1.411605
     15          6           0       -4.626138   -0.368063    0.270850
     16          6           0       -5.621259    0.136782   -0.774546
     17          6           0       -7.072726    0.041947   -0.303329
     18          1           0       -4.864487   -1.410885    0.521168
     19          1           0       -4.750953    0.211786    1.195832
     20          1           0       -5.493659   -0.442923   -1.697734
     21          1           0       -5.380397    1.178462   -1.022545
     22          1           0       -7.222486    0.634937    0.604711
     23          1           0       -7.336392   -0.995662   -0.074314
     24          1           0       -7.767142    0.408040   -1.065970
     25          6           0       -3.170944   -0.279650   -0.185572
     26          6           0       -2.175825   -0.784495    0.859824
     27          6           0       -0.724358   -0.689661    0.388607
     28          1           0       -3.046131   -0.859500   -1.110554
     29          1           0       -2.932597    0.763171   -0.435890
     30          1           0       -2.416686   -1.826175    1.107823
     31          1           0       -2.303424   -0.204789    1.783011
     32          1           0       -0.460691    0.347949    0.159591
     33          1           0       -0.574597   -1.282649   -0.519433
     34          1           0       -0.029942   -1.055754    1.151248
 ---------------------------------------------------------------------

 SCF Done:  E(RHF) =  -669.534414608     A.U. after   15 cycles
 E2 =    -0.2092981714D+01 EUMP2 =    -0.67162739632156D+03

 The electronic state is 1-A.
 Alpha  occ. eigenvalues --  -20.60758 -20.60752 -15.85810 -11.31178 -11.27751
 Alpha  occ. eigenvalues --  -11.27728 -11.27502 -11.26784 -11.26744 -11.21775
 Alpha  occ. eigenvalues --  -11.21728 -11.21580 -11.21520 -11.21226 -11.21049
 Alpha  occ. eigenvalues --   -1.59831  -1.39386  -1.19360  -1.08758  -1.08590
 Alpha  occ. eigenvalues --   -1.04769  -1.03663  -0.96111  -0.95589  -0.87129
 Alpha  occ. eigenvalues --   -0.86166  -0.82421  -0.79736  -0.78410  -0.77465
 Alpha  occ. eigenvalues --   -0.72031  -0.71151  -0.70481  -0.65227  -0.65015
 Alpha  occ. eigenvalues --   -0.64774  -0.62118  -0.61078  -0.59499  -0.57725
 Alpha  occ. eigenvalues --   -0.55468  -0.55275  -0.53470  -0.52868  -0.52616
 Alpha  occ. eigenvalues --   -0.52323  -0.49999  -0.48789  -0.48785  -0.48038
 Alpha  occ. eigenvalues --   -0.46761  -0.45939  -0.45880  -0.44792  -0.43936
 Alpha  occ. eigenvalues --   -0.37323  -0.36273
 Alpha virt. eigenvalues --    0.05060   0.11225   0.16523   0.21276   0.22722
 Alpha virt. eigenvalues --    0.24157   0.26481   0.26929   0.27349   0.27917
 Alpha virt. eigenvalues --    0.28348   0.30704   0.31259   0.31460   0.31761

 Mulliken charges:
               1
     1  C   -0.172867
     2  C   -0.217864
     3  C   -0.171079
     4  C    0.161215
     5  C   -0.168526
     6  C   -0.215221
     7  H    0.225377
     8  H    0.223470
     9  H    0.275601
    10  H    0.274952
    11  H    0.223218
    12  N    0.488041
    13  O   -0.460746
    14  O   -0.460505
    15  C   -0.298164
    16  C   -0.299549
    17  C   -0.475723
    18  H    0.151057
    19  H    0.148167
    20  H    0.152803
    21  H    0.150399
    22  H    0.154641
    23  H    0.156065
    24  H    0.160440
    25  C   -0.297899
    26  C   -0.300155
    27  C   -0.477264
    28  H    0.151230
    29  H    0.146243
    30  H    0.153965
    31  H    0.147320
    32  H    0.156482
    33  H    0.157114
    34  H    0.157764
 Sum of Mulliken charges =  -0.00000

 Dipole moment (field-independent basis, Debye):
    X=             -2.2486    Y=              4.6064    Z=              0.7371  Tot=              5.1787
 Quadrupole moment (field-independent basis, Debye-Ang):
   XX=           -111.2677   YY=            -93.8541   ZZ=            -90.2589
   XY=             14.9665   XZ=              1.9862   YZ=             -1.1936

 Normal termination of Gaussian 16 at Thu May  6 04:42:45 2021.
