 Gaussian 16, Revision A.03,
 Gaussian 16:  EM64L-G16RevA.03 25-Dec-2016

 -------------
 #p 6-31g* mp2
 -------------

 ------------------------------------------------------
 Input file generated by CHIRIPA (05-May-2021 14:57:23)
 ------------------------------------------------------
 Symbolic Z-matrix:
 Charge =  0 Multiplicity = 1

                         Standard orientation:
 ---------------------------------------------------------------------
 Center     Atomic      Atomic             Coordinates (Angstroms)
 Number     Number       Type             X           Y           Z
 ---------------------------------------------------------------------
      1          6           0       -1.803972    1.871905   -0.316752
      2          6           0       -1.393019    0.576989    0.016161
      3          6           0       -2.323384   -0.462947    0.102787
      4          6           0       -3.662684   -0.171134   -0.151003
      5          6           0       -4.103193    1.108603   -0.484942
      6          6           0       -3.155365    2.133119   -0.565802
      7          1           0       -1.074459    2.673762   -0.381806
      8          1           0       -0.344169    0.371208    0.210099
      9          1           0       -2.032649   -1.474622    0.358532
     10          1           0       -5.155683    1.282980   -0.672757
     11          1           0       -3.477389    3.137804   -0.824554
     12          7           0       -4.656863   -1.263904   -0.062347
     13          8           0       -5.830926   -0.980850   -0.290590
     14          8           0       -4.243214   -2.382781    0.233705
     15          6           0        1.866337    1.052210    1.770228
     16          6           0        2.514899   -0.137780    2.116362
     17          6           0        3.421379   -0.734638    1.235112
     18          6           0        3.656655   -0.111559    0.010486
     19          6           0        3.026211    1.074268   -0.363206
     20          6           0        2.123609    1.653377    0.533728
     21          1           0        1.163667    1.508970    2.460896
     22          1           0        2.317045   -0.606885    3.075967
     23          1           0        3.937359   -1.655704    1.477640
     24          1           0        3.243958    1.518386   -1.326929
     25          1           0        1.621382    2.577559    0.262249
     26          7           0        4.614252   -0.734031   -0.930756
     27          8           0        4.804210   -0.165249   -2.003622
     28          8           0        5.156726   -1.778918   -0.577814
 ---------------------------------------------------------------------

 SCF Done:  E(RHF) =  -868.335978856     A.U. after   16 cycles
 E2 =    -0.2602248742D+01 EUMP2 =    -0.87093822759822D+03

 The electronic state is 1-A.
 Alpha  occ. eigenvalues --  -20.61538 -20.61531 -20.61071 -20.61066 -15.86602
 Alpha  occ. eigenvalues --  -15.86122 -11.32224 -11.31568 -11.28877 -11.28798
 Alpha  occ. eigenvalues --  -11.28629 -11.28122 -11.28088 -11.27982 -11.27971
 Alpha  occ. eigenvalues --  -11.27830 -11.27214 -11.26998  -1.60608  -1.60144
 Alpha  occ. eigenvalues --   -1.40154  -1.39695  -1.20466  -1.19738  -1.09823
 Alpha  occ. eigenvalues --   -1.09141  -1.05893  -1.05131  -0.96583  -0.95970
 Alpha  occ. eigenvalues --   -0.87291  -0.86532  -0.83400  -0.82781  -0.78397
 Alpha  occ. eigenvalues --   -0.77803  -0.72813  -0.72342  -0.71937  -0.71524
 Alpha  occ. eigenvalues --   -0.71467  -0.70934  -0.66105  -0.65911  -0.65382
 Alpha  occ. eigenvalues --   -0.65145  -0.63199  -0.62501  -0.56368  -0.55758
 Alpha  occ. eigenvalues --   -0.54391  -0.53945  -0.53485  -0.52995  -0.49593
 Alpha  occ. eigenvalues --   -0.49551  -0.49103  -0.49092  -0.45501  -0.45082
 Alpha  occ. eigenvalues --   -0.38458  -0.37763  -0.37504  -0.36715
 Alpha virt. eigenvalues --    0.04117   0.04705   0.10014   0.10861   0.15506
 Alpha virt. eigenvalues --    0.16209   0.18865   0.21857   0.24697   0.27250
 Alpha virt. eigenvalues --    0.27477   0.28576   0.30068   0.31160   0.32571

 Mulliken charges:
               1
     1  C   -0.177469
     2  C   -0.228815
     3  C   -0.173521
     4  C    0.159945
     5  C   -0.171570
     6  C   -0.217407
     7  H    0.216073
     8  H    0.239170
     9  H    0.276552
    10  H    0.276639
    11  H    0.223760
    12  N    0.487826
    13  O   -0.459409
    14  O   -0.459450
    15  C   -0.180650
    16  C   -0.218136
    17  C   -0.169431
    18  C    0.159239
    19  C   -0.168207
    20  C   -0.230600
    21  H    0.231342
    22  H    0.229326
    23  H    0.280474
    24  H    0.279028
    25  H    0.221795
    26  N    0.488066
    27  O   -0.457902
    28  O   -0.456666
 Sum of Mulliken charges =  -0.00000

 Dipole moment (field-independent basis, Debye):
    X=              0.4247    Y=              5.8354    Z=              3.0504  Tot=              6.5982
 Quadrupole moment (field-independent basis, Debye-Ang):
   XX=           -152.0249   YY=           -102.7055   ZZ=           -103.0690
   XY=             -9.9033   XZ=             14.5515   YZ=             -4.6484

 Normal termination of Gaussian 16 at Fri May  7 01:50:20 2021.
