 Gaussian 16, Revision A.03,
 Gaussian 16:  EM64L-G16RevA.03 25-Dec-2016

 -------------
 #p 6-31g* mp2
 -------------

 ------------------------------------------------------
 Input file generated by CHIRIPA (05-May-2021 14:55:22)
 ------------------------------------------------------
 Symbolic Z-matrix:
 Charge =  0 Multiplicity = 1

                         Standard orientation:
 ---------------------------------------------------------------------
 Center     Atomic      Atomic             Coordinates (Angstroms)
 Number     Number       Type             X           Y           Z
 ---------------------------------------------------------------------
      1          6           0       -5.065940    0.008973   -0.712545
      2          6           0       -4.055481   -0.361223   -1.606104
      3          6           0       -2.746219   -0.556153   -1.156233
      4          6           0       -2.481571   -0.371470    0.199918
      5          6           0       -3.466611   -0.002822    1.114841
      6          6           0       -4.768804    0.186679    0.642686
      7          1           0       -6.080261    0.158290   -1.070671
      8          1           0       -4.283337   -0.499938   -2.659140
      9          1           0       -1.944802   -0.842911   -1.826247
     10          1           0       -3.208875    0.128020    2.158810
     11          1           0       -5.551533    0.474160    1.338916
     12          7           0       -1.099256   -0.574959    0.687971
     13          8           0       -0.891933   -0.405975    1.887596
     14          8           0       -0.249294   -0.899585   -0.138358
     15          6           0        3.471650    1.191159   -0.063845
     16          6           0        2.105149    1.835797   -0.298577
     17          6           0        2.128512    3.353742   -0.116660
     18          1           0        3.815636    1.435053    0.950617
     19          1           0        4.201585    1.633153   -0.756110
     20          1           0        1.377708    1.391734    0.392981
     21          1           0        1.764290    1.590181   -1.312531
     22          1           0        2.832798    3.814830   -0.816646
     23          1           0        2.444020    3.615255    0.898557
     24          1           0        1.141455    3.793992   -0.289167
     25          6           0        3.464397   -0.326051   -0.242025
     26          6           0        4.830898   -0.970690   -0.007293
     27          6           0        4.807536   -2.488635   -0.189210
     28          1           0        2.734462   -0.768046    0.450241
     29          1           0        3.120411   -0.569946   -1.256488
     30          1           0        5.171757   -0.725074    1.006661
     31          1           0        5.558340   -0.526628   -0.698852
     32          1           0        4.492027   -2.750149   -1.204428
     33          1           0        4.103249   -2.949723    0.510775
     34          1           0        5.794592   -2.928886   -0.016704
 ---------------------------------------------------------------------

 SCF Done:  E(RHF) =  -669.536257763     A.U. after   15 cycles
 E2 =    -0.2092278735D+01 EUMP2 =    -0.67162853649800D+03

 The electronic state is 1-A.
 Alpha  occ. eigenvalues --  -20.61069 -20.61038 -15.86050 -11.31346 -11.27903
 Alpha  occ. eigenvalues --  -11.27899 -11.27635 -11.26900 -11.26891 -11.20378
 Alpha  occ. eigenvalues --  -11.20199 -11.20095 -11.20057 -11.19997 -11.19715
 Alpha  occ. eigenvalues --   -1.60102  -1.39656  -1.19509  -1.08921  -1.07056
 Alpha  occ. eigenvalues --   -1.04899  -1.02318  -0.95768  -0.94782  -0.86301
 Alpha  occ. eigenvalues --   -0.85805  -0.82604  -0.78358  -0.77664  -0.76821
 Alpha  occ. eigenvalues --   -0.72262  -0.71408  -0.70618  -0.65163  -0.64903
 Alpha  occ. eigenvalues --   -0.63691  -0.62246  -0.59723  -0.58162  -0.56388
 Alpha  occ. eigenvalues --   -0.55407  -0.54077  -0.53234  -0.52990  -0.51542
 Alpha  occ. eigenvalues --   -0.51207  -0.49100  -0.49043  -0.48724  -0.46707
 Alpha  occ. eigenvalues --   -0.45379  -0.45107  -0.44358  -0.44098  -0.42518
 Alpha  occ. eigenvalues --   -0.37483  -0.36497
 Alpha virt. eigenvalues --    0.04835   0.11159   0.16339   0.21287   0.24185
 Alpha virt. eigenvalues --    0.25392   0.27210   0.27995   0.28084   0.28868
 Alpha virt. eigenvalues --    0.29300   0.30933   0.32334   0.32552   0.32808

 Mulliken charges:
               1
     1  C   -0.170396
     2  C   -0.218618
     3  C   -0.170510
     4  C    0.159006
     5  C   -0.170661
     6  C   -0.218631
     7  H    0.226214
     8  H    0.224036
     9  H    0.276038
    10  H    0.275900
    11  H    0.224004
    12  N    0.487739
    13  O   -0.460819
    14  O   -0.456910
    15  C   -0.297983
    16  C   -0.300904
    17  C   -0.474954
    18  H    0.146768
    19  H    0.142132
    20  H    0.167627
    21  H    0.147467
    22  H    0.150578
    23  H    0.153760
    24  H    0.153461
    25  C   -0.300572
    26  C   -0.299213
    27  C   -0.474392
    28  H    0.172518
    29  H    0.146465
    30  H    0.149139
    31  H    0.146030
    32  H    0.152743
    33  H    0.158066
    34  H    0.154873
 Sum of Mulliken charges =  -0.00000

 Dipole moment (field-independent basis, Debye):
    X=             -5.2638    Y=              0.5235    Z=             -1.6280  Tot=              5.5346
 Quadrupole moment (field-independent basis, Debye-Ang):
   XX=            -72.1081   YY=            -98.0221   ZZ=            -90.2801
   XY=             -0.4747   XZ=              1.9645   YZ=              1.8918

 Normal termination of Gaussian 16 at Wed May  5 19:03:27 2021.
