 Gaussian 16, Revision A.03,
 Gaussian 16:  EM64L-G16RevA.03 25-Dec-2016

 -------------
 #p 6-31g* mp2
 -------------

 ------------------------------------------------------
 Input file generated by CHIRIPA (05-May-2021 14:57:27)
 ------------------------------------------------------
 Symbolic Z-matrix:
 Charge =  0 Multiplicity = 1

                         Standard orientation:
 ---------------------------------------------------------------------
 Center     Atomic      Atomic             Coordinates (Angstroms)
 Number     Number       Type             X           Y           Z
 ---------------------------------------------------------------------
      1          6           0        4.531967    1.783113   -0.769332
      2          6           0        3.137612    1.790170   -0.879987
      3          6           0        2.391403    0.662790   -0.523991
      4          6           0        3.075147   -0.459527   -0.059030
      5          6           0        4.463346   -0.497401    0.062461
      6          6           0        5.189225    0.641363   -0.299289
      7          1           0        5.103744    2.663311   -1.048113
      8          1           0        2.624504    2.675459   -1.244718
      9          1           0        1.311029    0.641038   -0.599738
     10          1           0        4.946670   -1.394751    0.429311
     11          1           0        6.272004    0.633030   -0.212313
     12          7           0        2.295930   -1.659060    0.320893
     13          8           0        2.922089   -2.635285    0.727766
     14          8           0        1.073774   -1.600315    0.204610
     15          6           0       -2.019330    2.206782    1.208225
     16          6           0       -3.091573    2.436674    0.339913
     17          6           0       -3.755112    1.366630   -0.267762
     18          6           0       -3.318060    0.073799    0.016600
     19          6           0       -2.252998   -0.187616    0.877179
     20          6           0       -1.604197    0.897679    1.473619
     21          1           0       -1.509601    3.043942    1.675918
     22          1           0       -3.416139    3.452282    0.131961
     23          1           0       -4.588066    1.516046   -0.943988
     24          1           0       -1.952303   -1.211192    1.065040
     25          1           0       -0.771779    0.716147    2.147542
     26          7           0       -4.012718   -1.067082   -0.620772
     27          8           0       -3.608383   -2.196638   -0.353841
     28          8           0       -4.948372   -0.810143   -1.375206
 ---------------------------------------------------------------------

 SCF Done:  E(RHF) =  -868.338720681     A.U. after   16 cycles
 E2 =    -0.2599847004D+01 EUMP2 =    -0.87093856768456D+03

 The electronic state is 1-A.
 Alpha  occ. eigenvalues --  -20.61315 -20.61270 -20.60235 -20.60191 -15.86341
 Alpha  occ. eigenvalues --  -15.85271 -11.31640 -11.30700 -11.28192 -11.28188
 Alpha  occ. eigenvalues --  -11.27935 -11.27392 -11.27213 -11.27194 -11.27186
 Alpha  occ. eigenvalues --  -11.27168 -11.26440 -11.26307  -1.60362  -1.59292
 Alpha  occ. eigenvalues --   -1.39919  -1.38839  -1.19809  -1.18931  -1.09216
 Alpha  occ. eigenvalues --   -1.08338  -1.05200  -1.04318  -0.96059  -0.95136
 Alpha  occ. eigenvalues --   -0.86600  -0.85728  -0.82896  -0.81944  -0.77952
 Alpha  occ. eigenvalues --   -0.76948  -0.72566  -0.71685  -0.71488  -0.70908
 Alpha  occ. eigenvalues --   -0.70619  -0.70047  -0.65462  -0.65199  -0.64576
 Alpha  occ. eigenvalues --   -0.64323  -0.62541  -0.61618  -0.55700  -0.54897
 Alpha  occ. eigenvalues --   -0.53540  -0.53297  -0.52681  -0.52394  -0.49311
 Alpha  occ. eigenvalues --   -0.49299  -0.48268  -0.48225  -0.45338  -0.44227
 Alpha  occ. eigenvalues --   -0.37792  -0.37004  -0.36801  -0.35912
 Alpha virt. eigenvalues --    0.04555   0.05556   0.10817   0.11702   0.16052
 Alpha virt. eigenvalues --    0.16961   0.20977   0.21854   0.26874   0.27523
 Alpha virt. eigenvalues --    0.28105   0.28753   0.30555   0.31313   0.32093

 Mulliken charges:
               1
     1  C   -0.170425
     2  C   -0.219519
     3  C   -0.175329
     4  C    0.157217
     5  C   -0.170451
     6  C   -0.218629
     7  H    0.226601
     8  H    0.223278
     9  H    0.277747
    10  H    0.276864
    11  H    0.224949
    12  N    0.489820
    13  O   -0.456175
    14  O   -0.466679
    15  C   -0.175606
    16  C   -0.220609
    17  C   -0.171649
    18  C    0.155206
    19  C   -0.164241
    20  C   -0.224644
    21  H    0.221176
    22  H    0.220028
    23  H    0.274067
    24  H    0.291699
    25  H    0.226088
    26  N    0.487800
    27  O   -0.454152
    28  O   -0.464434
 Sum of Mulliken charges =  -0.00000

 Dipole moment (field-independent basis, Debye):
    X=              5.4014    Y=              7.9452    Z=              0.9373  Tot=              9.6529
 Quadrupole moment (field-independent basis, Debye-Ang):
   XX=            -99.2348   YY=           -106.0153   ZZ=           -104.6524
   XY=             -5.3128   XZ=             -9.1730   YZ=             -2.0277

 Normal termination of Gaussian 16 at Thu May  6 00:28:55 2021.
