 Gaussian 16, Revision A.03,
 Gaussian 16:  EM64L-G16RevA.03 25-Dec-2016

 -------------
 #p 6-31g* mp2
 -------------

 ------------------------------------------------------
 Input file generated by CHIRIPA (05-May-2021 14:55:25)
 ------------------------------------------------------
 Symbolic Z-matrix:
 Charge =  0 Multiplicity = 1

                         Standard orientation:
 ---------------------------------------------------------------------
 Center     Atomic      Atomic             Coordinates (Angstroms)
 Number     Number       Type             X           Y           Z
 ---------------------------------------------------------------------
      1          6           0        1.123178   -2.556160    0.540122
      2          6           0        0.636466   -1.380746    1.121531
      3          6           0        1.271722   -0.157397    0.888265
      4          6           0        2.396375   -0.145931    0.064667
      5          6           0        2.905367   -1.299947   -0.529021
      6          6           0        2.254081   -2.512086   -0.281849
      7          1           0        0.623470   -3.502133    0.726730
      8          1           0       -0.241615   -1.411974    1.760314
      9          1           0        0.916162    0.767638    1.325651
     10          1           0        3.782721   -1.237197   -1.161263
     11          1           0        2.634295   -3.423348   -0.734712
     12          7           0        3.077377    1.143241   -0.189641
     13          8           0        4.066476    1.126645   -0.919056
     14          8           0        2.609152    2.145878    0.345261
     15          6           0       -2.986526    1.182043   -0.373780
     16          6           0       -2.134640    2.161547    0.434210
     17          6           0       -2.271005    3.604532   -0.052607
     18          1           0       -2.698505    1.242193   -1.432256
     19          1           0       -4.039641    1.490709   -0.318382
     20          1           0       -1.083616    1.850333    0.378442
     21          1           0       -2.424590    2.098920    1.490914
     22          1           0       -3.311120    3.938629    0.019109
     23          1           0       -1.962526    3.688631   -1.099683
     24          1           0       -1.653646    4.287813    0.538877
     25          6           0       -2.860868   -0.264534    0.100934
     26          6           0       -3.712753   -1.244037   -0.707057
     27          6           0       -3.576388   -2.687023   -0.220240
     28          1           0       -1.807752   -0.573199    0.045535
     29          1           0       -3.148888   -0.324684    1.159409
     30          1           0       -3.422803   -1.181410   -1.763761
     31          1           0       -4.763777   -0.932824   -0.651289
     32          1           0       -3.884867   -2.771121    0.826836
     33          1           0       -2.536274   -3.021120   -0.291956
     34          1           0       -4.193748   -3.370304   -0.811724
 ---------------------------------------------------------------------

 SCF Done:  E(RHF) =  -669.534603934     A.U. after   15 cycles
 E2 =    -0.2094133212D+01 EUMP2 =    -0.67162873714633D+03

 The electronic state is 1-A.
 Alpha  occ. eigenvalues --  -20.60828 -20.60822 -15.85878 -11.31259 -11.27811
 Alpha  occ. eigenvalues --  -11.27784 -11.27547 -11.26843 -11.26788 -11.22110
 Alpha  occ. eigenvalues --  -11.21842 -11.21823 -11.21781 -11.21658 -11.21022
 Alpha  occ. eigenvalues --   -1.59901  -1.39454  -1.19432  -1.08856  -1.08790
 Alpha  occ. eigenvalues --   -1.04833  -1.03888  -0.96332  -0.95651  -0.87355
 Alpha  occ. eigenvalues --   -0.86224  -0.82489  -0.79984  -0.78713  -0.77491
 Alpha  occ. eigenvalues --   -0.72095  -0.71224  -0.70527  -0.65475  -0.65071
 Alpha  occ. eigenvalues --   -0.64837  -0.62174  -0.61267  -0.59717  -0.57951
 Alpha  occ. eigenvalues --   -0.55643  -0.55318  -0.53225  -0.53023  -0.52974
 Alpha  occ. eigenvalues --   -0.52658  -0.50271  -0.48857  -0.48851  -0.48276
 Alpha  occ. eigenvalues --   -0.47006  -0.46180  -0.46095  -0.44847  -0.44128
 Alpha  occ. eigenvalues --   -0.37395  -0.36332
 Alpha virt. eigenvalues --    0.04941   0.11063   0.16367   0.20484   0.22891
 Alpha virt. eigenvalues --    0.23504   0.25715   0.26095   0.26929   0.28146
 Alpha virt. eigenvalues --    0.29326   0.30256   0.31041   0.31398   0.32003

 Mulliken charges:
               1
     1  C   -0.173870
     2  C   -0.220179
     3  C   -0.173761
     4  C    0.158550
     5  C   -0.171143
     6  C   -0.218050
     7  H    0.226912
     8  H    0.229599
     9  H    0.279854
    10  H    0.275783
    11  H    0.223878
    12  N    0.488131
    13  O   -0.460002
    14  O   -0.460692
    15  C   -0.296851
    16  C   -0.306557
    17  C   -0.474923
    18  H    0.152630
    19  H    0.150629
    20  H    0.153973
    21  H    0.148637
    22  H    0.153975
    23  H    0.158562
    24  H    0.165737
    25  C   -0.310269
    26  C   -0.298105
    27  C   -0.476876
    28  H    0.156175
    29  H    0.144131
    30  H    0.154653
    31  H    0.154147
    32  H    0.153755
    33  H    0.148271
    34  H    0.163296
 Sum of Mulliken charges =  -0.00000

 Dipole moment (field-independent basis, Debye):
    X=             -2.3666    Y=             -4.4525    Z=              0.8209  Tot=              5.1088
 Quadrupole moment (field-independent basis, Debye-Ang):
   XX=           -103.8720   YY=            -93.6519   ZZ=            -93.1340
   XY=            -12.7100   XZ=             -0.4642   YZ=              1.4224

 Normal termination of Gaussian 16 at Thu May  6 08:01:07 2021.
