 Gaussian 16, Revision A.03,
 Gaussian 16:  EM64L-G16RevA.03 25-Dec-2016

 -------------
 #p 6-31g* mp2
 -------------

 ------------------------------------------------------
 Input file generated by CHIRIPA (05-May-2021 14:51:12)
 ------------------------------------------------------
 Symbolic Z-matrix:
 Charge =  0 Multiplicity = 1

                         Standard orientation:
 ---------------------------------------------------------------------
 Center     Atomic      Atomic             Coordinates (Angstroms)
 Number     Number       Type             X           Y           Z
 ---------------------------------------------------------------------
      1          6           0       -4.111711    0.660344    0.119547
      2          6           0       -3.657672    2.071737   -0.254357
      3          6           0       -4.728406    3.128728    0.017841
      4          1           0       -5.023088    0.414291   -0.442410
      5          1           0       -4.385629    0.640611    1.183490
      6          1           0       -3.383375    2.088465   -1.316947
      7          1           0       -2.747161    2.314385    0.308412
      8          1           0       -4.996326    3.141241    1.079285
      9          1           0       -5.636154    2.914037   -0.555309
     10          1           0       -4.382793    4.130260   -0.256652
     11          6           0       -3.052123   -0.407393   -0.146795
     12          6           0       -3.506162   -1.818786    0.227109
     13          6           0       -2.435428   -2.875777   -0.045089
     14          1           0       -2.778204   -0.387660   -1.210738
     15          1           0       -2.140746   -0.161340    0.415162
     16          1           0       -4.416672   -2.061434   -0.335660
     17          1           0       -3.780458   -1.835514    1.289699
     18          1           0       -1.527679   -2.661086    0.528061
     19          1           0       -2.167508   -2.888290   -1.106533
     20          1           0       -2.781041   -3.877309    0.229404
     21          6           0        2.997755   -0.539246    0.281594
     22          6           0        2.843162   -1.892992   -0.412277
     23          6           0        1.670254   -2.707138    0.134760
     24          1           0        3.132679   -0.700366    1.359917
     25          1           0        2.067000    0.033049    0.165115
     26          1           0        3.774422   -2.462012   -0.295710
     27          1           0        2.708782   -1.728640   -1.489099
     28          1           0        0.729363   -2.162812    0.004245
     29          1           0        1.801058   -2.900350    1.204414
     30          1           0        1.578106   -3.671079   -0.375325
     31          6           0        4.166078    0.286294   -0.254345
     32          6           0        4.320672    1.640041    0.439524
     33          6           0        5.493580    2.454188   -0.107512
     34          1           0        5.096834   -0.286001   -0.137867
     35          1           0        4.031154    0.447414   -1.332670
     36          1           0        4.455052    1.475689    1.516346
     37          1           0        3.389411    2.209061    0.322957
     38          1           0        5.362775    2.647398   -1.177166
     39          1           0        6.434470    1.909860    0.023003
     40          1           0        5.585727    3.418128    0.402573
 ---------------------------------------------------------------------

 SCF Done:  E(RHF) =  -470.733129404     A.U. after   11 cycles
 E2 =    -0.1582434416D+01 EUMP2 =    -0.47231556381999D+03

 The electronic state is 1-A.
 Alpha  occ. eigenvalues --  -11.21617 -11.21596 -11.21581 -11.21566 -11.21419
 Alpha  occ. eigenvalues --  -11.21392 -11.21360 -11.21333 -11.21082 -11.21066
 Alpha  occ. eigenvalues --  -11.20996 -11.20994  -1.08437  -1.08412  -1.03538
 Alpha  occ. eigenvalues --   -1.03493  -0.96009  -0.95922  -0.87053  -0.86913
 Alpha  occ. eigenvalues --   -0.79658  -0.79506  -0.78267  -0.78212  -0.65080
 Alpha  occ. eigenvalues --   -0.65030  -0.60987  -0.60852  -0.59349  -0.59317
 Alpha  occ. eigenvalues --   -0.57673  -0.57503  -0.55373  -0.55149  -0.52712
 Alpha  occ. eigenvalues --   -0.52645  -0.52526  -0.52224  -0.50039  -0.49778
 Alpha  occ. eigenvalues --   -0.48047  -0.47743  -0.46699  -0.46507  -0.45859
 Alpha  occ. eigenvalues --   -0.45742  -0.45721  -0.45580  -0.43787  -0.43757
 Alpha virt. eigenvalues --    0.22081   0.23068   0.23566   0.24779   0.25973
 Alpha virt. eigenvalues --    0.26809   0.26923   0.27446   0.27930   0.29063
 Alpha virt. eigenvalues --    0.30734   0.31540   0.31664   0.31877   0.32071

 Mulliken charges:
               1
     1  C   -0.298184
     2  C   -0.299682
     3  C   -0.475710
     4  H    0.149821
     5  H    0.149695
     6  H    0.151778
     7  H    0.151834
     8  H    0.155277
     9  H    0.155229
    10  H    0.160241
    11  C   -0.298690
    12  C   -0.299552
    13  C   -0.480803
    14  H    0.149231
    15  H    0.149085
    16  H    0.151749
    17  H    0.151859
    18  H    0.162367
    19  H    0.154716
    20  H    0.160158
    21  C   -0.298427
    22  C   -0.299636
    23  C   -0.479831
    24  H    0.149372
    25  H    0.149406
    26  H    0.151653
    27  H    0.151907
    28  H    0.160170
    29  H    0.154185
    30  H    0.160814
    31  C   -0.298226
    32  C   -0.299657
    33  C   -0.475693
    34  H    0.149534
    35  H    0.149705
    36  H    0.151827
    37  H    0.151898
    38  H    0.155204
    39  H    0.155178
    40  H    0.160199
 Sum of Mulliken charges =  -0.00000

 Dipole moment (field-independent basis, Debye):
    X=             -0.0106    Y=             -0.0134    Z=              0.0020  Tot=              0.0172
 Quadrupole moment (field-independent basis, Debye-Ang):
   XX=            -85.4571   YY=            -85.8470   ZZ=            -83.4985
   XY=             -0.1970   XZ=              1.0916   YZ=             -0.1003

 Normal termination of Gaussian 16 at Thu May  6 03:55:42 2021.
