 Gaussian 16, Revision A.03,
 Gaussian 16:  EM64L-G16RevA.03 25-Dec-2016

 -------------
 #p 6-31g* mp2
 -------------

 ------------------------------------------------------
 Input file generated by CHIRIPA (05-May-2021 14:55:20)
 ------------------------------------------------------
 Symbolic Z-matrix:
 Charge =  0 Multiplicity = 1

                         Standard orientation:
 ---------------------------------------------------------------------
 Center     Atomic      Atomic             Coordinates (Angstroms)
 Number     Number       Type             X           Y           Z
 ---------------------------------------------------------------------
      1          6           0       -2.895959   -1.860112   -0.069936
      2          6           0       -3.007610   -1.042553   -1.199384
      3          6           0       -2.623780    0.300650   -1.144348
      4          6           0       -2.130272    0.795573    0.061800
      5          6           0       -2.007018    0.006323    1.204246
      6          6           0       -2.396899   -1.333992    1.126166
      7          1           0       -3.196478   -2.902422   -0.121640
      8          1           0       -3.394842   -1.448438   -2.129628
      9          1           0       -2.699614    0.955904   -2.003597
     10          1           0       -1.617381    0.439448    2.117484
     11          1           0       -2.309079   -1.966579    2.004896
     12          7           0       -1.720725    2.216033    0.132262
     13          8           0       -1.289004    2.627983    1.206763
     14          8           0       -1.839198    2.890543   -0.888344
     15          6           0        3.303040   -0.252130    0.290405
     16          6           0        4.099600    0.633181   -0.668606
     17          6           0        5.075390    1.560971    0.055846
     18          1           0        2.750975    0.385171    0.994690
     19          1           0        4.001477   -0.850453    0.891729
     20          1           0        3.399830    1.228646   -1.268906
     21          1           0        4.649682   -0.006298   -1.370811
     22          1           0        5.796097    0.980806    0.641161
     23          1           0        4.539144    2.222766    0.743645
     24          1           0        5.634336    2.184796   -0.648627
     25          6           0        2.323252   -1.185217   -0.418883
     26          6           0        1.526693   -2.070528    0.540128
     27          6           0        0.550902   -2.998318   -0.184326
     28          1           0        1.624816   -0.586893   -1.020208
     29          1           0        2.875317   -1.822518   -1.123169
     30          1           0        0.976611   -1.431049    1.242333
     31          1           0        2.226463   -2.665993    1.140428
     32          1           0        1.087149   -3.660113   -0.872124
     33          1           0       -0.169804   -2.418153   -0.769639
     34          1           0       -0.008043   -3.622143    0.520148
 ---------------------------------------------------------------------

 SCF Done:  E(RHF) =  -669.534477192     A.U. after   15 cycles
 E2 =    -0.2094094944D+01 EUMP2 =    -0.67162857213594D+03

 The electronic state is 1-A.
 Alpha  occ. eigenvalues --  -20.60862 -20.60857 -15.85919 -11.31296 -11.27885
 Alpha  occ. eigenvalues --  -11.27869 -11.27569 -11.26860 -11.26836 -11.21748
 Alpha  occ. eigenvalues --  -11.21392 -11.21370 -11.21283 -11.21226 -11.20776
 Alpha  occ. eigenvalues --   -1.59940  -1.39492  -1.19481  -1.08869  -1.08377
 Alpha  occ. eigenvalues --   -1.04879  -1.03489  -0.95963  -0.95682  -0.86978
 Alpha  occ. eigenvalues --   -0.86264  -0.82523  -0.79577  -0.78176  -0.77570
 Alpha  occ. eigenvalues --   -0.72134  -0.71267  -0.70568  -0.65121  -0.65020
 Alpha  occ. eigenvalues --   -0.64867  -0.62223  -0.60932  -0.59354  -0.57560
 Alpha  occ. eigenvalues --   -0.55397  -0.55357  -0.53145  -0.52959  -0.52619
 Alpha  occ. eigenvalues --   -0.52331  -0.49851  -0.48894  -0.48889  -0.47877
 Alpha  occ. eigenvalues --   -0.46613  -0.45717  -0.45628  -0.44896  -0.43758
 Alpha  occ. eigenvalues --   -0.37334  -0.36456
 Alpha virt. eigenvalues --    0.04945   0.11092   0.16396   0.20867   0.22954
 Alpha virt. eigenvalues --    0.24386   0.26401   0.26809   0.27281   0.28194
 Alpha virt. eigenvalues --    0.28668   0.30828   0.31224   0.31605   0.32173

 Mulliken charges:
               1
     1  C   -0.169534
     2  C   -0.219873
     3  C   -0.171264
     4  C    0.157937
     5  C   -0.171959
     6  C   -0.212842
     7  H    0.226951
     8  H    0.224339
     9  H    0.276165
    10  H    0.275935
    11  H    0.224283
    12  N    0.488023
    13  O   -0.460499
    14  O   -0.460191
    15  C   -0.299398
    16  C   -0.300037
    17  C   -0.476313
    18  H    0.153409
    19  H    0.148098
    20  H    0.155284
    21  H    0.150044
    22  H    0.153316
    23  H    0.159010
    24  H    0.160512
    25  C   -0.298535
    26  C   -0.299295
    27  C   -0.477470
    28  H    0.150416
    29  H    0.148927
    30  H    0.149088
    31  H    0.151019
    32  H    0.153563
    33  H    0.162554
    34  H    0.148341
 Sum of Mulliken charges =  -0.00000

 Dipole moment (field-independent basis, Debye):
    X=             -1.5389    Y=             -4.8958    Z=             -0.2676  Tot=              5.1390
 Quadrupole moment (field-independent basis, Debye-Ang):
   XX=            -88.9041   YY=           -103.7519   ZZ=            -90.3975
   XY=              8.8488   XZ=              1.5432   YZ=             -1.3527

 Normal termination of Gaussian 16 at Thu May  6 20:40:05 2021.
