 Gaussian 16, Revision A.03,
 Gaussian 16:  EM64L-G16RevA.03 25-Dec-2016

 -------------
 #p 6-31g* mp2
 -------------

 ------------------------------------------------------
 Input file generated by CHIRIPA (05-May-2021 14:53:12)
 ------------------------------------------------------
 Symbolic Z-matrix:
 Charge =  0 Multiplicity = 1

                         Standard orientation:
 ---------------------------------------------------------------------
 Center     Atomic      Atomic             Coordinates (Angstroms)
 Number     Number       Type             X           Y           Z
 ---------------------------------------------------------------------
      1          6           0        5.076570    0.352757   -0.270206
      2          6           0        5.939875    0.838562    0.894562
      3          6           0        7.074046    1.760398    0.445486
      4          1           0        5.712711   -0.172741   -0.995548
      5          1           0        4.657441    1.222662   -0.794602
      6          1           0        6.356135   -0.032034    1.417446
      7          1           0        5.301573    1.362797    1.617308
      8          1           0        6.673884    2.646632   -0.057566
      9          1           0        7.734438    1.243876   -0.258565
     10          1           0        7.678555    2.095862    1.293951
     11          6           0        3.938485   -0.569737    0.162800
     12          6           0        3.075179   -1.055541   -1.001967
     13          6           0        1.941009   -1.977378   -0.552891
     14          1           0        4.357613   -1.439641    0.687197
     15          1           0        3.302343   -0.044239    0.888142
     16          1           0        3.713482   -1.579777   -1.724714
     17          1           0        2.658920   -0.184946   -1.524851
     18          1           0        1.280617   -1.460855    0.151159
     19          1           0        2.341170   -2.863612   -0.049839
     20          1           0        1.336500   -2.312842   -1.401356
     21          6           0       -5.755642    1.254856    0.115643
     22          6           0       -5.520796    0.142531    0.930569
     23          6           0       -4.286710   -0.513608    0.898017
     24          6           0       -3.305518   -0.028363    0.034831
     25          6           0       -3.509098    1.077390   -0.789277
     26          6           0       -4.750814    1.717918   -0.740169
     27          1           0       -6.717273    1.758497    0.147361
     28          1           0       -6.299314   -0.219299    1.596177
     29          1           0       -4.078075   -1.376924    1.518159
     30          1           0       -2.713599    1.414804   -1.442538
     31          1           0       -4.930387    2.581535   -1.374177
     32          7           0       -1.995007   -0.714725   -0.008394
     33          8           0       -1.146983   -0.267572   -0.777514
     34          8           0       -1.840666   -1.686852    0.727667
 ---------------------------------------------------------------------

 SCF Done:  E(RHF) =  -669.536009179     A.U. after   15 cycles
 E2 =    -0.2091433911D+01 EUMP2 =    -0.67162744308977D+03

 The electronic state is 1-A.
 Alpha  occ. eigenvalues --  -20.61004 -20.60991 -15.86018 -11.31335 -11.27894
 Alpha  occ. eigenvalues --  -11.27889 -11.27628 -11.26896 -11.26886 -11.20878
 Alpha  occ. eigenvalues --  -11.20495 -11.20468 -11.20180 -11.20023 -11.18849
 Alpha  occ. eigenvalues --   -1.60050  -1.39606  -1.19499  -1.08905  -1.07337
 Alpha  occ. eigenvalues --   -1.04892  -1.02301  -0.95750  -0.94715  -0.86293
 Alpha  occ. eigenvalues --   -0.85731  -0.82579  -0.78435  -0.77636  -0.77075
 Alpha  occ. eigenvalues --   -0.72223  -0.71365  -0.70606  -0.65152  -0.64896
 Alpha  occ. eigenvalues --   -0.63979  -0.62239  -0.59701  -0.58217  -0.56319
 Alpha  occ. eigenvalues --   -0.55406  -0.54023  -0.53225  -0.52982  -0.51406
 Alpha  occ. eigenvalues --   -0.51162  -0.49281  -0.48983  -0.48335  -0.46704
 Alpha  occ. eigenvalues --   -0.45462  -0.45021  -0.44604  -0.44471  -0.42557
 Alpha  occ. eigenvalues --   -0.37477  -0.36493
 Alpha virt. eigenvalues --    0.04882   0.11163   0.16385   0.21303   0.23858
 Alpha virt. eigenvalues --    0.25621   0.27221   0.27685   0.28197   0.28503
 Alpha virt. eigenvalues --    0.29384   0.30878   0.32420   0.32626   0.32721

 Mulliken charges:
               1
     1  C   -0.297124
     2  C   -0.298712
     3  C   -0.474995
     4  H    0.147475
     5  H    0.147734
     6  H    0.150877
     7  H    0.150784
     8  H    0.153812
     9  H    0.154174
    10  H    0.157828
    11  C   -0.297307
    12  C   -0.300532
    13  C   -0.469979
    14  H    0.146673
    15  H    0.149593
    16  H    0.143911
    17  H    0.152243
    18  H    0.174932
    19  H    0.142241
    20  H    0.160173
    21  C   -0.170527
    22  C   -0.218590
    23  C   -0.170766
    24  C    0.159007
    25  C   -0.170866
    26  C   -0.218565
    27  H    0.226132
    28  H    0.223979
    29  H    0.276027
    30  H    0.275766
    31  H    0.223939
    32  N    0.487734
    33  O   -0.458493
    34  O   -0.458575
 Sum of Mulliken charges =  -0.00000

 Dipole moment (field-independent basis, Debye):
    X=             -5.0895    Y=              2.4365    Z=              0.1743  Tot=              5.6453
 Quadrupole moment (field-independent basis, Debye-Ang):
   XX=            -66.2169   YY=            -93.3570   ZZ=            -92.9869
   XY=             -7.8714   XZ=             -1.8593   YZ=             -2.4835

 Normal termination of Gaussian 16 at Thu May  6 10:23:36 2021.
