 Gaussian 16, Revision A.03,
 Gaussian 16:  EM64L-G16RevA.03 25-Dec-2016

 -------------
 #p 6-31g* mp2
 -------------

 ------------------------------------------------------
 Input file generated by CHIRIPA (05-May-2021 14:57:24)
 ------------------------------------------------------
 Symbolic Z-matrix:
 Charge =  0 Multiplicity = 1

                         Standard orientation:
 ---------------------------------------------------------------------
 Center     Atomic      Atomic             Coordinates (Angstroms)
 Number     Number       Type             X           Y           Z
 ---------------------------------------------------------------------
      1          6           0        4.170176   -1.394280   -0.428328
      2          6           0        2.995218   -1.450513   -1.185184
      3          6           0        2.054255   -0.419028   -1.113233
      4          6           0        2.321642    0.658581   -0.270290
      5          6           0        3.482900    0.743516    0.496232
      6          6           0        4.409845   -0.299375    0.408489
      7          1           0        4.895694   -2.199992   -0.490356
      8          1           0        2.806443   -2.299603   -1.835919
      9          1           0        1.136362   -0.437053   -1.688182
     10          1           0        3.643208    1.602866    1.135950
     11          1           0        5.321465   -0.253030    0.997425
     12          7           0        1.332907    1.756605   -0.185760
     13          8           0        1.592008    2.695060    0.564445
     14          8           0        0.317558    1.657990   -0.871309
     15          6           0       -0.672551   -1.386039    1.786611
     16          6           0       -1.598558   -0.463978    2.285442
     17          6           0       -2.606781    0.046007    1.462064
     18          6           0       -2.659780   -0.389789    0.138976
     19          6           0       -1.751842   -1.307329   -0.387388
     20          6           0       -0.752007   -1.804035    0.454136
     21          1           0        0.107403   -1.777050    2.433278
     22          1           0       -1.539271   -0.137567    3.319844
     23          1           0       -3.336606    0.760836    1.822332
     24          1           0       -1.836443   -1.613866   -1.422906
     25          1           0       -0.034214   -2.520015    0.064021
     26          7           0       -3.722700    0.143079   -0.742302
     27          8           0       -3.747863   -0.256769   -1.904251
     28          8           0       -4.510527    0.950501   -0.254412
 ---------------------------------------------------------------------

 SCF Done:  E(RHF) =  -868.336405075     A.U. after   16 cycles
 E2 =    -0.2603781713D+01 EUMP2 =    -0.87094018678722D+03

 The electronic state is 1-A.
 Alpha  occ. eigenvalues --  -20.61128 -20.61080 -20.60188 -20.60174 -15.86159
 Alpha  occ. eigenvalues --  -15.85243 -11.31682 -11.30704 -11.28310 -11.28305
 Alpha  occ. eigenvalues --  -11.28090 -11.27383 -11.27362 -11.27315 -11.27257
 Alpha  occ. eigenvalues --  -11.27135 -11.26463 -11.26348  -1.60170  -1.59243
 Alpha  occ. eigenvalues --   -1.39721  -1.38802  -1.19909  -1.18905  -1.09257
 Alpha  occ. eigenvalues --   -1.08298  -1.05353  -1.04367  -0.96065  -0.95116
 Alpha  occ. eigenvalues --   -0.86720  -0.85762  -0.82904  -0.81975  -0.77923
 Alpha  occ. eigenvalues --   -0.76984  -0.72387  -0.71503  -0.71481  -0.71006
 Alpha  occ. eigenvalues --   -0.70528  -0.70073  -0.65555  -0.65341  -0.64597
 Alpha  occ. eigenvalues --   -0.64425  -0.62699  -0.61723  -0.55823  -0.54897
 Alpha  occ. eigenvalues --   -0.53738  -0.53445  -0.52579  -0.52467  -0.49152
 Alpha  occ. eigenvalues --   -0.49121  -0.48242  -0.48217  -0.45071  -0.44193
 Alpha  occ. eigenvalues --   -0.38024  -0.37240  -0.36659  -0.35708
 Alpha virt. eigenvalues --    0.04549   0.05627   0.10461   0.11904   0.15926
 Alpha virt. eigenvalues --    0.17062   0.20428   0.21906   0.25992   0.27382
 Alpha virt. eigenvalues --    0.28183   0.28981   0.29960   0.31390   0.31920

 Mulliken charges:
               1
     1  C   -0.171236
     2  C   -0.225879
     3  C   -0.168424
     4  C    0.158842
     5  C   -0.171922
     6  C   -0.220127
     7  H    0.226692
     8  H    0.222425
     9  H    0.276900
    10  H    0.276725
    11  H    0.224572
    12  N    0.489036
    13  O   -0.461077
    14  O   -0.456719
    15  C   -0.174668
    16  C   -0.217289
    17  C   -0.165099
    18  C    0.170070
    19  C   -0.167708
    20  C   -0.220678
    21  H    0.222457
    22  H    0.223253
    23  H    0.276954
    24  H    0.270395
    25  H    0.215282
    26  N    0.489297
    27  O   -0.462812
    28  O   -0.459261
 Sum of Mulliken charges =  -0.00000

 Dipole moment (field-independent basis, Debye):
    X=              7.1024    Y=             -5.4475    Z=              2.8277  Tot=              9.3870
 Quadrupole moment (field-independent basis, Debye-Ang):
   XX=           -106.9955   YY=           -107.3058   ZZ=            -99.5855
   XY=             -2.9789   XZ=             -8.7866   YZ=              3.6357

 Normal termination of Gaussian 16 at Thu May  6 09:50:29 2021.
