 Gaussian 16, Revision A.03,
 Gaussian 16:  EM64L-G16RevA.03 25-Dec-2016

 -------------
 #p 6-31g* mp2
 -------------

 ------------------------------------------------------
 Input file generated by CHIRIPA (05-May-2021 14:53:18)
 ------------------------------------------------------
 Symbolic Z-matrix:
 Charge =  0 Multiplicity = 1

                         Standard orientation:
 ---------------------------------------------------------------------
 Center     Atomic      Atomic             Coordinates (Angstroms)
 Number     Number       Type             X           Y           Z
 ---------------------------------------------------------------------
      1          6           0        2.835094   -0.237393    1.006496
      2          6           0        1.367727   -0.410350    0.612917
      3          6           0        0.442930   -0.544420    1.823111
      4          1           0        3.148368   -1.096202    1.615801
      5          1           0        2.933932    0.651452    1.644916
      6          1           0        1.271898   -1.297815   -0.025705
      7          1           0        1.057964    0.448876    0.004318
      8          1           0        0.508989    0.344488    2.458784
      9          1           0        0.724138   -1.412128    2.428590
     10          1           0       -0.601213   -0.667076    1.518837
     11          6           0        3.772012   -0.102031   -0.192500
     12          6           0        5.239379    0.070926    0.201079
     13          6           0        6.164177    0.204996   -1.009115
     14          1           0        3.673174   -0.990876   -0.830920
     15          1           0        3.458738    0.756777   -0.801805
     16          1           0        5.549142   -0.788300    0.809678
     17          1           0        5.335209    0.958391    0.839701
     18          1           0        5.882968    1.072704   -1.614594
     19          1           0        6.098117   -0.683912   -1.644788
     20          1           0        7.208319    0.327652   -0.704841
     21          6           0       -2.295381    2.631860   -0.122940
     22          6           0       -3.227914    1.968938    0.681695
     23          6           0       -3.394573    0.584430    0.582142
     24          6           0       -2.608504   -0.109033   -0.336822
     25          6           0       -1.671023    0.522880   -1.152362
     26          6           0       -1.521276    1.907991   -1.035791
     27          1           0       -2.172486    3.707614   -0.038995
     28          1           0       -3.830463    2.528539    1.391502
     29          1           0       -4.109118    0.046006    1.192831
     30          1           0       -1.084804   -0.061997   -1.850706
     31          1           0       -0.796284    2.420183   -1.661963
     32          7           0       -2.775986   -1.575069   -0.451222
     33          8           0       -2.071274   -2.163183   -1.268620
     34          8           0       -3.608799   -2.108275    0.278677
 ---------------------------------------------------------------------

 SCF Done:  E(RHF) =  -669.533842630     A.U. after   15 cycles
 E2 =    -0.2094870280D+01 EUMP2 =    -0.67162871290994D+03

 The electronic state is 1-A.
 Alpha  occ. eigenvalues --  -20.60827 -20.60821 -15.85869 -11.31184 -11.27800
 Alpha  occ. eigenvalues --  -11.27781 -11.27562 -11.26814 -11.26804 -11.21685
 Alpha  occ. eigenvalues --  -11.21525 -11.21480 -11.21379 -11.21163 -11.20923
 Alpha  occ. eigenvalues --   -1.59900  -1.39451  -1.19424  -1.08817  -1.08468
 Alpha  occ. eigenvalues --   -1.04821  -1.03539  -0.96000  -0.95640  -0.87013
 Alpha  occ. eigenvalues --   -0.86212  -0.82478  -0.79623  -0.78307  -0.77507
 Alpha  occ. eigenvalues --   -0.72090  -0.71256  -0.70518  -0.65129  -0.65040
 Alpha  occ. eigenvalues --   -0.64814  -0.62162  -0.60944  -0.59439  -0.57699
 Alpha  occ. eigenvalues --   -0.55315  -0.55293  -0.53383  -0.52902  -0.52524
 Alpha  occ. eigenvalues --   -0.52191  -0.49930  -0.48851  -0.48847  -0.47952
 Alpha  occ. eigenvalues --   -0.46650  -0.45850  -0.45751  -0.44845  -0.43824
 Alpha  occ. eigenvalues --   -0.37338  -0.36334
 Alpha virt. eigenvalues --    0.04981   0.11178   0.16394   0.21174   0.22863
 Alpha virt. eigenvalues --    0.24238   0.26317   0.26702   0.27707   0.27970
 Alpha virt. eigenvalues --    0.28617   0.30409   0.31396   0.31745   0.31933

 Mulliken charges:
               1
     1  C   -0.298019
     2  C   -0.304765
     3  C   -0.475245
     4  H    0.151833
     5  H    0.147255
     6  H    0.159690
     7  H    0.145202
     8  H    0.151540
     9  H    0.158342
    10  H    0.160485
    11  C   -0.297873
    12  C   -0.299560
    13  C   -0.475667
    14  H    0.151986
    15  H    0.144316
    16  H    0.153514
    17  H    0.150873
    18  H    0.153374
    19  H    0.156360
    20  H    0.160568
    21  C   -0.171003
    22  C   -0.216786
    23  C   -0.172239
    24  C    0.152581
    25  C   -0.166131
    26  C   -0.217991
    27  H    0.225831
    28  H    0.223711
    29  H    0.275960
    30  H    0.277070
    31  H    0.223639
    32  N    0.491992
    33  O   -0.460606
    34  O   -0.460237
 Sum of Mulliken charges =  -0.00000

 Dipole moment (field-independent basis, Debye):
    X=              0.5274    Y=              5.1117    Z=              0.3908  Tot=              5.1537
 Quadrupole moment (field-independent basis, Debye-Ang):
   XX=            -96.4156   YY=            -95.3881   ZZ=            -93.5935
   XY=            -14.2648   XZ=             -3.5563   YZ=             -1.6024

 Normal termination of Gaussian 16 at Thu May  6 10:44:17 2021.
