 Gaussian 16, Revision A.03,
 Gaussian 16:  EM64L-G16RevA.03 25-Dec-2016

 -------------
 #p 6-31g* mp2
 -------------

 ------------------------------------------------------
 Input file generated by CHIRIPA (05-May-2021 14:57:22)
 ------------------------------------------------------
 Symbolic Z-matrix:
 Charge =  0 Multiplicity = 1

                         Standard orientation:
 ---------------------------------------------------------------------
 Center     Atomic      Atomic             Coordinates (Angstroms)
 Number     Number       Type             X           Y           Z
 ---------------------------------------------------------------------
      1          6           0        3.959930    1.211158   -0.562691
      2          6           0        3.581069    1.113111    0.780206
      3          6           0        2.698681    0.112308    1.197739
      4          6           0        2.212217   -0.777631    0.241365
      5          6           0        2.570871   -0.705879   -1.103815
      6          6           0        3.454513    0.302951   -1.498765
      7          1           0        4.645878    1.991724   -0.878269
      8          1           0        3.972002    1.817055    1.509369
      9          1           0        2.388778    0.013519    2.230995
     10          1           0        2.164509   -1.422155   -1.807545
     11          1           0        3.747001    0.376698   -2.542344
     12          7           0        1.277409   -1.841385    0.671435
     13          8           0        0.862899   -2.613139   -0.190665
     14          8           0        0.976915   -1.883260    1.862479
     15          6           0       -0.489056    2.281543   -0.021767
     16          6           0       -1.609744    2.409347    0.805426
     17          6           0       -2.655832    1.484793    0.731630
     18          6           0       -2.547769    0.439969   -0.184862
     19          6           0       -1.444202    0.285650   -1.022487
     20          6           0       -0.410001    1.221971   -0.931479
     21          1           0        0.318953    3.004329    0.042246
     22          1           0       -1.673849    3.231222    1.512857
     23          1           0       -3.534904    1.559924    1.360125
     24          1           0       -1.408853   -0.544214   -1.717825
     25          1           0        0.459136    1.120221   -1.575134
     26          7           0       -3.648923   -0.545042   -0.272097
     27          8           0       -3.529611   -1.456603   -1.087856
     28          8           0       -4.610469   -0.386885    0.476937
 ---------------------------------------------------------------------

 SCF Done:  E(RHF) =  -868.335670969     A.U. after   16 cycles
 E2 =    -0.2605100544D+01 EUMP2 =    -0.87094077151280D+03

 The electronic state is 1-A.
 Alpha  occ. eigenvalues --  -20.61271 -20.61264 -20.60205 -20.60172 -15.86316
 Alpha  occ. eigenvalues --  -15.85251 -11.31943 -11.30782 -11.28580 -11.28561
 Alpha  occ. eigenvalues --  -11.28408 -11.27694 -11.27666 -11.27385 -11.27324
 Alpha  occ. eigenvalues --  -11.27201 -11.26479 -11.26374  -1.60326  -1.59258
 Alpha  occ. eigenvalues --   -1.39878  -1.38808  -1.20218  -1.18982  -1.09533
 Alpha  occ. eigenvalues --   -1.08357  -1.05667  -1.04423  -0.96315  -0.95160
 Alpha  occ. eigenvalues --   -0.87020  -0.85808  -0.83143  -0.82004  -0.78140
 Alpha  occ. eigenvalues --   -0.77010  -0.72534  -0.71668  -0.71474  -0.71284
 Alpha  occ. eigenvalues --   -0.70568  -0.70107  -0.65840  -0.65627  -0.64639
 Alpha  occ. eigenvalues --   -0.64484  -0.62974  -0.61787  -0.56115  -0.54967
 Alpha  occ. eigenvalues --   -0.54188  -0.53714  -0.52683  -0.52309  -0.49310
 Alpha  occ. eigenvalues --   -0.49280  -0.48248  -0.48211  -0.45226  -0.44178
 Alpha  occ. eigenvalues --   -0.38390  -0.37354  -0.36828  -0.35872
 Alpha virt. eigenvalues --    0.04325   0.05544   0.10300   0.11619   0.15737
 Alpha virt. eigenvalues --    0.17030   0.20507   0.21848   0.26262   0.27252
 Alpha virt. eigenvalues --    0.28070   0.28539   0.30241   0.31334   0.31771

 Mulliken charges:
               1
     1  C   -0.173892
     2  C   -0.222328
     3  C   -0.168941
     4  C    0.170048
     5  C   -0.185398
     6  C   -0.222667
     7  H    0.227882
     8  H    0.225292
     9  H    0.278786
    10  H    0.277546
    11  H    0.226288
    12  N    0.488917
    13  O   -0.458246
    14  O   -0.455992
    15  C   -0.172677
    16  C   -0.218702
    17  C   -0.169463
    18  C    0.162088
    19  C   -0.173455
    20  C   -0.225645
    21  H    0.219975
    22  H    0.220543
    23  H    0.275462
    24  H    0.280280
    25  H    0.223738
    26  N    0.488832
    27  O   -0.456142
    28  O   -0.462129
 Sum of Mulliken charges =  -0.00000

 Dipole moment (field-independent basis, Debye):
    X=              7.2043    Y=              6.9334    Z=             -1.0728  Tot=             10.0561
 Quadrupole moment (field-independent basis, Debye-Ang):
   XX=           -109.7226   YY=           -107.1940   ZZ=            -99.0520
   XY=             -2.4516   XZ=             -5.6347   YZ=              5.4984

 Normal termination of Gaussian 16 at Thu May  6 09:44:04 2021.
