 Gaussian 16, Revision A.03,
 Gaussian 16:  EM64L-G16RevA.03 25-Dec-2016

 -------------
 #p 6-31g* mp2
 -------------

 ------------------------------------------------------
 Input file generated by CHIRIPA (05-May-2021 14:57:23)
 ------------------------------------------------------
 Symbolic Z-matrix:
 Charge =  0 Multiplicity = 1

                         Standard orientation:
 ---------------------------------------------------------------------
 Center     Atomic      Atomic             Coordinates (Angstroms)
 Number     Number       Type             X           Y           Z
 ---------------------------------------------------------------------
      1          6           0        2.479146    1.905884    0.661845
      2          6           0        3.691895    2.178746    0.020511
      3          6           0        4.563310    1.140517   -0.321928
      4          6           0        4.188597   -0.164661   -0.006668
      5          6           0        2.987268   -0.468615    0.631855
      6          6           0        2.131317    0.585402    0.964936
      7          1           0        1.808216    2.718537    0.924225
      8          1           0        3.964628    3.203283   -0.216102
      9          1           0        5.508323    1.323439   -0.818827
     10          1           0        2.742840   -1.500108    0.854777
     11          1           0        1.190125    0.370526    1.462962
     12          7           0        5.102940   -1.272145   -0.364240
     13          8           0        4.749645   -2.413411   -0.075566
     14          8           0        6.155583   -0.977954   -0.926406
     15          6           0       -1.745217    1.022994    0.109386
     16          6           0       -2.811017    1.756373   -0.422352
     17          6           0       -4.085618    1.189778   -0.516744
     18          6           0       -4.259550   -0.118492   -0.067892
     19          6           0       -3.217661   -0.874788    0.466685
     20          6           0       -1.951577   -0.287935    0.551427
     21          1           0       -0.758384    1.471008    0.178964
     22          1           0       -2.653685    2.774658   -0.766427
     23          1           0       -4.928368    1.734936   -0.924168
     24          1           0       -3.405361   -1.887763    0.801456
     25          1           0       -1.125711   -0.859857    0.964825
     26          7           0       -5.604406   -0.729045   -0.162713
     27          8           0       -5.731583   -1.883407    0.239668
     28          8           0       -6.505860   -0.041671   -0.637618
 ---------------------------------------------------------------------

 SCF Done:  E(RHF) =  -868.335913353     A.U. after   16 cycles
 E2 =    -0.2600940510D+01 EUMP2 =    -0.87093685386262D+03

 The electronic state is 1-A.
 Alpha  occ. eigenvalues --  -20.61492 -20.61485 -20.61209 -20.61204 -15.86554
 Alpha  occ. eigenvalues --  -15.86269 -11.32137 -11.31781 -11.28787 -11.28695
 Alpha  occ. eigenvalues --  -11.28607 -11.28387 -11.28359 -11.28231 -11.27939
 Alpha  occ. eigenvalues --  -11.27754 -11.27519 -11.27432  -1.60562  -1.60282
 Alpha  occ. eigenvalues --   -1.40109  -1.39831  -1.20350  -1.19987  -1.09727
 Alpha  occ. eigenvalues --   -1.09376  -1.05792  -1.05413  -0.96514  -0.96179
 Alpha  occ. eigenvalues --   -0.87210  -0.86817  -0.83341  -0.83007  -0.78347
 Alpha  occ. eigenvalues --   -0.78003  -0.72772  -0.72487  -0.71887  -0.71606
 Alpha  occ. eigenvalues --   -0.71545  -0.71120  -0.66017  -0.65979  -0.65632
 Alpha  occ. eigenvalues --   -0.65343  -0.63150  -0.62720  -0.56338  -0.56002
 Alpha  occ. eigenvalues --   -0.54073  -0.53916  -0.53725  -0.53502  -0.49545
 Alpha  occ. eigenvalues --   -0.49508  -0.49259  -0.49229  -0.45466  -0.45203
 Alpha  occ. eigenvalues --   -0.38362  -0.38001  -0.37374  -0.37004
 Alpha virt. eigenvalues --    0.04194   0.04532   0.10091   0.10616   0.15581
 Alpha virt. eigenvalues --    0.15958   0.17913   0.22261   0.23887   0.25418
 Alpha virt. eigenvalues --    0.27858   0.29023   0.30116   0.30793   0.32763

 Mulliken charges:
               1
     1  C   -0.174362
     2  C   -0.217654
     3  C   -0.168935
     4  C    0.159537
     5  C   -0.169800
     6  C   -0.223401
     7  H    0.223463
     8  H    0.226734
     9  H    0.279222
    10  H    0.276749
    11  H    0.219234
    12  N    0.488038
    13  O   -0.458314
    14  O   -0.457379
    15  C   -0.172191
    16  C   -0.218868
    17  C   -0.169492
    18  C    0.159018
    19  C   -0.169109
    20  C   -0.220574
    21  H    0.220061
    22  H    0.223749
    23  H    0.277631
    24  H    0.278190
    25  H    0.217806
    26  N    0.487930
    27  O   -0.458481
    28  O   -0.458805
 Sum of Mulliken charges =  -0.00000

 Dipole moment (field-independent basis, Debye):
    X=              1.6517    Y=              5.9951    Z=              1.4715  Tot=              6.3902
 Quadrupole moment (field-independent basis, Debye-Ang):
   XX=           -167.9548   YY=           -101.1924   ZZ=           -104.8435
   XY=              8.0593   XZ=              2.8699   YZ=             -4.0131

 Normal termination of Gaussian 16 at Thu May  6 17:56:20 2021.
