 Gaussian 16, Revision A.03,
 Gaussian 16:  EM64L-G16RevA.03 25-Dec-2016

 -------------
 #p 6-31g* mp2
 -------------

 ------------------------------------------------------
 Input file generated by CHIRIPA (05-May-2021 14:53:18)
 ------------------------------------------------------
 Symbolic Z-matrix:
 Charge =  0 Multiplicity = 1

                         Standard orientation:
 ---------------------------------------------------------------------
 Center     Atomic      Atomic             Coordinates (Angstroms)
 Number     Number       Type             X           Y           Z
 ---------------------------------------------------------------------
      1          6           0       -4.596049   -0.277542    0.250383
      2          6           0       -4.630911   -1.798779    0.100024
      3          6           0       -5.646398   -2.461730    1.031192
      4          1           0       -4.359962   -0.023815    1.292895
      5          1           0       -5.597788    0.126847    0.049427
      6          1           0       -3.629079   -2.200050    0.299849
      7          1           0       -4.866753   -2.048913   -0.942295
      8          1           0       -6.655700   -2.089290    0.828217
      9          1           0       -5.410994   -2.241286    2.077419
     10          1           0       -5.654708   -3.549116    0.907166
     11          6           0       -3.585688    0.399588   -0.673952
     12          6           0       -3.550826    1.920825   -0.523593
     13          6           0       -2.535339    2.583777   -1.454762
     14          1           0       -2.583949   -0.004800   -0.472997
     15          1           0       -3.821775    0.145862   -1.716464
     16          1           0       -3.314984    2.170960    0.518725
     17          1           0       -4.552658    2.322097   -0.723419
     18          1           0       -2.770743    2.363333   -2.500989
     19          1           0       -1.526037    2.211337   -1.251787
     20          1           0       -2.527029    3.671163   -1.330735
     21          6           0        1.679621    1.388679    1.580884
     22          6           0        1.237586    0.913406    0.341836
     23          6           0        2.069235    0.116783   -0.450818
     24          6           0        3.342588   -0.186536    0.028619
     25          6           0        3.811803    0.271850    1.258663
     26          6           0        2.963056    1.066952    2.034544
     27          1           0        1.026935    2.006923    2.190122
     28          1           0        0.241349    1.161670   -0.013020
     29          1           0        1.752442   -0.264517   -1.413974
     30          1           0        4.810130    0.007580    1.585654
     31          1           0        3.309010    1.434655    2.996393
     32          7           0        4.232068   -1.029079   -0.801650
     33          8           0        5.349479   -1.282130   -0.356684
     34          8           0        3.794989   -1.420461   -1.881659
 ---------------------------------------------------------------------

 SCF Done:  E(RHF) =  -669.535441210     A.U. after   15 cycles
 E2 =    -0.2091060954D+01 EUMP2 =    -0.67162650216367D+03

 The electronic state is 1-A.
 Alpha  occ. eigenvalues --  -20.60752 -20.60747 -15.85806 -11.31177 -11.27753
 Alpha  occ. eigenvalues --  -11.27746 -11.27499 -11.26768 -11.26751 -11.22465
 Alpha  occ. eigenvalues --  -11.22165 -11.22076 -11.22060 -11.21964 -11.21441
 Alpha  occ. eigenvalues --   -1.59828  -1.39381  -1.19354  -1.09122  -1.08748
 Alpha  occ. eigenvalues --   -1.04760  -1.04208  -0.96662  -0.95581  -0.87677
 Alpha  occ. eigenvalues --   -0.86159  -0.82415  -0.80274  -0.78906  -0.77461
 Alpha  occ. eigenvalues --   -0.72025  -0.71151  -0.70463  -0.65792  -0.65006
 Alpha  occ. eigenvalues --   -0.64770  -0.62170  -0.61555  -0.60033  -0.58254
 Alpha  occ. eigenvalues --   -0.55982  -0.55256  -0.53340  -0.53135  -0.53078
 Alpha  occ. eigenvalues --   -0.52815  -0.50608  -0.48793  -0.48779  -0.48570
 Alpha  occ. eigenvalues --   -0.47311  -0.46444  -0.46361  -0.44785  -0.44451
 Alpha  occ. eigenvalues --   -0.37336  -0.36361
 Alpha virt. eigenvalues --    0.05076   0.11266   0.16546   0.18782   0.22674
 Alpha virt. eigenvalues --    0.23603   0.25264   0.26493   0.27237   0.28314
 Alpha virt. eigenvalues --    0.28691   0.30078   0.31041   0.31453   0.32102

 Mulliken charges:
               1
     1  C   -0.298373
     2  C   -0.300386
     3  C   -0.476088
     4  H    0.148786
     5  H    0.151565
     6  H    0.152606
     7  H    0.153657
     8  H    0.155875
     9  H    0.155038
    10  H    0.162446
    11  C   -0.299164
    12  C   -0.300581
    13  C   -0.479431
    14  H    0.143911
    15  H    0.153386
    16  H    0.148874
    17  H    0.156630
    18  H    0.161277
    19  H    0.146344
    20  H    0.164054
    21  C   -0.172954
    22  C   -0.227869
    23  C   -0.173418
    24  C    0.158763
    25  C   -0.171006
    26  C   -0.218500
    27  H    0.226045
    28  H    0.236229
    29  H    0.276073
    30  H    0.275612
    31  H    0.223358
    32  N    0.488104
    33  O   -0.460580
    34  O   -0.460283
 Sum of Mulliken charges =  -0.00000

 Dipole moment (field-independent basis, Debye):
    X=             -3.3300    Y=              2.9575    Z=              2.8913  Tot=              5.3099
 Quadrupole moment (field-independent basis, Debye-Ang):
   XX=           -112.5948   YY=            -96.8332   ZZ=            -92.2172
   XY=             10.3014   XZ=             13.8345   YZ=              0.0794

 Normal termination of Gaussian 16 at Thu May  6 10:43:18 2021.
