 Gaussian 16, Revision A.03,
 Gaussian 16:  EM64L-G16RevA.03 25-Dec-2016

 -------------
 #p 6-31g* mp2
 -------------

 ------------------------------------------------------
 Input file generated by CHIRIPA (05-May-2021 14:51:13)
 ------------------------------------------------------
 Symbolic Z-matrix:
 Charge =  0 Multiplicity = 1

                         Standard orientation:
 ---------------------------------------------------------------------
 Center     Atomic      Atomic             Coordinates (Angstroms)
 Number     Number       Type             X           Y           Z
 ---------------------------------------------------------------------
      1          6           0       -3.834021   -0.160181   -0.410540
      2          6           0       -5.128302   -0.791300    0.103765
      3          6           0       -5.420516   -2.147697   -0.538569
      4          1           0       -3.897972   -0.044834   -1.501205
      5          1           0       -2.997726   -0.846227   -0.217286
      6          1           0       -5.961704   -0.103667   -0.089156
      7          1           0       -5.061338   -0.904981    1.193356
      8          1           0       -4.608560   -2.853296   -0.334956
      9          1           0       -5.514041   -2.047428   -1.624755
     10          1           0       -6.350187   -2.580868   -0.156555
     11          6           0       -3.528262    1.196204    0.222278
     12          6           0       -2.233981    1.827323   -0.292026
     13          6           0       -1.941767    3.183720    0.350308
     14          1           0       -4.364557    1.882250    0.029025
     15          1           0       -3.464310    1.080857    1.312944
     16          1           0       -2.300945    1.941004   -1.381617
     17          1           0       -1.400579    1.139690   -0.099105
     18          1           0       -1.848242    3.083451    1.436494
     19          1           0       -2.753723    3.889319    0.146695
     20          1           0       -1.012096    3.616891   -0.031706
     21          6           0        2.971287   -0.684112   -0.133793
     22          6           0        2.069484   -1.173931    0.999704
     23          6           0        0.652600   -1.502195    0.528030
     24          1           0        2.520834    0.206230   -0.593497
     25          1           0        3.013682   -1.453042   -0.917594
     26          1           0        2.029908   -0.404885    1.781763
     27          1           0        2.522232   -2.063098    1.456889
     28          1           0        0.672867   -2.285751   -0.236318
     29          1           0        0.177746   -0.618115    0.090402
     30          1           0        0.024989   -1.850412    1.354291
     31          6           0        4.390996   -0.351910    0.322054
     32          6           0        5.292798    0.137908   -0.811442
     33          6           0        6.709683    0.466171   -0.339769
     34          1           0        4.348600    0.417019    1.105855
     35          1           0        4.841448   -1.242253    0.781759
     36          1           0        4.840051    1.027076   -1.268627
     37          1           0        5.332375   -0.631139   -1.593502
     38          1           0        7.184536   -0.417908    0.097859
     39          1           0        6.689416    1.249728    0.424580
     40          1           0        7.337295    0.814389   -1.166030
 ---------------------------------------------------------------------

 SCF Done:  E(RHF) =  -470.733348519     A.U. after   11 cycles
 E2 =    -0.1582708668D+01 EUMP2 =    -0.47231605718751D+03

 The electronic state is 1-A.
 Alpha  occ. eigenvalues --  -11.21645 -11.21614 -11.21589 -11.21565 -11.21427
 Alpha  occ. eigenvalues --  -11.21370 -11.21367 -11.21303 -11.21122 -11.21083
 Alpha  occ. eigenvalues --  -11.21080 -11.21036  -1.08457  -1.08401  -1.03564
 Alpha  occ. eigenvalues --   -1.03508  -0.96012  -0.95957  -0.87035  -0.86971
 Alpha  occ. eigenvalues --   -0.79651  -0.79553  -0.78281  -0.78197  -0.65131
 Alpha  occ. eigenvalues --   -0.64998  -0.61055  -0.60826  -0.59382  -0.59326
 Alpha  occ. eigenvalues --   -0.57625  -0.57564  -0.55320  -0.55232  -0.52713
 Alpha  occ. eigenvalues --   -0.52658  -0.52449  -0.52373  -0.50049  -0.49840
 Alpha  occ. eigenvalues --   -0.48024  -0.47833  -0.46802  -0.46482  -0.45886
 Alpha  occ. eigenvalues --   -0.45752  -0.45729  -0.45481  -0.43812  -0.43760
 Alpha virt. eigenvalues --    0.21306   0.23038   0.23799   0.24647   0.25541
 Alpha virt. eigenvalues --    0.26745   0.27087   0.27534   0.27998   0.29237
 Alpha virt. eigenvalues --    0.30111   0.31640   0.31669   0.31897   0.31990

 Mulliken charges:
               1
     1  C   -0.300459
     2  C   -0.299592
     3  C   -0.475727
     4  H    0.149358
     5  H    0.152557
     6  H    0.151736
     7  H    0.151801
     8  H    0.155471
     9  H    0.155087
    10  H    0.160037
    11  C   -0.297385
    12  C   -0.308659
    13  C   -0.475097
    14  H    0.149395
    15  H    0.149493
    16  H    0.151902
    17  H    0.159777
    18  H    0.155108
    19  H    0.155385
    20  H    0.159603
    21  C   -0.298460
    22  C   -0.299437
    23  C   -0.484306
    24  H    0.149795
    25  H    0.149707
    26  H    0.151973
    27  H    0.152168
    28  H    0.155920
    29  H    0.162874
    30  H    0.159735
    31  C   -0.298361
    32  C   -0.299691
    33  C   -0.475729
    34  H    0.149607
    35  H    0.149689
    36  H    0.152025
    37  H    0.151976
    38  H    0.155187
    39  H    0.155223
    40  H    0.160315
 Sum of Mulliken charges =  -0.00000

 Dipole moment (field-independent basis, Debye):
    X=              0.0197    Y=             -0.0113    Z=             -0.0044  Tot=              0.0231
 Quadrupole moment (field-independent basis, Debye-Ang):
   XX=            -85.7219   YY=            -84.7213   ZZ=            -84.3789
   XY=             -1.1593   XZ=              0.0059   YZ=             -0.5808

 Normal termination of Gaussian 16 at Wed May  5 21:35:23 2021.
