 Gaussian 16, Revision A.03,
 Gaussian 16:  EM64L-G16RevA.03 25-Dec-2016

 -------------
 #p 6-31g* mp2
 -------------

 ------------------------------------------------------
 Input file generated by CHIRIPA (05-May-2021 14:51:12)
 ------------------------------------------------------
 Symbolic Z-matrix:
 Charge =  0 Multiplicity = 1

                         Standard orientation:
 ---------------------------------------------------------------------
 Center     Atomic      Atomic             Coordinates (Angstroms)
 Number     Number       Type             X           Y           Z
 ---------------------------------------------------------------------
      1          6           0        4.426136    0.333734    0.003388
      2          6           0        4.842680   -0.978614   -0.661608
      3          6           0        6.311418   -1.325558   -0.416183
      4          1           0        5.063838    1.145958   -0.371545
      5          1           0        4.611762    0.264118    1.084171
      6          1           0        4.655033   -0.907046   -1.740627
      7          1           0        4.203786   -1.787774   -0.285191
      8          1           0        6.510020   -1.424132    0.655937
      9          1           0        6.963831   -0.538399   -0.807769
     10          1           0        6.587792   -2.267365   -0.900412
     11          6           0        2.960531    0.694136   -0.232922
     12          6           0        2.543987    2.006484    0.432074
     13          6           0        1.075250    2.353428    0.186650
     14          1           0        2.774905    0.763753   -1.313704
     15          1           0        2.322830   -0.118088    0.142011
     16          1           0        3.182881    2.815645    0.055658
     17          1           0        2.731634    1.934916    1.511093
     18          1           0        0.422836    1.566269    0.578235
     19          1           0        0.876647    2.452002   -0.885470
     20          1           0        0.798876    3.295235    0.670878
     21          6           0       -3.114718   -1.009653    0.060922
     22          6           0       -1.950991   -0.687528    0.998984
     23          6           0       -0.801101   -1.688184    0.879672
     24          1           0       -3.483271   -2.021519    0.278266
     25          1           0       -2.747921   -1.026341   -0.974731
     26          1           0       -2.320155   -0.670088    2.032440
     27          1           0       -1.585289    0.323763    0.779511
     28          1           0       -0.405356   -1.700349   -0.141032
     29          1           0       -1.144396   -2.699848    1.119017
     30          1           0        0.020063   -1.438982    1.558972
     31          6           0       -4.271950   -0.018218    0.168612
     32          6           0       -5.435676   -0.340342   -0.769450
     33          6           0       -6.585566    0.660314   -0.650139
     34          1           0       -4.638745   -0.001529    1.204265
     35          1           0       -3.903396    0.993649   -0.048733
     36          1           0       -5.801378   -1.351633   -0.549977
     37          1           0       -5.066513   -0.357782   -1.802906
     38          1           0       -6.242271    1.671978   -0.889482
     39          1           0       -6.981312    0.672480    0.370566
     40          1           0       -7.406730    0.411112   -1.329439
 ---------------------------------------------------------------------

 SCF Done:  E(RHF) =  -470.733271905     A.U. after   11 cycles
 E2 =    -0.1583036256D+01 EUMP2 =    -0.47231630816136D+03

 The electronic state is 1-A.
 Alpha  occ. eigenvalues --  -11.21607 -11.21593 -11.21591 -11.21579 -11.21402
 Alpha  occ. eigenvalues --  -11.21377 -11.21341 -11.21316 -11.21127 -11.21062
 Alpha  occ. eigenvalues --  -11.21055 -11.21053  -1.08439  -1.08404  -1.03562
 Alpha  occ. eigenvalues --   -1.03497  -0.96002  -0.95959  -0.87022  -0.86974
 Alpha  occ. eigenvalues --   -0.79637  -0.79552  -0.78253  -0.78213  -0.65130
 Alpha  occ. eigenvalues --   -0.64987  -0.61091  -0.60792  -0.59394  -0.59297
 Alpha  occ. eigenvalues --   -0.57654  -0.57529  -0.55330  -0.55208  -0.52699
 Alpha  occ. eigenvalues --   -0.52660  -0.52423  -0.52398  -0.50038  -0.49824
 Alpha  occ. eigenvalues --   -0.48008  -0.47823  -0.46735  -0.46486  -0.45847
 Alpha  occ. eigenvalues --   -0.45734  -0.45700  -0.45584  -0.43791  -0.43766
 Alpha virt. eigenvalues --    0.20792   0.23061   0.23591   0.25023   0.26121
 Alpha virt. eigenvalues --    0.26322   0.27005   0.27262   0.28395   0.29234
 Alpha virt. eigenvalues --    0.30567   0.31332   0.31584   0.31716   0.32145

 Mulliken charges:
               1
     1  C   -0.298153
     2  C   -0.299754
     3  C   -0.475682
     4  H    0.149535
     5  H    0.149362
     6  H    0.151759
     7  H    0.152367
     8  H    0.155151
     9  H    0.155084
    10  H    0.160223
    11  C   -0.301955
    12  C   -0.298875
    13  C   -0.484125
    14  H    0.149007
    15  H    0.153775
    16  H    0.151870
    17  H    0.151682
    18  H    0.163616
    19  H    0.154603
    20  H    0.160215
    21  C   -0.297704
    22  C   -0.306989
    23  C   -0.477657
    24  H    0.149545
    25  H    0.149817
    26  H    0.152029
    27  H    0.158436
    28  H    0.156940
    29  H    0.155593
    30  H    0.159992
    31  C   -0.298595
    32  C   -0.299670
    33  C   -0.475732
    34  H    0.149460
    35  H    0.150324
    36  H    0.151860
    37  H    0.151979
    38  H    0.155305
    39  H    0.155149
    40  H    0.160213
 Sum of Mulliken charges =  -0.00000

 Dipole moment (field-independent basis, Debye):
    X=             -0.0238    Y=             -0.0124    Z=             -0.0003  Tot=              0.0268
 Quadrupole moment (field-independent basis, Debye-Ang):
   XX=            -86.5222   YY=            -84.7824   ZZ=            -83.5480
   XY=              1.3292   XZ=             -0.6456   YZ=             -0.8098

 Normal termination of Gaussian 16 at Thu May  6 05:29:51 2021.
