 Gaussian 16, Revision A.03,
 Gaussian 16:  EM64L-G16RevA.03 25-Dec-2016

 -------------
 #p 6-31g* mp2
 -------------

 ------------------------------------------------------
 Input file generated by CHIRIPA (05-May-2021 14:55:24)
 ------------------------------------------------------
 Symbolic Z-matrix:
 Charge =  0 Multiplicity = 1

                         Standard orientation:
 ---------------------------------------------------------------------
 Center     Atomic      Atomic             Coordinates (Angstroms)
 Number     Number       Type             X           Y           Z
 ---------------------------------------------------------------------
      1          6           0        1.462391    1.222637   -0.383804
      2          6           0        2.704589    1.860611   -0.464143
      3          6           0        3.887542    1.135651   -0.292084
      4          6           0        3.790948   -0.231975   -0.039974
      5          6           0        2.568366   -0.896214    0.045875
      6          6           0        1.398357   -0.151317   -0.129500
      7          1           0        0.548473    1.793547   -0.518751
      8          1           0        2.757352    2.927524   -0.661522
      9          1           0        4.862490    1.604305   -0.349157
     10          1           0        2.547730   -1.961012    0.243860
     11          1           0        0.435042   -0.649422   -0.066570
     12          7           0        5.036435   -1.010011    0.143932
     13          8           0        4.924352   -2.213838    0.365004
     14          8           0        6.101147   -0.401275    0.063522
     15          6           0       -5.213201   -0.208389   -0.189732
     16          6           0       -5.306343   -1.691363    0.170961
     17          6           0       -6.559153   -2.360029   -0.395737
     18          1           0       -6.107471    0.309864    0.182614
     19          1           0       -5.223431   -0.102857   -1.283420
     20          1           0       -5.294547   -1.794157    1.263623
     21          1           0       -4.411658   -2.206110   -0.202120
     22          1           0       -6.574212   -2.287003   -1.488001
     23          1           0       -7.462118   -1.872709   -0.013930
     24          1           0       -6.605603   -3.419692   -0.125893
     25          6           0       -3.966130    0.473977    0.369659
     26          6           0       -3.872989    1.956949    0.008966
     27          6           0       -2.620179    2.625616    0.575664
     28          1           0       -3.955900    0.368445    1.463347
     29          1           0       -3.071861   -0.044277   -0.002687
     30          1           0       -4.767673    2.471698    0.382047
     31          1           0       -3.884784    2.059745   -1.083695
     32          1           0       -1.717214    2.138296    0.193858
     33          1           0       -2.605119    2.552591    1.667929
     34          1           0       -2.573728    3.685279    0.305820
 ---------------------------------------------------------------------

 SCF Done:  E(RHF) =  -669.535488632     A.U. after   15 cycles
 E2 =    -0.2090923079D+01 EUMP2 =    -0.67162641171076D+03

 The electronic state is 1-A.
 Alpha  occ. eigenvalues --  -20.60732 -20.60727 -15.85786 -11.31146 -11.27718
 Alpha  occ. eigenvalues --  -11.27714 -11.27437 -11.26731 -11.26720 -11.22556
 Alpha  occ. eigenvalues --  -11.22294 -11.22276 -11.22210 -11.22073 -11.21557
 Alpha  occ. eigenvalues --   -1.59808  -1.39362  -1.19319  -1.09239  -1.08714
 Alpha  occ. eigenvalues --   -1.04723  -1.04337  -0.96803  -0.95550  -0.87820
 Alpha  occ. eigenvalues --   -0.86120  -0.82385  -0.80408  -0.79027  -0.77431
 Alpha  occ. eigenvalues --   -0.72004  -0.71131  -0.70449  -0.65872  -0.64971
 Alpha  occ. eigenvalues --   -0.64728  -0.62073  -0.61738  -0.60175  -0.58401
 Alpha  occ. eigenvalues --   -0.56191  -0.55180  -0.53481  -0.53206  -0.53046
 Alpha  occ. eigenvalues --   -0.52814  -0.50737  -0.48768  -0.48759  -0.48709
 Alpha  occ. eigenvalues --   -0.47437  -0.46579  -0.46476  -0.44768  -0.44583
 Alpha  occ. eigenvalues --   -0.37294  -0.36329
 Alpha virt. eigenvalues --    0.05101   0.11324   0.16577   0.19040   0.22481
 Alpha virt. eigenvalues --    0.23775   0.25177   0.25668   0.26421   0.27957
 Alpha virt. eigenvalues --    0.28734   0.30096   0.30896   0.31325   0.31756

 Mulliken charges:
               1
     1  C   -0.175984
     2  C   -0.219877
     3  C   -0.170766
     4  C    0.158319
     5  C   -0.170948
     6  C   -0.221457
     7  H    0.234723
     8  H    0.223961
     9  H    0.275431
    10  H    0.275533
    11  H    0.223300
    12  N    0.488031
    13  O   -0.460569
    14  O   -0.460517
    15  C   -0.298919
    16  C   -0.299981
    17  C   -0.476169
    18  H    0.152012
    19  H    0.150527
    20  H    0.153118
    21  H    0.150525
    22  H    0.155912
    23  H    0.156364
    24  H    0.162144
    25  C   -0.297442
    26  C   -0.300111
    27  C   -0.479428
    28  H    0.152070
    29  H    0.142321
    30  H    0.156551
    31  H    0.153093
    32  H    0.144103
    33  H    0.160756
    34  H    0.163375
 Sum of Mulliken charges =  -0.00000

 Dipole moment (field-independent basis, Debye):
    X=             -4.6413    Y=              2.7713    Z=             -0.6096  Tot=              5.4400
 Quadrupole moment (field-independent basis, Debye-Ang):
   XX=           -126.3931   YY=            -92.8706   ZZ=            -94.8326
   XY=             13.3237   XZ=             -3.5883   YZ=             -0.5724

 Normal termination of Gaussian 16 at Wed May  5 19:08:00 2021.
