 Gaussian 16, Revision A.03,
 Gaussian 16:  EM64L-G16RevA.03 25-Dec-2016

 -------------
 #p 6-31g* mp2
 -------------

 ------------------------------------------------------
 Input file generated by CHIRIPA (05-May-2021 14:57:23)
 ------------------------------------------------------
 Symbolic Z-matrix:
 Charge =  0 Multiplicity = 1

                         Standard orientation:
 ---------------------------------------------------------------------
 Center     Atomic      Atomic             Coordinates (Angstroms)
 Number     Number       Type             X           Y           Z
 ---------------------------------------------------------------------
      1          6           0        2.467063   -2.305406   -0.165165
      2          6           0        2.113051   -1.473900    0.902447
      3          6           0        2.677535   -0.201107    1.028552
      4          6           0        3.596871    0.209950    0.064630
      5          6           0        3.969881   -0.595310   -1.010409
      6          6           0        3.392716   -1.864235   -1.116508
      7          1           0        2.023632   -3.292641   -0.255355
      8          1           0        1.394446   -1.813884    1.642759
      9          1           0        2.421382    0.463080    1.845043
     10          1           0        4.689064   -0.228628   -1.732724
     11          1           0        3.669524   -2.507849   -1.946679
     12          7           0        4.201178    1.555352    0.187542
     13          8           0        5.008715    1.894049   -0.674899
     14          8           0        3.855853    2.245705    1.143994
     15          6           0       -5.505686    1.519775   -0.285586
     16          6           0       -4.220889    2.023079   -0.514722
     17          6           0       -3.100848    1.196659   -0.384005
     18          6           0       -3.303108   -0.133998   -0.021054
     19          6           0       -4.570438   -0.664963    0.213981
     20          6           0       -5.676059    0.179723    0.077395
     21          1           0       -6.370160    2.168852   -0.389410
     22          1           0       -4.085568    3.063367   -0.796739
     23          1           0       -2.094956    1.560260   -0.555448
     24          1           0       -4.673648   -1.706330    0.493837
     25          1           0       -6.672671   -0.213878    0.255970
     26          7           0       -2.125004   -1.018560    0.120438
     27          8           0       -2.329946   -2.187192    0.441271
     28          8           0       -1.018971   -0.526498   -0.092173
 ---------------------------------------------------------------------

 SCF Done:  E(RHF) =  -868.339454655     A.U. after   16 cycles
 E2 =    -0.2599197693D+01 EUMP2 =    -0.87093865234709D+03

 The electronic state is 1-A.
 Alpha  occ. eigenvalues --  -20.61482 -20.61463 -20.59890 -20.59885 -15.86493
 Alpha  occ. eigenvalues --  -15.84929 -11.31617 -11.29962 -11.28173 -11.28133
 Alpha  occ. eigenvalues --  -11.27856 -11.27128 -11.27093 -11.26509 -11.26399
 Alpha  occ. eigenvalues --  -11.26063 -11.25497 -11.25288  -1.60556  -1.58972
 Alpha  occ. eigenvalues --   -1.40108  -1.38535  -1.19770  -1.18067  -1.09214
 Alpha  occ. eigenvalues --   -1.07516  -1.05131  -1.03421  -0.96087  -0.94420
 Alpha  occ. eigenvalues --   -0.86542  -0.84836  -0.82921  -0.81274  -0.77998
 Alpha  occ. eigenvalues --   -0.76376  -0.72724  -0.71861  -0.71161  -0.70872
 Alpha  occ. eigenvalues --   -0.70289  -0.69175  -0.65422  -0.65131  -0.63723
 Alpha  occ. eigenvalues --   -0.63429  -0.62477  -0.60802  -0.55645  -0.53914
 Alpha  occ. eigenvalues --   -0.53480  -0.53217  -0.51778  -0.51531  -0.49503
 Alpha  occ. eigenvalues --   -0.49436  -0.47931  -0.47881  -0.45565  -0.44017
 Alpha  occ. eigenvalues --   -0.37739  -0.36724  -0.35980  -0.34942
 Alpha virt. eigenvalues --    0.04498   0.06144   0.10933   0.12699   0.16044
 Alpha virt. eigenvalues --    0.17771   0.21118   0.22735   0.27046   0.27990
 Alpha virt. eigenvalues --    0.28611   0.29580   0.30704   0.32209   0.32297

 Mulliken charges:
               1
     1  C   -0.168410
     2  C   -0.195393
     3  C   -0.172817
     4  C    0.157005
     5  C   -0.174229
     6  C   -0.219231
     7  H    0.226380
     8  H    0.227681
     9  H    0.270225
    10  H    0.270059
    11  H    0.218287
    12  N    0.488042
    13  O   -0.464684
    14  O   -0.464590
    15  C   -0.169946
    16  C   -0.218629
    17  C   -0.170886
    18  C    0.157103
    19  C   -0.170883
    20  C   -0.218657
    21  H    0.227468
    22  H    0.226417
    23  H    0.278097
    24  H    0.274899
    25  H    0.224461
    26  N    0.488465
    27  O   -0.465135
    28  O   -0.461100
 Sum of Mulliken charges =  -0.00000

 Dipole moment (field-independent basis, Debye):
    X=             -6.7756    Y=             -1.7046    Z=             -0.8816  Tot=              7.0421
 Quadrupole moment (field-independent basis, Debye-Ang):
   XX=            -91.6066   YY=           -105.4759   ZZ=           -102.3348
   XY=            -26.1150   XZ=             -3.0084   YZ=             -0.9432

 Normal termination of Gaussian 16 at Fri May  7 01:48:03 2021.
