 Gaussian 16, Revision A.03,
 Gaussian 16:  EM64L-G16RevA.03 25-Dec-2016

 -------------
 #p 6-31g* mp2
 -------------

 ------------------------------------------------------
 Input file generated by CHIRIPA (05-May-2021 14:57:23)
 ------------------------------------------------------
 Symbolic Z-matrix:
 Charge =  0 Multiplicity = 1

                         Standard orientation:
 ---------------------------------------------------------------------
 Center     Atomic      Atomic             Coordinates (Angstroms)
 Number     Number       Type             X           Y           Z
 ---------------------------------------------------------------------
      1          6           0       -3.526258    1.813882   -0.775335
      2          6           0       -3.530325    0.519686   -1.305958
      3          6           0       -2.853202   -0.516364   -0.655842
      4          6           0       -2.179296   -0.221443    0.528287
      5          6           0       -2.156721    1.057672    1.082042
      6          6           0       -2.840678    2.078279    0.414873
      7          1           0       -4.054918    2.612713   -1.286985
      8          1           0       -4.061909    0.311439   -2.230132
      9          1           0       -2.840007   -1.527397   -1.044501
     10          1           0       -1.617891    1.234568    2.004965
     11          1           0       -2.835806    3.082414    0.829281
     12          7           0       -1.458839   -1.310088    1.225563
     13          8           0       -0.872658   -1.024347    2.267379
     14          8           0       -1.493967   -2.428496    0.717068
     15          6           0        1.190107   -2.016736   -1.362018
     16          6           0        0.757819   -0.745551   -1.754114
     17          6           0        1.364377    0.402112   -1.234974
     18          6           0        2.405146    0.241054   -0.321656
     19          6           0        2.858376   -1.011772    0.088589
     20          6           0        2.237159   -2.145561   -0.443537
     21          1           0        0.713224   -2.902880   -1.770342
     22          1           0       -0.055110   -0.642478   -2.467253
     23          1           0        1.049596    1.398297   -1.521236
     24          1           0        3.671117   -1.082647    0.801222
     25          1           0        2.574963   -3.131514   -0.137219
     26          7           0        3.055040    1.448691    0.234808
     27          8           0        3.969956    1.279889    1.037973
     28          8           0        2.637207    2.541170   -0.142737
 ---------------------------------------------------------------------

 SCF Done:  E(RHF) =  -868.338670002     A.U. after   16 cycles
 E2 =    -0.2603301827D+01 EUMP2 =    -0.87094197182884D+03

 The electronic state is 1-A.
 Alpha  occ. eigenvalues --  -20.61236 -20.61194 -20.60417 -20.60384 -15.86239
 Alpha  occ. eigenvalues --  -15.85455 -11.31594 -11.30639 -11.28229 -11.28086
 Alpha  occ. eigenvalues --  -11.27882 -11.27307 -11.27241 -11.27171 -11.27108
 Alpha  occ. eigenvalues --  -11.26895 -11.26239 -11.26071  -1.60262  -1.59482
 Alpha  occ. eigenvalues --   -1.39829  -1.39042  -1.19773  -1.18824  -1.09158
 Alpha  occ. eigenvalues --   -1.08228  -1.05178  -1.04211  -0.96003  -0.95089
 Alpha  occ. eigenvalues --   -0.86567  -0.85606  -0.82844  -0.81936  -0.77894
 Alpha  occ. eigenvalues --   -0.77022  -0.72495  -0.71682  -0.71590  -0.70869
 Alpha  occ. eigenvalues --   -0.70797  -0.69888  -0.65423  -0.65165  -0.64469
 Alpha  occ. eigenvalues --   -0.64219  -0.62518  -0.61577  -0.55656  -0.54671
 Alpha  occ. eigenvalues --   -0.53557  -0.53252  -0.52482  -0.52291  -0.49258
 Alpha  occ. eigenvalues --   -0.49225  -0.48443  -0.48419  -0.45283  -0.44490
 Alpha  occ. eigenvalues --   -0.37865  -0.36909  -0.36554  -0.35659
 Alpha virt. eigenvalues --    0.04565   0.05603   0.10536   0.12152   0.16101
 Alpha virt. eigenvalues --    0.17108   0.20877   0.22042   0.26739   0.27621
 Alpha virt. eigenvalues --    0.28119   0.28995   0.30679   0.31471   0.32147

 Mulliken charges:
               1
     1  C   -0.171795
     2  C   -0.221569
     3  C   -0.176808
     4  C    0.164241
     5  C   -0.170840
     6  C   -0.218057
     7  H    0.227680
     8  H    0.222781
     9  H    0.270308
    10  H    0.279953
    11  H    0.228587
    12  N    0.491142
    13  O   -0.456133
    14  O   -0.466956
    15  C   -0.157876
    16  C   -0.227941
    17  C   -0.174002
    18  C    0.157387
    19  C   -0.166336
    20  C   -0.214056
    21  H    0.228143
    22  H    0.216682
    23  H    0.271047
    24  H    0.275708
    25  H    0.226130
    26  N    0.488486
    27  O   -0.459585
    28  O   -0.466322
 Sum of Mulliken charges =  -0.00000

 Dipole moment (field-independent basis, Debye):
    X=             -4.8251    Y=             -0.5341    Z=             -4.1608  Tot=              6.3937
 Quadrupole moment (field-independent basis, Debye-Ang):
   XX=           -103.7081   YY=           -105.1998   ZZ=           -103.1907
   XY=            -20.7153   XZ=              3.1233   YZ=              4.4899

 Normal termination of Gaussian 16 at Wed May  5 21:02:32 2021.
