 Gaussian 16, Revision A.03,
 Gaussian 16:  EM64L-G16RevA.03 25-Dec-2016

 -------------
 #p 6-31g* mp2
 -------------

 ------------------------------------------------------
 Input file generated by CHIRIPA (05-May-2021 14:51:12)
 ------------------------------------------------------
 Symbolic Z-matrix:
 Charge =  0 Multiplicity = 1

                         Standard orientation:
 ---------------------------------------------------------------------
 Center     Atomic      Atomic             Coordinates (Angstroms)
 Number     Number       Type             X           Y           Z
 ---------------------------------------------------------------------
      1          6           0       -2.948829    0.035448   -0.076550
      2          6           0       -3.456104   -0.575148   -1.383390
      3          6           0       -4.132961   -1.930820   -1.178911
      4          1           0       -2.242810   -0.660873    0.396334
      5          1           0       -3.791723    0.146695    0.619545
      6          1           0       -2.612748   -0.683930   -2.077316
      7          1           0       -4.160852    0.122790   -1.853314
      8          1           0       -4.991969   -1.835068   -0.506945
      9          1           0       -3.435069   -2.646372   -0.732219
     10          1           0       -4.487996   -2.349185   -2.125896
     11          6           0       -2.269728    1.390872   -0.264631
     12          6           0       -1.762453    2.001468    1.042208
     13          6           0       -1.085596    3.357140    0.837729
     14          1           0       -1.426834    1.279624   -0.960726
     15          1           0       -2.975747    2.087192   -0.737515
     16          1           0       -1.057705    1.303529    1.512132
     17          1           0       -2.605809    2.110250    1.736134
     18          1           0       -1.783488    4.072692    0.391038
     19          1           0       -0.226588    3.261388    0.165763
     20          1           0       -0.730561    3.775504    1.784715
     21          6           0        2.179402   -1.338414    0.258317
     22          6           0        1.244881   -1.267154    1.466448
     23          6           0        0.391407   -2.525352    1.628655
     24          1           0        1.582460   -1.497907   -0.650069
     25          1           0        2.833336   -2.215512    0.360610
     26          1           0        0.593844   -0.389669    1.362585
     27          1           0        1.844103   -1.107619    2.372040
     28          1           0        1.026556   -3.407737    1.757428
     29          1           0       -0.230807   -2.685708    0.742238
     30          1           0       -0.269183   -2.453008    2.498280
     31          6           0        3.039155   -0.087906    0.082864
     32          6           0        3.973676   -0.159166   -1.125267
     33          6           0        4.827150    1.099032   -1.287474
     34          1           0        2.385221    0.789192   -0.019429
     35          1           0        3.636098    0.071589    0.991250
     36          1           0        3.374454   -0.318700   -2.030859
     37          1           0        4.624714   -1.036650   -1.021404
     38          1           0        5.449365    1.259389   -0.401056
     39          1           0        4.192001    1.981417   -1.416247
     40          1           0        5.487740    1.026688   -2.157099
 ---------------------------------------------------------------------

 SCF Done:  E(RHF) =  -470.733286568     A.U. after   11 cycles
 E2 =    -0.1583864193D+01 EUMP2 =    -0.47231715076064D+03

 The electronic state is 1-A.
 Alpha  occ. eigenvalues --  -11.21663 -11.21644 -11.21625 -11.21621 -11.21466
 Alpha  occ. eigenvalues --  -11.21431 -11.21406 -11.21366 -11.21154 -11.21107
 Alpha  occ. eigenvalues --  -11.21100 -11.21085  -1.08507  -1.08445  -1.03594
 Alpha  occ. eigenvalues --   -1.03554  -0.96041  -0.96000  -0.87063  -0.87010
 Alpha  occ. eigenvalues --   -0.79706  -0.79572  -0.78337  -0.78240  -0.65349
 Alpha  occ. eigenvalues --   -0.64900  -0.61048  -0.60904  -0.59418  -0.59355
 Alpha  occ. eigenvalues --   -0.57646  -0.57613  -0.55379  -0.55244  -0.52731
 Alpha  occ. eigenvalues --   -0.52695  -0.52463  -0.52426  -0.50085  -0.49866
 Alpha  occ. eigenvalues --   -0.48067  -0.47899  -0.46928  -0.46440  -0.46018
 Alpha  occ. eigenvalues --   -0.45799  -0.45767  -0.45429  -0.43841  -0.43808
 Alpha virt. eigenvalues --    0.19228   0.22397   0.23662   0.24376   0.25890
 Alpha virt. eigenvalues --    0.26657   0.27336   0.27657   0.28270   0.29378
 Alpha virt. eigenvalues --    0.30282   0.31449   0.31797   0.31818   0.32401

 Mulliken charges:
               1
     1  C   -0.303545
     2  C   -0.299437
     3  C   -0.476057
     4  H    0.154924
     5  H    0.149747
     6  H    0.151300
     7  H    0.152093
     8  H    0.155415
     9  H    0.155418
    10  H    0.160313
    11  C   -0.297731
    12  C   -0.307612
    13  C   -0.475463
    14  H    0.148523
    15  H    0.150017
    16  H    0.158786
    17  H    0.152469
    18  H    0.155453
    19  H    0.154544
    20  H    0.160675
    21  C   -0.297554
    22  C   -0.310017
    23  C   -0.476598
    24  H    0.149140
    25  H    0.149940
    26  H    0.160552
    27  H    0.152569
    28  H    0.155799
    29  H    0.155231
    30  H    0.160988
    31  C   -0.298652
    32  C   -0.299724
    33  C   -0.475727
    34  H    0.149165
    35  H    0.150048
    36  H    0.151868
    37  H    0.152144
    38  H    0.155341
    39  H    0.155227
    40  H    0.160425
 Sum of Mulliken charges =  -0.00000

 Dipole moment (field-independent basis, Debye):
    X=              0.0081    Y=             -0.0073    Z=              0.0248  Tot=              0.0271
 Quadrupole moment (field-independent basis, Debye-Ang):
   XX=            -84.0636   YY=            -86.0626   ZZ=            -84.4641
   XY=             -1.8405   XZ=              0.4680   YZ=              0.0004

 Normal termination of Gaussian 16 at Wed May  5 16:50:21 2021.
