 Gaussian 16, Revision A.03,
 Gaussian 16:  EM64L-G16RevA.03 25-Dec-2016

 -------------
 #p 6-31g* mp2
 -------------

 ------------------------------------------------------
 Input file generated by CHIRIPA (05-May-2021 14:53:14)
 ------------------------------------------------------
 Symbolic Z-matrix:
 Charge =  0 Multiplicity = 1

                         Standard orientation:
 ---------------------------------------------------------------------
 Center     Atomic      Atomic             Coordinates (Angstroms)
 Number     Number       Type             X           Y           Z
 ---------------------------------------------------------------------
      1          6           0        3.358230   -0.363642   -0.175983
      2          6           0        4.097871   -1.307207    0.773017
      3          6           0        3.984864   -2.773721    0.355452
      4          1           0        2.299424   -0.653440   -0.219468
      5          1           0        3.758446   -0.488530   -1.191673
      6          1           0        3.697326   -1.179579    1.786866
      7          1           0        5.155001   -1.015010    0.814396
      8          1           0        4.402348   -2.922496   -0.645634
      9          1           0        2.936391   -3.088000    0.332362
     10          1           0        4.520791   -3.430663    1.047601
     11          6           0        3.461971    1.105915    0.228207
     12          6           0        2.722330    2.049480   -0.720793
     13          6           0        2.835337    3.515994   -0.303228
     14          1           0        3.061755    1.230803    1.243897
     15          1           0        4.520777    1.395713    0.271692
     16          1           0        1.665200    1.757283   -0.762171
     17          1           0        3.122875    1.921852   -1.734642
     18          1           0        3.883810    3.830273   -0.280138
     19          1           0        2.417853    3.664769    0.697858
     20          1           0        2.299410    4.172936   -0.995377
     21          6           0       -4.142545    1.692545    0.479553
     22          6           0       -4.710399    0.432503    0.264248
     23          6           0       -3.900929   -0.673005   -0.013528
     24          6           0       -2.521215   -0.481611   -0.068733
     25          6           0       -1.925505    0.761110    0.141188
     26          6           0       -2.754358    1.852546    0.417445
     27          1           0       -4.778891    2.545864    0.694746
     28          1           0       -5.788171    0.305287    0.311865
     29          1           0       -4.314121   -1.659685   -0.184262
     30          1           0       -0.847843    0.856756    0.087217
     31          1           0       -2.310586    2.829937    0.584229
     32          7           0       -1.654004   -1.644514   -0.361999
     33          8           0       -0.441249   -1.449581   -0.405145
     34          8           0       -2.203461   -2.728909   -0.543161
 ---------------------------------------------------------------------

 SCF Done:  E(RHF) =  -669.536165850     A.U. after   15 cycles
 E2 =    -0.2091747371D+01 EUMP2 =    -0.67162791322121D+03

 The electronic state is 1-A.
 Alpha  occ. eigenvalues --  -20.60963 -20.60951 -15.86005 -11.31302 -11.27867
 Alpha  occ. eigenvalues --  -11.27860 -11.27595 -11.26867 -11.26856 -11.21515
 Alpha  occ. eigenvalues --  -11.21148 -11.20969 -11.20777 -11.20420 -11.20059
 Alpha  occ. eigenvalues --   -1.60024  -1.39582  -1.19469  -1.08876  -1.07882
 Alpha  occ. eigenvalues --   -1.04863  -1.03028  -0.95724  -0.95459  -0.86478
 Alpha  occ. eigenvalues --   -0.86264  -0.82560  -0.79149  -0.77707  -0.77496
 Alpha  occ. eigenvalues --   -0.72232  -0.71338  -0.70581  -0.65131  -0.64876
 Alpha  occ. eigenvalues --   -0.64508  -0.62214  -0.60428  -0.58894  -0.57050
 Alpha  occ. eigenvalues --   -0.55368  -0.54740  -0.53195  -0.52958  -0.52214
 Alpha  occ. eigenvalues --   -0.51861  -0.49406  -0.48983  -0.48965  -0.47440
 Alpha  occ. eigenvalues --   -0.46209  -0.45156  -0.45018  -0.44941  -0.43243
 Alpha  occ. eigenvalues --   -0.37446  -0.36463
 Alpha virt. eigenvalues --    0.04917   0.11186   0.16424   0.19708   0.22893
 Alpha virt. eigenvalues --    0.24700   0.25561   0.27520   0.27571   0.28482
 Alpha virt. eigenvalues --    0.29469   0.31219   0.31509   0.32020   0.32209

 Mulliken charges:
               1
     1  C   -0.311943
     2  C   -0.297851
     3  C   -0.478448
     4  H    0.177924
     5  H    0.147125
     6  H    0.149264
     7  H    0.146830
     8  H    0.152968
     9  H    0.169017
    10  H    0.155579
    11  C   -0.297190
    12  C   -0.301377
    13  C   -0.475609
    14  H    0.145603
    15  H    0.148011
    16  H    0.147426
    17  H    0.154940
    18  H    0.157470
    19  H    0.150939
    20  H    0.157129
    21  C   -0.170369
    22  C   -0.218800
    23  C   -0.170181
    24  C    0.156874
    25  C   -0.175325
    26  C   -0.220381
    27  H    0.226119
    28  H    0.223874
    29  H    0.275853
    30  H    0.282428
    31  H    0.224495
    32  N    0.496746
    33  O   -0.470396
    34  O   -0.458747
 Sum of Mulliken charges =  -0.00000

 Dipole moment (field-independent basis, Debye):
    X=             -3.2512    Y=              3.9388    Z=              0.9769  Tot=              5.1999
 Quadrupole moment (field-independent basis, Debye-Ang):
   XX=            -76.0716   YY=            -98.8232   ZZ=            -95.6023
   XY=             -6.3307   XZ=             -2.9172   YZ=             -0.7153

 Normal termination of Gaussian 16 at Thu May  6 02:39:51 2021.
