 Gaussian 16, Revision A.03,
 Gaussian 16:  EM64L-G16RevA.03 25-Dec-2016

 -------------
 #p 6-31g* mp2
 -------------

 ------------------------------------------------------
 Input file generated by CHIRIPA (05-May-2021 14:55:21)
 ------------------------------------------------------
 Symbolic Z-matrix:
 Charge =  0 Multiplicity = 1

                         Standard orientation:
 ---------------------------------------------------------------------
 Center     Atomic      Atomic             Coordinates (Angstroms)
 Number     Number       Type             X           Y           Z
 ---------------------------------------------------------------------
      1          6           0        0.984255   -2.093875   -0.346952
      2          6           0        0.749302   -0.738154   -0.598623
      3          6           0        1.772467    0.201218   -0.439684
      4          6           0        3.024088   -0.252067   -0.025840
      5          6           0        3.289335   -1.595971    0.232728
      6          6           0        2.251288   -2.517710    0.067190
      7          1           0        0.183655   -2.816754   -0.472983
      8          1           0       -0.233697   -0.406131   -0.920365
      9          1           0        1.618068    1.256803   -0.627618
     10          1           0        4.279719   -1.896727    0.552264
     11          1           0        2.436637   -3.569948    0.263365
     12          7           0        4.115144    0.733071    0.145915
     13          8           0        5.208975    0.308211    0.511518
     14          8           0        3.855824    1.911427   -0.088319
     15          6           0       -3.692999   -0.204160   -0.133203
     16          6           0       -4.912648   -0.911009    0.459087
     17          6           0       -5.003550   -2.380010    0.044878
     18          1           0       -3.731684   -0.275970   -1.228782
     19          1           0       -2.782607   -0.732168    0.182693
     20          1           0       -5.820389   -0.381010    0.143299
     21          1           0       -4.871155   -0.837343    1.553375
     22          1           0       -4.115125   -2.928714    0.373857
     23          1           0       -5.069753   -2.469788   -1.044231
     24          1           0       -5.882675   -2.865992    0.479412
     25          6           0       -3.588328    1.265101    0.271821
     26          6           0       -2.368680    1.971950   -0.320470
     27          6           0       -2.277778    3.440950    0.093739
     28          1           0       -4.498719    1.793108   -0.044075
     29          1           0       -3.549644    1.336911    1.367398
     30          1           0       -2.410173    1.898283   -1.414759
     31          1           0       -1.460939    1.441950   -0.004682
     32          1           0       -2.211575    3.530728    1.182848
     33          1           0       -3.166202    3.989654   -0.235240
     34          1           0       -1.398653    3.926932   -0.340796
 ---------------------------------------------------------------------

 SCF Done:  E(RHF) =  -669.535567376     A.U. after   15 cycles
 E2 =    -0.2091962738D+01 EUMP2 =    -0.67162753011413D+03

 The electronic state is 1-A.
 Alpha  occ. eigenvalues --  -20.60736 -20.60731 -15.85789 -11.31150 -11.27723
 Alpha  occ. eigenvalues --  -11.27703 -11.27448 -11.26736 -11.26656 -11.22484
 Alpha  occ. eigenvalues --  -11.22380 -11.22318 -11.22154 -11.21835 -11.21636
 Alpha  occ. eigenvalues --   -1.59812  -1.39365  -1.19319  -1.09268  -1.08712
 Alpha  occ. eigenvalues --   -1.04721  -1.04297  -0.96725  -0.95550  -0.87738
 Alpha  occ. eigenvalues --   -0.86116  -0.82389  -0.80388  -0.79136  -0.77418
 Alpha  occ. eigenvalues --   -0.72007  -0.71135  -0.70426  -0.65918  -0.64969
 Alpha  occ. eigenvalues --   -0.64699  -0.62117  -0.61644  -0.60090  -0.58354
 Alpha  occ. eigenvalues --   -0.56003  -0.55219  -0.53410  -0.53154  -0.53050
 Alpha  occ. eigenvalues --   -0.52806  -0.50658  -0.48779  -0.48763  -0.48677
 Alpha  occ. eigenvalues --   -0.47414  -0.46607  -0.46548  -0.44772  -0.44562
 Alpha  occ. eigenvalues --   -0.37299  -0.36311
 Alpha virt. eigenvalues --    0.05080   0.11271   0.16483   0.19953   0.22598
 Alpha virt. eigenvalues --    0.23232   0.25066   0.25900   0.26557   0.27793
 Alpha virt. eigenvalues --    0.29642   0.30488   0.30863   0.31356   0.32220

 Mulliken charges:
               1
     1  C   -0.172567
     2  C   -0.224948
     3  C   -0.173011
     4  C    0.158703
     5  C   -0.171137
     6  C   -0.218468
     7  H    0.225794
     8  H    0.233477
     9  H    0.275958
    10  H    0.275473
    11  H    0.223229
    12  N    0.488110
    13  O   -0.460607
    14  O   -0.460473
    15  C   -0.301685
    16  C   -0.299975
    17  C   -0.475897
    18  H    0.149184
    19  H    0.143232
    20  H    0.155239
    21  H    0.154670
    22  H    0.151336
    23  H    0.155553
    24  H    0.163730
    25  C   -0.297512
    26  C   -0.307876
    27  C   -0.475984
    28  H    0.153374
    29  H    0.153312
    30  H    0.151313
    31  H    0.148193
    32  H    0.158887
    33  H    0.157899
    34  H    0.163474
 Sum of Mulliken charges =  -0.00000

 Dipole moment (field-independent basis, Debye):
    X=             -4.0527    Y=             -3.3712    Z=             -0.5526  Tot=              5.3004
 Quadrupole moment (field-independent basis, Debye-Ang):
   XX=           -115.3611   YY=            -91.2236   ZZ=            -94.5294
   XY=            -12.8241   XZ=             -0.5340   YZ=             -1.3120

 Normal termination of Gaussian 16 at Thu May  6 09:18:45 2021.
