 Gaussian 16, Revision A.03,
 Gaussian 16:  EM64L-G16RevA.03 25-Dec-2016

 -------------
 #p 6-31g* mp2
 -------------

 ------------------------------------------------------
 Input file generated by CHIRIPA (05-May-2021 14:51:11)
 ------------------------------------------------------
 Symbolic Z-matrix:
 Charge =  0 Multiplicity = 1

                         Standard orientation:
 ---------------------------------------------------------------------
 Center     Atomic      Atomic             Coordinates (Angstroms)
 Number     Number       Type             X           Y           Z
 ---------------------------------------------------------------------
      1          6           0        2.641158    0.003797    0.512190
      2          6           0        2.354162    0.515435    1.924226
      3          6           0        0.875900    0.835604    2.147898
      4          1           0        2.313104    0.756720   -0.217490
      5          1           0        2.037981   -0.895584    0.325944
      6          1           0        2.958736    1.412787    2.108250
      7          1           0        2.683112   -0.238712    2.650635
      8          1           0        0.260581   -0.056279    1.991289
      9          1           0        0.537771    1.604604    1.445823
     10          1           0        0.693223    1.199711    3.163730
     11          6           0        4.114719   -0.320611    0.273223
     12          6           0        4.401715   -0.832249   -1.138813
     13          6           0        5.879976   -1.152419   -1.362485
     14          1           0        4.717895    0.578769    0.459468
     15          1           0        4.442772   -1.073535    1.002903
     16          1           0        4.072765   -0.078102   -1.865222
     17          1           0        3.797141   -1.729602   -1.322837
     18          1           0        6.218106   -1.921418   -0.660410
     19          1           0        6.495296   -0.260535   -1.205876
     20          1           0        6.062653   -1.516525   -2.378317
     21          6           0       -2.901642    0.715190   -0.176913
     22          6           0       -2.521579    1.662997   -1.314981
     23          6           0       -1.568234    2.771520   -0.867646
     24          1           0       -3.364518    1.293601    0.634339
     25          1           0       -1.988125    0.268538    0.239483
     26          1           0       -3.435641    2.106674   -1.730018
     27          1           0       -2.059727    1.082235   -2.123699
     28          1           0       -0.640366    2.345446   -0.472522
     29          1           0       -2.024098    3.375706   -0.076604
     30          1           0       -1.309644    3.437467   -1.696804
     31          6           0       -3.854234   -0.398376   -0.608500
     32          6           0       -4.234298   -1.346183    0.529568
     33          6           0       -5.187641   -2.454704    0.082233
     34          1           0       -4.767750    0.048276   -1.024895
     35          1           0       -3.391359   -0.976787   -1.419752
     36          1           0       -4.696150   -0.765421    1.338286
     37          1           0       -3.320234   -1.789859    0.944605
     38          1           0       -4.731778   -3.058891   -0.708808
     39          1           0       -6.115510   -2.028632   -0.312890
     40          1           0       -5.446234   -3.120653    0.911391
 ---------------------------------------------------------------------

 SCF Done:  E(RHF) =  -470.733153504     A.U. after   11 cycles
 E2 =    -0.1583024367D+01 EUMP2 =    -0.47231617787108D+03

 The electronic state is 1-A.
 Alpha  occ. eigenvalues --  -11.21626 -11.21624 -11.21577 -11.21565 -11.21444
 Alpha  occ. eigenvalues --  -11.21383 -11.21352 -11.21280 -11.21089 -11.21070
 Alpha  occ. eigenvalues --  -11.21053 -11.21046  -1.08463  -1.08386  -1.03563
 Alpha  occ. eigenvalues --   -1.03493  -0.96010  -0.95946  -0.87030  -0.86962
 Alpha  occ. eigenvalues --   -0.79668  -0.79522  -0.78299  -0.78169  -0.65099
 Alpha  occ. eigenvalues --   -0.65017  -0.61023  -0.60851  -0.59386  -0.59306
 Alpha  occ. eigenvalues --   -0.57652  -0.57535  -0.55417  -0.55129  -0.52693
 Alpha  occ. eigenvalues --   -0.52651  -0.52486  -0.52346  -0.50081  -0.49764
 Alpha  occ. eigenvalues --   -0.48118  -0.47753  -0.46710  -0.46506  -0.45934
 Alpha  occ. eigenvalues --   -0.45739  -0.45701  -0.45472  -0.43810  -0.43749
 Alpha virt. eigenvalues --    0.21129   0.23078   0.23478   0.24682   0.25623
 Alpha virt. eigenvalues --    0.26059   0.27117   0.27529   0.27947   0.29488
 Alpha virt. eigenvalues --    0.30520   0.31545   0.31781   0.31800   0.32034

 Mulliken charges:
               1
     1  C   -0.298966
     2  C   -0.299665
     3  C   -0.483272
     4  H    0.149613
     5  H    0.148988
     6  H    0.152170
     7  H    0.152000
     8  H    0.155803
     9  H    0.162451
    10  H    0.160828
    11  C   -0.298253
    12  C   -0.299712
    13  C   -0.475736
    14  H    0.149779
    15  H    0.149847
    16  H    0.152064
    17  H    0.151798
    18  H    0.155211
    19  H    0.155291
    20  H    0.160318
    21  C   -0.301907
    22  C   -0.299205
    23  C   -0.481369
    24  H    0.149518
    25  H    0.154370
    26  H    0.151724
    27  H    0.151746
    28  H    0.160163
    29  H    0.155283
    30  H    0.159933
    31  C   -0.298282
    32  C   -0.299401
    33  C   -0.475669
    34  H    0.149354
    35  H    0.149384
    36  H    0.152074
    37  H    0.151365
    38  H    0.155051
    39  H    0.155192
    40  H    0.160121
 Sum of Mulliken charges =  -0.00000

 Dipole moment (field-independent basis, Debye):
    X=              0.0211    Y=              0.0088    Z=              0.0188  Tot=              0.0296
 Quadrupole moment (field-independent basis, Debye-Ang):
   XX=            -85.6823   YY=            -84.3406   ZZ=            -84.7730
   XY=             -0.6344   XZ=             -0.0550   YZ=             -0.3556

 Normal termination of Gaussian 16 at Thu May  6 05:27:03 2021.
