 Gaussian 16, Revision A.03,
 Gaussian 16:  EM64L-G16RevA.03 25-Dec-2016

 -------------
 #p 6-31g* mp2
 -------------

 ------------------------------------------------------
 Input file generated by CHIRIPA (05-May-2021 14:51:08)
 ------------------------------------------------------
 Symbolic Z-matrix:
 Charge =  0 Multiplicity = 1

                         Standard orientation:
 ---------------------------------------------------------------------
 Center     Atomic      Atomic             Coordinates (Angstroms)
 Number     Number       Type             X           Y           Z
 ---------------------------------------------------------------------
      1          6           0       -4.030273   -0.465990   -0.056481
      2          6           0       -4.646609    0.894697    0.270085
      3          6           0       -6.175153    0.873873    0.239880
      4          1           0       -4.374467   -0.788696   -1.048619
      5          1           0       -4.401997   -1.210755    0.660834
      6          1           0       -4.272758    1.636955   -0.446786
      7          1           0       -4.300756    1.214288    1.261479
      8          1           0       -6.565076    0.154572    0.967319
      9          1           0       -6.536919    0.579640   -0.750652
     10          1           0       -6.594792    1.856689    0.476176
     11          6           0       -2.502851   -0.461194   -0.030261
     12          6           0       -1.886515   -1.821881   -0.356827
     13          6           0       -0.357970   -1.801057   -0.326622
     14          1           0       -2.131126    0.283571   -0.747576
     15          1           0       -2.158657   -0.138489    0.961877
     16          1           0       -2.232368   -2.141472   -1.348221
     17          1           0       -2.260366   -2.564139    0.360044
     18          1           0        0.003795   -1.506824    0.663910
     19          1           0        0.031952   -1.081756   -1.054061
     20          1           0        0.061669   -2.783873   -0.562918
     21          6           0        3.082889   -0.268260   -0.075325
     22          6           0        4.148087   -1.248358    0.417370
     23          6           0        3.766202   -2.708558    0.172885
     24          1           0        2.130744   -0.488689    0.426449
     25          1           0        2.914928   -0.429438   -1.149198
     26          1           0        4.314984   -1.084443    1.489700
     27          1           0        5.097853   -1.025448   -0.085493
     28          1           0        3.619241   -2.894547   -0.895952
     29          1           0        2.831924   -2.953880    0.688191
     30          1           0        4.541659   -3.391982    0.532689
     31          6           0        3.450235    1.195444    0.162066
     32          6           0        2.385037    2.175541   -0.330628
     33          6           0        2.766921    3.635742   -0.086142
     34          1           0        3.618195    1.356622    1.235941
     35          1           0        4.402379    1.415873   -0.339708
     36          1           0        1.435270    1.952631    0.172235
     37          1           0        2.218140    2.011628   -1.402959
     38          1           0        3.701200    3.881063   -0.601450
     39          1           0        2.913882    3.821732    0.982694
     40          1           0        1.991465    4.319166   -0.445947
 ---------------------------------------------------------------------

 SCF Done:  E(RHF) =  -470.732395231     A.U. after   11 cycles
 E2 =    -0.1583600783D+01 EUMP2 =    -0.47231599601424D+03

 The electronic state is 1-A.
 Alpha  occ. eigenvalues --  -11.21609 -11.21582 -11.21555 -11.21502 -11.21413
 Alpha  occ. eigenvalues --  -11.21354 -11.21296 -11.21169 -11.21077 -11.21038
 Alpha  occ. eigenvalues --  -11.21036 -11.20979  -1.08440  -1.08333  -1.03541
 Alpha  occ. eigenvalues --   -1.03447  -0.95998  -0.95890  -0.87033  -0.86900
 Alpha  occ. eigenvalues --   -0.79691  -0.79469  -0.78317  -0.78045  -0.65082
 Alpha  occ. eigenvalues --   -0.64966  -0.60961  -0.60829  -0.59384  -0.59241
 Alpha  occ. eigenvalues --   -0.57727  -0.57404  -0.55291  -0.55178  -0.52708
 Alpha  occ. eigenvalues --   -0.52643  -0.52557  -0.52154  -0.49957  -0.49827
 Alpha  occ. eigenvalues --   -0.48038  -0.47787  -0.46697  -0.46503  -0.46004
 Alpha  occ. eigenvalues --   -0.45750  -0.45579  -0.45249  -0.43769  -0.43694
 Alpha virt. eigenvalues --    0.21731   0.23052   0.23871   0.24405   0.25801
 Alpha virt. eigenvalues --    0.26182   0.27083   0.27288   0.27967   0.30011
 Alpha virt. eigenvalues --    0.30561   0.31368   0.31639   0.31998   0.32274

 Mulliken charges:
               1
     1  C   -0.298191
     2  C   -0.299641
     3  C   -0.475707
     4  H    0.149737
     5  H    0.149520
     6  H    0.151991
     7  H    0.151813
     8  H    0.155176
     9  H    0.155212
    10  H    0.160268
    11  C   -0.298376
    12  C   -0.300616
    13  C   -0.477604
    14  H    0.149885
    15  H    0.148869
    16  H    0.151833
    17  H    0.151550
    18  H    0.153948
    19  H    0.159049
    20  H    0.161745
    21  C   -0.304516
    22  C   -0.299357
    23  C   -0.477051
    24  H    0.160363
    25  H    0.148276
    26  H    0.150944
    27  H    0.151182
    28  H    0.154860
    29  H    0.157264
    30  H    0.159441
    31  C   -0.297577
    32  C   -0.300138
    33  C   -0.475504
    34  H    0.148734
    35  H    0.148957
    36  H    0.152409
    37  H    0.151101
    38  H    0.155111
    39  H    0.155080
    40  H    0.159958
 Sum of Mulliken charges =  -0.00000

 Dipole moment (field-independent basis, Debye):
    X=             -0.0380    Y=             -0.0200    Z=             -0.0088  Tot=              0.0439
 Quadrupole moment (field-independent basis, Debye-Ang):
   XX=            -86.1539   YY=            -86.0547   ZZ=            -82.9425
   XY=              0.0063   XZ=             -0.4203   YZ=             -0.3792

 Normal termination of Gaussian 16 at Thu May  6 03:40:07 2021.
