 Gaussian 16, Revision A.03,
 Gaussian 16:  EM64L-G16RevA.03 25-Dec-2016

 -------------
 #p 6-31g* mp2
 -------------

 ------------------------------------------------------
 Input file generated by CHIRIPA (05-May-2021 14:57:22)
 ------------------------------------------------------
 Symbolic Z-matrix:
 Charge =  0 Multiplicity = 1

                         Standard orientation:
 ---------------------------------------------------------------------
 Center     Atomic      Atomic             Coordinates (Angstroms)
 Number     Number       Type             X           Y           Z
 ---------------------------------------------------------------------
      1          6           0       -1.018087   -1.732207   -0.835216
      2          6           0       -0.874181   -0.341153   -0.863130
      3          6           0       -1.927281    0.489642   -0.469038
      4          6           0       -3.115672   -0.107071   -0.050767
      5          6           0       -3.289763   -1.489629   -0.011822
      6          6           0       -2.223294   -2.301003   -0.410400
      7          1           0       -0.194821   -2.370045   -1.143099
      8          1           0        0.060653    0.103357   -1.192586
      9          1           0       -1.842974    1.569536   -0.480823
     10          1           0       -4.233723   -1.903494    0.321454
     11          1           0       -2.337894   -3.381001   -0.387692
     12          7           0       -4.237618    0.762174    0.368815
     13          8           0       -5.274401    0.211778    0.733211
     14          8           0       -4.058973    1.977424    0.325343
     15          6           0        3.350926   -2.178090    0.660422
     16          6           0        3.231262   -1.767959   -0.671491
     17          6           0        2.998426   -0.425017   -0.982689
     18          6           0        2.890141    0.485105    0.067665
     19          6           0        3.004673    0.107422    1.404651
     20          6           0        3.237450   -1.240744    1.692422
     21          1           0        3.531777   -3.223349    0.893069
     22          1           0        3.318949   -2.493715   -1.475005
     23          1           0        2.901646   -0.080205   -2.005016
     24          1           0        2.912609    0.854067    2.184050
     25          1           0        3.329947   -1.556396    2.727726
     26          7           0        2.643680    1.909581   -0.249385
     27          8           0        2.552211    2.691834    0.694199
     28          8           0        2.546638    2.216862   -1.435471
 ---------------------------------------------------------------------

 SCF Done:  E(RHF) =  -868.337553207     A.U. after   16 cycles
 E2 =    -0.2601869143D+01 EUMP2 =    -0.87093942235000D+03

 The electronic state is 1-A.
 Alpha  occ. eigenvalues --  -20.61779 -20.61752 -20.60570 -20.60550 -15.86797
 Alpha  occ. eigenvalues --  -15.85616 -11.32228 -11.31016 -11.28853 -11.28733
 Alpha  occ. eigenvalues --  -11.28526 -11.27881 -11.27737 -11.27633 -11.27522
 Alpha  occ. eigenvalues --  -11.27391 -11.26686 -11.26541  -1.60837  -1.59639
 Alpha  occ. eigenvalues --   -1.40385  -1.39190  -1.20418  -1.19202  -1.09789
 Alpha  occ. eigenvalues --   -1.08604  -1.05816  -1.04603  -0.96607  -0.95426
 Alpha  occ. eigenvalues --   -0.87209  -0.86010  -0.83425  -0.82251  -0.78474
 Alpha  occ. eigenvalues --   -0.77287  -0.72998  -0.72189  -0.71833  -0.71484
 Alpha  occ. eigenvalues --   -0.70964  -0.70335  -0.66051  -0.65788  -0.64855
 Alpha  occ. eigenvalues --   -0.64633  -0.63140  -0.61949  -0.56279  -0.55153
 Alpha  occ. eigenvalues --   -0.54190  -0.53878  -0.52930  -0.52651  -0.49780
 Alpha  occ. eigenvalues --   -0.49758  -0.48601  -0.48583  -0.45753  -0.44586
 Alpha  occ. eigenvalues --   -0.38381  -0.37440  -0.37189  -0.36196
 Alpha virt. eigenvalues --    0.04021   0.05243   0.10080   0.11420   0.15497
 Alpha virt. eigenvalues --    0.16711   0.20245   0.21619   0.26143   0.26838
 Alpha virt. eigenvalues --    0.27742   0.28405   0.29677   0.30949   0.32055

 Mulliken charges:
               1
     1  C   -0.171590
     2  C   -0.222716
     3  C   -0.172176
     4  C    0.158379
     5  C   -0.171567
     6  C   -0.219281
     7  H    0.219002
     8  H    0.227628
     9  H    0.282163
    10  H    0.274613
    11  H    0.220221
    12  N    0.487811
    13  O   -0.462163
    14  O   -0.457594
    15  C   -0.171133
    16  C   -0.222294
    17  C   -0.184510
    18  C    0.159025
    19  C   -0.167995
    20  C   -0.216649
    21  H    0.228578
    22  H    0.224706
    23  H    0.276597
    24  H    0.280247
    25  H    0.228270
    26  N    0.486822
    27  O   -0.452814
    28  O   -0.461581
 Sum of Mulliken charges =  -0.00000

 Dipole moment (field-independent basis, Debye):
    X=              5.0824    Y=             -7.9082    Z=             -0.1266  Tot=              9.4014
 Quadrupole moment (field-independent basis, Debye-Ang):
   XX=           -123.6721   YY=           -106.1855   ZZ=           -100.2033
   XY=             -2.7602   XZ=              7.7497   YZ=              0.7404

 Normal termination of Gaussian 16 at Thu May  6 19:32:31 2021.
