 Gaussian 16, Revision A.03,
 Gaussian 16:  EM64L-G16RevA.03 25-Dec-2016

 -------------
 #p 6-31g* mp2
 -------------

 ------------------------------------------------------
 Input file generated by CHIRIPA (05-May-2021 14:57:25)
 ------------------------------------------------------
 Symbolic Z-matrix:
 Charge =  0 Multiplicity = 1

                         Standard orientation:
 ---------------------------------------------------------------------
 Center     Atomic      Atomic             Coordinates (Angstroms)
 Number     Number       Type             X           Y           Z
 ---------------------------------------------------------------------
      1          6           0       -1.591766   -0.480300   -0.778254
      2          6           0       -2.466031   -1.481977   -0.343714
      3          6           0       -3.791578   -1.176502   -0.020982
      4          6           0       -4.211214    0.147073   -0.144864
      5          6           0       -3.364199    1.167277   -0.575025
      6          6           0       -2.042845    0.838805   -0.892321
      7          1           0       -0.563677   -0.726533   -1.026849
      8          1           0       -2.118471   -2.507273   -0.254181
      9          1           0       -4.489614   -1.932370    0.317878
     10          1           0       -3.739692    2.180262   -0.654303
     11          1           0       -1.366103    1.618774   -1.229534
     12          7           0       -5.612292    0.482639    0.193921
     13          8           0       -5.957484    1.656376    0.076361
     14          8           0       -6.338736   -0.434436    0.570606
     15          6           0        6.072370    1.137992   -0.489851
     16          6           0        5.629324    0.038536   -1.232435
     17          6           0        4.471501   -0.650369   -0.859068
     18          6           0        3.778045   -0.210656    0.267459
     19          6           0        4.194025    0.881204    1.027785
     20          6           0        5.354572    1.555081    0.635904
     21          1           0        6.972852    1.667312   -0.787083
     22          1           0        6.184768   -0.287615   -2.107165
     23          1           0        4.106064   -1.504666   -1.415889
     24          1           0        3.619178    1.182785    1.894974
     25          1           0        5.696294    2.408603    1.214497
     26          7           0        2.550868   -0.932014    0.672526
     27          8           0        1.957793   -0.524751    1.669037
     28          8           0        2.205320   -1.891018   -0.014165
 ---------------------------------------------------------------------

 SCF Done:  E(RHF) =  -868.339821083     A.U. after   16 cycles
 E2 =    -0.2598414897D+01 EUMP2 =    -0.87093823598066D+03

 The electronic state is 1-A.
 Alpha  occ. eigenvalues --  -20.61910 -20.61866 -20.60054 -20.60045 -15.86905
 Alpha  occ. eigenvalues --  -15.85101 -11.32024 -11.30270 -11.28570 -11.28543
 Alpha  occ. eigenvalues --  -11.28240 -11.27510 -11.27492 -11.26874 -11.26806
 Alpha  occ. eigenvalues --  -11.26390 -11.25813 -11.25676  -1.60961  -1.59132
 Alpha  occ. eigenvalues --   -1.40514  -1.38692  -1.20172  -1.18415  -1.09611
 Alpha  occ. eigenvalues --   -1.07813  -1.05530  -1.03804  -0.96484  -0.94687
 Alpha  occ. eigenvalues --   -0.86939  -0.85192  -0.83319  -0.81542  -0.78401
 Alpha  occ. eigenvalues --   -0.76644  -0.73120  -0.72286  -0.71324  -0.71263
 Alpha  occ. eigenvalues --   -0.70454  -0.69438  -0.65819  -0.65520  -0.64058
 Alpha  occ. eigenvalues --   -0.63796  -0.62876  -0.61171  -0.56030  -0.54206
 Alpha  occ. eigenvalues --   -0.53871  -0.53611  -0.52124  -0.51889  -0.49901
 Alpha  occ. eigenvalues --   -0.49858  -0.48089  -0.48062  -0.45962  -0.44143
 Alpha  occ. eigenvalues --   -0.38136  -0.37125  -0.36319  -0.35418
 Alpha virt. eigenvalues --    0.04075   0.05906   0.10533   0.12255   0.15620
 Alpha virt. eigenvalues --    0.17466   0.20731   0.22473   0.26665   0.27583
 Alpha virt. eigenvalues --    0.28255   0.29296   0.30386   0.31741   0.32123

 Mulliken charges:
               1
     1  C   -0.168490
     2  C   -0.218391
     3  C   -0.172006
     4  C    0.157272
     5  C   -0.171808
     6  C   -0.219232
     7  H    0.236096
     8  H    0.228148
     9  H    0.273197
    10  H    0.271640
    11  H    0.217915
    12  N    0.488321
    13  O   -0.463672
    14  O   -0.462330
    15  C   -0.169818
    16  C   -0.218504
    17  C   -0.171670
    18  C    0.156458
    19  C   -0.171077
    20  C   -0.218600
    21  H    0.228492
    22  H    0.225723
    23  H    0.275143
    24  H    0.277270
    25  H    0.226290
    26  N    0.486480
    27  O   -0.455252
    28  O   -0.467594
 Sum of Mulliken charges =  -0.00000

 Dipole moment (field-independent basis, Debye):
    X=              9.7896    Y=              1.3063    Z=             -2.5508  Tot=             10.2004
 Quadrupole moment (field-independent basis, Debye-Ang):
   XX=           -114.8618   YY=           -100.2010   ZZ=           -103.0508
   XY=             15.9109   XZ=             -0.8235   YZ=              2.6252

 Normal termination of Gaussian 16 at Fri May  7 05:02:27 2021.
