 Gaussian 16, Revision A.03,
 Gaussian 16:  EM64L-G16RevA.03 25-Dec-2016

 -------------
 #p 6-31g* mp2
 -------------

 ------------------------------------------------------
 Input file generated by CHIRIPA (05-May-2021 14:53:15)
 ------------------------------------------------------
 Symbolic Z-matrix:
 Charge =  0 Multiplicity = 1

                         Standard orientation:
 ---------------------------------------------------------------------
 Center     Atomic      Atomic             Coordinates (Angstroms)
 Number     Number       Type             X           Y           Z
 ---------------------------------------------------------------------
      1          6           0        3.557220   -0.680568   -0.305073
      2          6           0        2.162003   -0.542769    0.305144
      3          6           0        1.186526   -1.604267   -0.204229
      4          1           0        3.480139   -0.614990   -1.399012
      5          1           0        3.951554   -1.680945   -0.078925
      6          1           0        1.770983    0.457541    0.079092
      7          1           0        2.242437   -0.608491    1.397768
      8          1           0        1.550841   -2.608637    0.034762
      9          1           0        1.076709   -1.536548   -1.291407
     10          1           0        0.195321   -1.487145    0.244830
     11          6           0        4.543697    0.373533    0.194388
     12          6           0        5.938914    0.235733   -0.415830
     13          6           0        6.914391    1.297232    0.093544
     14          1           0        4.149363    1.373909   -0.031761
     15          1           0        4.620778    0.307955    1.288327
     16          1           0        5.858480    0.301455   -1.508454
     17          1           0        6.329934   -0.764577   -0.189778
     18          1           0        7.024208    1.229512    1.180721
     19          1           0        6.550076    2.301601   -0.145447
     20          1           0        7.905596    1.180110   -0.355515
     21          6           0       -3.646022    2.590815   -0.126288
     22          6           0       -3.834483    1.763025   -1.237939
     23          6           0       -3.570826    0.392538   -1.155489
     24          6           0       -3.117861   -0.118940    0.059625
     25          6           0       -2.920292    0.679902    1.184841
     26          6           0       -3.190331    2.047569    1.079427
     27          1           0       -3.853315    3.654347   -0.199257
     28          1           0       -4.188280    2.182162   -2.175593
     29          1           0       -3.708078   -0.271169   -2.000518
     30          1           0       -2.566584    0.233069    2.106062
     31          1           0       -3.043064    2.688046    1.944382
     32          7           0       -2.835362   -1.568321    0.159067
     33          8           0       -2.437163   -1.994437    1.240963
     34          8           0       -3.017485   -2.250786   -0.846771
 ---------------------------------------------------------------------

 SCF Done:  E(RHF) =  -669.535907060     A.U. after   15 cycles
 E2 =    -0.2091362687D+01 EUMP2 =    -0.67162726974618D+03

 The electronic state is 1-A.
 Alpha  occ. eigenvalues --  -20.60893 -20.60878 -15.85904 -11.31245 -11.27812
 Alpha  occ. eigenvalues --  -11.27808 -11.27553 -11.26823 -11.26813 -11.21431
 Alpha  occ. eigenvalues --  -11.21174 -11.21162 -11.21028 -11.20960 -11.20302
 Alpha  occ. eigenvalues --   -1.59947  -1.39502  -1.19416  -1.08819  -1.08134
 Alpha  occ. eigenvalues --   -1.04814  -1.03184  -0.95661  -0.95611  -0.86623
 Alpha  occ. eigenvalues --   -0.86215  -0.82492  -0.79258  -0.77948  -0.77544
 Alpha  occ. eigenvalues --   -0.72134  -0.71281  -0.70526  -0.65072  -0.64818
 Alpha  occ. eigenvalues --   -0.64770  -0.62162  -0.60585  -0.58995  -0.57226
 Alpha  occ. eigenvalues --   -0.55320  -0.54902  -0.53145  -0.52907  -0.52280
 Alpha  occ. eigenvalues --   -0.52037  -0.49557  -0.48899  -0.48890  -0.47575
 Alpha  occ. eigenvalues --   -0.46308  -0.45486  -0.45418  -0.44901  -0.43393
 Alpha  occ. eigenvalues --   -0.37396  -0.36415
 Alpha virt. eigenvalues --    0.04971   0.11224   0.16438   0.21363   0.23133
 Alpha virt. eigenvalues --    0.24631   0.26922   0.27272   0.27750   0.28037
 Alpha virt. eigenvalues --    0.28496   0.30728   0.31751   0.32040   0.32114

 Mulliken charges:
               1
     1  C   -0.297792
     2  C   -0.299946
     3  C   -0.478791
     4  H    0.148751
     5  H    0.150623
     6  H    0.146532
     7  H    0.151269
     8  H    0.158747
     9  H    0.152612
    10  H    0.167017
    11  C   -0.297666
    12  C   -0.299393
    13  C   -0.475447
    14  H    0.147204
    15  H    0.149108
    16  H    0.151514
    17  H    0.152535
    18  H    0.154916
    19  H    0.153933
    20  H    0.159848
    21  C   -0.170660
    22  C   -0.218654
    23  C   -0.170631
    24  C    0.157576
    25  C   -0.171465
    26  C   -0.218498
    27  H    0.225812
    28  H    0.223631
    29  H    0.275806
    30  H    0.275940
    31  H    0.223768
    32  N    0.487860
    33  O   -0.458722
    34  O   -0.457339
 Sum of Mulliken charges =  -0.00000

 Dipole moment (field-independent basis, Debye):
    X=             -1.1494    Y=              5.0329    Z=             -0.3498  Tot=              5.1744
 Quadrupole moment (field-independent basis, Debye-Ang):
   XX=            -89.8952   YY=            -96.4318   ZZ=            -89.7666
   XY=            -16.7586   XZ=              2.6107   YZ=              0.3166

 Normal termination of Gaussian 16 at Thu May  6 13:50:03 2021.
