 Gaussian 16, Revision A.03,
 Gaussian 16:  EM64L-G16RevA.03 25-Dec-2016

 -------------
 #p 6-31g* mp2
 -------------

 ------------------------------------------------------
 Input file generated by CHIRIPA (05-May-2021 14:55:25)
 ------------------------------------------------------
 Symbolic Z-matrix:
 Charge =  0 Multiplicity = 1

                         Standard orientation:
 ---------------------------------------------------------------------
 Center     Atomic      Atomic             Coordinates (Angstroms)
 Number     Number       Type             X           Y           Z
 ---------------------------------------------------------------------
      1          6           0        1.654009    2.317662    0.050869
      2          6           0        1.147465    1.109153   -0.438456
      3          6           0        1.975398   -0.010935   -0.558785
      4          6           0        3.310855    0.113487   -0.178835
      5          6           0        3.845134    1.303752    0.312190
      6          6           0        2.998856    2.410940    0.423973
      7          1           0        1.003725    3.182763    0.141023
      8          1           0        0.103450    1.033799   -0.728974
      9          1           0        1.609364   -0.958702   -0.934518
     10          1           0        4.890194    1.348182    0.593784
     11          1           0        3.394982    3.348208    0.804313
     12          7           0        4.197061   -1.065471   -0.301697
     13          8           0        5.369942   -0.929947    0.039801
     14          8           0        3.702009   -2.102739   -0.737169
     15          6           0       -3.532892   -0.521935    0.749509
     16          6           0       -2.221116   -1.100551    0.218066
     17          6           0       -1.194766   -1.351065    1.323346
     18          1           0       -3.324077    0.418345    1.277918
     19          1           0       -3.954932   -1.211570    1.493606
     20          1           0       -1.802379   -0.410688   -0.525820
     21          1           0       -2.433103   -2.039464   -0.309304
     22          1           0       -1.588570   -2.056678    2.062013
     23          1           0       -0.954263   -0.418648    1.844267
     24          1           0       -0.264654   -1.764689    0.921270
     25          6           0       -4.568990   -0.266018   -0.343531
     26          6           0       -5.880766    0.312598    0.187913
     27          6           0       -6.907116    0.563112   -0.917367
     28          1           0       -4.146950    0.423618   -1.087629
     29          1           0       -4.777805   -1.206298   -0.871940
     30          1           0       -5.668779    1.251511    0.715283
     31          1           0       -6.299503   -0.377265    0.931798
     32          1           0       -7.147619   -0.369304   -1.438289
     33          1           0       -6.513311    1.268725   -1.656035
     34          1           0       -7.837228    0.976736   -0.515291
 ---------------------------------------------------------------------

 SCF Done:  E(RHF) =  -669.534979590     A.U. after   15 cycles
 E2 =    -0.2092346261D+01 EUMP2 =    -0.67162732585067D+03

 The electronic state is 1-A.
 Alpha  occ. eigenvalues --  -20.60752 -20.60747 -15.85805 -11.31167 -11.27733
 Alpha  occ. eigenvalues --  -11.27726 -11.27476 -11.26756 -11.26721 -11.22413
 Alpha  occ. eigenvalues --  -11.22090 -11.22043 -11.21943 -11.21627 -11.21485
 Alpha  occ. eigenvalues --   -1.59827  -1.39381  -1.19340  -1.09055  -1.08736
 Alpha  occ. eigenvalues --   -1.04752  -1.04115  -0.96539  -0.95572  -0.87548
 Alpha  occ. eigenvalues --   -0.86145  -0.82405  -0.80195  -0.78863  -0.77454
 Alpha  occ. eigenvalues --   -0.72024  -0.71149  -0.70457  -0.65750  -0.64993
 Alpha  occ. eigenvalues --   -0.64738  -0.62228  -0.61415  -0.59893  -0.58150
 Alpha  occ. eigenvalues --   -0.55830  -0.55239  -0.53322  -0.53035  -0.52944
 Alpha  occ. eigenvalues --   -0.52770  -0.50469  -0.48789  -0.48779  -0.48484
 Alpha  occ. eigenvalues --   -0.47242  -0.46389  -0.46325  -0.44788  -0.44368
 Alpha  occ. eigenvalues --   -0.37323  -0.36307
 Alpha virt. eigenvalues --    0.05062   0.11235   0.16493   0.19546   0.22657
 Alpha virt. eigenvalues --    0.23859   0.25387   0.26272   0.26719   0.28159
 Alpha virt. eigenvalues --    0.28994   0.29418   0.31108   0.31402   0.32252

 Mulliken charges:
               1
     1  C   -0.172913
     2  C   -0.219563
     3  C   -0.172143
     4  C    0.158128
     5  C   -0.171141
     6  C   -0.218267
     7  H    0.225525
     8  H    0.229928
     9  H    0.275563
    10  H    0.275517
    11  H    0.223273
    12  N    0.488197
    13  O   -0.460439
    14  O   -0.460673
    15  C   -0.298067
    16  C   -0.304730
    17  C   -0.478137
    18  H    0.147753
    19  H    0.153642
    20  H    0.140570
    21  H    0.157702
    22  H    0.159983
    23  H    0.155361
    24  H    0.162849
    25  C   -0.298231
    26  C   -0.299970
    27  C   -0.475968
    28  H    0.146326
    29  H    0.152145
    30  H    0.151184
    31  H    0.153742
    32  H    0.156567
    33  H    0.154628
    34  H    0.161658
 Sum of Mulliken charges =  -0.00000

 Dipole moment (field-independent basis, Debye):
    X=             -3.2484    Y=              4.0799    Z=              0.5072  Tot=              5.2397
 Quadrupole moment (field-independent basis, Debye-Ang):
   XX=           -112.7941   YY=            -91.8122   ZZ=            -95.4623
   XY=             16.6552   XZ=              2.8496   YZ=              0.3864

 Normal termination of Gaussian 16 at Thu May  6 03:14:33 2021.
