 Gaussian 16, Revision A.03,
 Gaussian 16:  EM64L-G16RevA.03 25-Dec-2016

 -------------
 #p 6-31g* mp2
 -------------

 ------------------------------------------------------
 Input file generated by CHIRIPA (05-May-2021 14:53:13)
 ------------------------------------------------------
 Symbolic Z-matrix:
 Charge =  0 Multiplicity = 1

                         Standard orientation:
 ---------------------------------------------------------------------
 Center     Atomic      Atomic             Coordinates (Angstroms)
 Number     Number       Type             X           Y           Z
 ---------------------------------------------------------------------
      1          6           0        3.718330   -0.272012    0.021285
      2          6           0        2.788969    0.128066    1.167676
      3          6           0        1.352842   -0.353845    0.960086
      4          1           0        3.325595    0.136024   -0.920103
      5          1           0        3.709225   -1.365714   -0.084201
      6          1           0        2.800892    1.220594    1.271866
      7          1           0        3.184065   -0.280809    2.106471
      8          1           0        1.320746   -1.445097    0.877997
      9          1           0        0.935396    0.064837    0.038649
     10          1           0        0.705652   -0.056971    1.791273
     11          6           0        5.157500    0.202593    0.214337
     12          6           0        6.086860   -0.197485   -0.932054
     13          6           0        7.522988    0.284426   -0.724464
     14          1           0        5.166604    1.296295    0.319823
     15          1           0        5.550234   -0.205443    1.155724
     16          1           0        5.691764    0.211390   -1.870850
     17          1           0        6.074937   -1.290013   -1.036244
     18          1           0        7.940434   -0.134256    0.196973
     19          1           0        7.555083    1.375678   -0.642375
     20          1           0        8.170177   -0.012448   -1.555651
     21          6           0       -3.520335    2.549612   -0.081562
     22          6           0       -4.608946    1.828568   -0.583102
     23          6           0       -4.590395    0.430681   -0.593849
     24          6           0       -3.461976   -0.216749   -0.093052
     25          6           0       -2.361778    0.473512    0.413300
     26          6           0       -2.402196    1.870979    0.414164
     27          1           0       -3.543240    3.635361   -0.077052
     28          1           0       -5.478639    2.352948   -0.968727
     29          1           0       -5.419407   -0.152351   -0.976251
     30          1           0       -1.508848   -0.077194    0.790993
     31          1           0       -1.555325    2.428350    0.804282
     32          7           0       -3.430761   -1.696407   -0.099199
     33          8           0       -2.424785   -2.243172    0.347673
     34          8           0       -4.412864   -2.281380   -0.550772
 ---------------------------------------------------------------------

 SCF Done:  E(RHF) =  -669.535330192     A.U. after   15 cycles
 E2 =    -0.2091445908D+01 EUMP2 =    -0.67162677609936D+03

 The electronic state is 1-A.
 Alpha  occ. eigenvalues --  -20.60685 -20.60679 -15.85735 -11.31071 -11.27673
 Alpha  occ. eigenvalues --  -11.27566 -11.27423 -11.26688 -11.26661 -11.21929
 Alpha  occ. eigenvalues --  -11.21698 -11.21579 -11.21515 -11.21509 -11.21155
 Alpha  occ. eigenvalues --   -1.59759  -1.39312  -1.19260  -1.08665  -1.08625
 Alpha  occ. eigenvalues --   -1.04665  -1.03759  -0.96230  -0.95495  -0.87265
 Alpha  occ. eigenvalues --   -0.86055  -0.82331  -0.79840  -0.78420  -0.77365
 Alpha  occ. eigenvalues --   -0.71956  -0.71082  -0.70380  -0.65255  -0.64914
 Alpha  occ. eigenvalues --   -0.64675  -0.62069  -0.61130  -0.59590  -0.57818
 Alpha  occ. eigenvalues --   -0.55510  -0.55168  -0.53134  -0.53002  -0.52653
 Alpha  occ. eigenvalues --   -0.52509  -0.50134  -0.48714  -0.48707  -0.48132
 Alpha  occ. eigenvalues --   -0.46833  -0.45964  -0.45876  -0.44722  -0.44012
 Alpha  occ. eigenvalues --   -0.37256  -0.36262
 Alpha virt. eigenvalues --    0.05135   0.11367   0.16618   0.20931   0.22736
 Alpha virt. eigenvalues --    0.24000   0.26183   0.26504   0.27330   0.27995
 Alpha virt. eigenvalues --    0.29200   0.30630   0.31185   0.31572   0.31717

 Mulliken charges:
               1
     1  C   -0.299206
     2  C   -0.299182
     3  C   -0.484914
     4  H    0.149643
     5  H    0.153353
     6  H    0.148284
     7  H    0.154870
     8  H    0.171453
     9  H    0.153193
    10  H    0.152174
    11  C   -0.298531
    12  C   -0.299895
    13  C   -0.475812
    14  H    0.148254
    15  H    0.150487
    16  H    0.151916
    17  H    0.153512
    18  H    0.155601
    19  H    0.154543
    20  H    0.160922
    21  C   -0.170474
    22  C   -0.219303
    23  C   -0.170024
    24  C    0.157615
    25  C   -0.181741
    26  C   -0.224013
    27  H    0.225071
    28  H    0.222995
    29  H    0.275241
    30  H    0.295069
    31  H    0.223344
    32  N    0.486850
    33  O   -0.460339
    34  O   -0.460955
 Sum of Mulliken charges =  -0.00000

 Dipole moment (field-independent basis, Debye):
    X=              0.0513    Y=              5.0958    Z=              0.0145  Tot=              5.0961
 Quadrupole moment (field-independent basis, Debye-Ang):
   XX=            -90.9375   YY=            -96.9348   ZZ=            -94.4968
   XY=            -18.8795   XZ=              2.2282   YZ=             -0.9826

 Normal termination of Gaussian 16 at Thu May  6 20:19:28 2021.
