 Gaussian 16, Revision A.03,
 Gaussian 16:  EM64L-G16RevA.03 25-Dec-2016

 -------------
 #p 6-31g* mp2
 -------------

 ------------------------------------------------------
 Input file generated by CHIRIPA (05-May-2021 14:55:23)
 ------------------------------------------------------
 Symbolic Z-matrix:
 Charge =  0 Multiplicity = 1

                         Standard orientation:
 ---------------------------------------------------------------------
 Center     Atomic      Atomic             Coordinates (Angstroms)
 Number     Number       Type             X           Y           Z
 ---------------------------------------------------------------------
      1          6           0       -2.311535    1.904317    0.152768
      2          6           0       -3.490935    2.105441   -0.571859
      3          6           0       -4.435763    1.081634   -0.688766
      4          6           0       -4.167669   -0.136128   -0.065493
      5          6           0       -3.002029   -0.367221    0.663322
      6          6           0       -2.071270    0.670802    0.766963
      7          1           0       -1.583034    2.705157    0.238432
      8          1           0       -3.680184    3.062367   -1.049899
      9          1           0       -5.357133    1.210243   -1.243703
     10          1           0       -2.841359   -1.332066    1.128809
     11          1           0       -1.156203    0.511766    1.330352
     12          7           0       -5.160469   -1.227512   -0.182235
     13          8           0       -4.900654   -2.291132    0.376197
     14          8           0       -6.179642   -0.998654   -0.829959
     15          6           0        4.554257    0.447939    0.118684
     16          6           0        3.277116   -0.149685    0.710074
     17          6           0        2.144042    0.870730    0.822732
     18          1           0        4.879557    1.291840    0.742347
     19          1           0        4.331537    0.861114   -0.874833
     20          1           0        3.502489   -0.562843    1.701599
     21          1           0        2.954926   -0.992382    0.085038
     22          1           0        1.890655    1.275378   -0.162486
     23          1           0        2.441329    1.707358    1.463261
     24          1           0        1.240709    0.422280    1.247869
     25          6           0        5.696093   -0.559925   -0.000278
     26          6           0        6.973234    0.037697   -0.591668
     27          6           0        8.106309   -0.982717   -0.704327
     28          1           0        5.918813   -0.973101    0.993238
     29          1           0        5.370795   -1.403827   -0.623941
     30          1           0        7.295424    0.880395    0.033368
     31          1           0        6.747862    0.450856   -1.583194
     32          1           0        7.809021   -1.819345   -1.344854
     33          1           0        8.359696   -1.387364    0.280892
     34          1           0        9.009642   -0.534266   -1.129463
 ---------------------------------------------------------------------

 SCF Done:  E(RHF) =  -669.535510232     A.U. after   15 cycles
 E2 =    -0.2090710768D+01 EUMP2 =    -0.67162622099966D+03

 The electronic state is 1-A.
 Alpha  occ. eigenvalues --  -20.60725 -20.60719 -15.85777 -11.31133 -11.27703
 Alpha  occ. eigenvalues --  -11.27693 -11.27429 -11.26715 -11.26679 -11.22364
 Alpha  occ. eigenvalues --  -11.22168 -11.21991 -11.21981 -11.21829 -11.21378
 Alpha  occ. eigenvalues --   -1.59800  -1.39354  -1.19303  -1.08997  -1.08697
 Alpha  occ. eigenvalues --   -1.04706  -1.04140  -0.96615  -0.95534  -0.87644
 Alpha  occ. eigenvalues --   -0.86101  -0.82369  -0.80211  -0.78773  -0.77421
 Alpha  occ. eigenvalues --   -0.71996  -0.71123  -0.70404  -0.65619  -0.64953
 Alpha  occ. eigenvalues --   -0.64741  -0.62094  -0.61524  -0.60001  -0.58205
 Alpha  occ. eigenvalues --   -0.55887  -0.55201  -0.53450  -0.53067  -0.53029
 Alpha  occ. eigenvalues --   -0.52653  -0.50538  -0.48757  -0.48752  -0.48518
 Alpha  occ. eigenvalues --   -0.47216  -0.46327  -0.46222  -0.44762  -0.44389
 Alpha  occ. eigenvalues --   -0.37278  -0.36308
 Alpha virt. eigenvalues --    0.05115   0.11317   0.16602   0.20182   0.22456
 Alpha virt. eigenvalues --    0.23775   0.25728   0.26114   0.26853   0.27827
 Alpha virt. eigenvalues --    0.28672   0.29630   0.30862   0.31555   0.32122

 Mulliken charges:
               1
     1  C   -0.173070
     2  C   -0.218657
     3  C   -0.171216
     4  C    0.158786
     5  C   -0.172654
     6  C   -0.222452
     7  H    0.226667
     8  H    0.223152
     9  H    0.275355
    10  H    0.275583
    11  H    0.230882
    12  N    0.488044
    13  O   -0.460575
    14  O   -0.460660
    15  C   -0.299351
    16  C   -0.298925
    17  C   -0.480862
    18  H    0.150098
    19  H    0.150216
    20  H    0.154079
    21  H    0.154979
    22  H    0.156548
    23  H    0.157102
    24  H    0.152867
    25  C   -0.298888
    26  C   -0.300044
    27  C   -0.476044
    28  H    0.150469
    29  H    0.151079
    30  H    0.152121
    31  H    0.152320
    32  H    0.156034
    33  H    0.155745
    34  H    0.161271
 Sum of Mulliken charges =  -0.00000

 Dipole moment (field-independent basis, Debye):
    X=              3.7197    Y=              3.8411    Z=              0.3808  Tot=              5.3605
 Quadrupole moment (field-independent basis, Debye-Ang):
   XX=           -122.7109   YY=            -94.7922   ZZ=            -93.0733
   XY=            -18.0785   XZ=              0.3474   YZ=             -2.0986

 Normal termination of Gaussian 16 at Wed May  5 22:21:52 2021.
