 Gaussian 16, Revision A.03,
 Gaussian 16:  EM64L-G16RevA.03 25-Dec-2016

 -------------
 #p 6-31g* mp2
 -------------

 ------------------------------------------------------
 Input file generated by CHIRIPA (05-May-2021 14:51:14)
 ------------------------------------------------------
 Symbolic Z-matrix:
 Charge =  0 Multiplicity = 1

                         Standard orientation:
 ---------------------------------------------------------------------
 Center     Atomic      Atomic             Coordinates (Angstroms)
 Number     Number       Type             X           Y           Z
 ---------------------------------------------------------------------
      1          6           0       -3.939345   -0.018879    0.357057
      2          6           0       -4.651738    0.388255   -0.933184
      3          6           0       -6.169889    0.468529   -0.770189
      4          1           0       -4.325714   -0.991782    0.690409
      5          1           0       -4.186501    0.703114    1.147648
      6          1           0       -4.402208   -0.333517   -1.721471
      7          1           0       -4.263491    1.360212   -1.263607
      8          1           0       -6.436693    1.202625   -0.003039
      9          1           0       -6.576198   -0.500727   -0.463503
     10          1           0       -6.659058    0.761163   -1.704501
     11          6           0       -2.421137   -0.103478    0.210039
     12          6           0       -1.708743   -0.510612    1.500281
     13          6           0       -0.190592   -0.590886    1.337285
     14          1           0       -2.173981   -0.825471   -0.580552
     15          1           0       -2.034767    0.869425   -0.123313
     16          1           0       -2.096991   -1.482569    1.830704
     17          1           0       -1.958274    0.211160    2.288567
     18          1           0        0.215716    0.378370    1.030600
     19          1           0        0.076212   -1.324982    0.570135
     20          1           0        0.298576   -0.883520    2.271597
     21          6           0        3.100183    0.764285   -0.571063
     22          6           0        3.538584    1.867164    0.393016
     23          6           0        3.372435    3.268114   -0.196499
     24          1           0        3.682526    0.844534   -1.499168
     25          1           0        2.048727    0.924680   -0.846942
     26          1           0        4.588497    1.703949    0.668078
     27          1           0        2.955262    1.784161    1.319008
     28          1           0        2.325142    3.455792   -0.454483
     29          1           0        3.967656    3.375124   -1.109112
     30          1           0        3.691736    4.041175    0.509392
     31          6           0        3.260299   -0.641928    0.003966
     32          6           0        2.821898   -1.744807   -0.960113
     33          6           0        2.988047   -3.145757   -0.370596
     34          1           0        4.311755   -0.802323    0.279846
     35          1           0        2.677955   -0.722178    0.932071
     36          1           0        3.405219   -1.661804   -1.886106
     37          1           0        1.771985   -1.581592   -1.235175
     38          1           0        2.392825   -3.252767    0.542015
     39          1           0        4.035339   -3.333435   -0.112614
     40          1           0        2.668744   -3.918818   -1.076488
 ---------------------------------------------------------------------

 SCF Done:  E(RHF) =  -470.732371071     A.U. after   11 cycles
 E2 =    -0.1584357664D+01 EUMP2 =    -0.47231672873457D+03

 The electronic state is 1-A.
 Alpha  occ. eigenvalues --  -11.21675 -11.21640 -11.21549 -11.21504 -11.21473
 Alpha  occ. eigenvalues --  -11.21408 -11.21285 -11.21181 -11.21180 -11.21100
 Alpha  occ. eigenvalues --  -11.21048 -11.21016  -1.08506  -1.08331  -1.03611
 Alpha  occ. eigenvalues --   -1.03460  -0.96078  -0.95896  -0.87108  -0.86912
 Alpha  occ. eigenvalues --   -0.79687  -0.79525  -0.78311  -0.78146  -0.65129
 Alpha  occ. eigenvalues --   -0.65000  -0.61181  -0.60731  -0.59440  -0.59271
 Alpha  occ. eigenvalues --   -0.57653  -0.57520  -0.55473  -0.55089  -0.52778
 Alpha  occ. eigenvalues --   -0.52618  -0.52461  -0.52322  -0.50076  -0.49772
 Alpha  occ. eigenvalues --   -0.48006  -0.47826  -0.46732  -0.46505  -0.45942
 Alpha  occ. eigenvalues --   -0.45765  -0.45625  -0.45547  -0.43809  -0.43699
 Alpha virt. eigenvalues --    0.20539   0.22997   0.23327   0.24670   0.26073
 Alpha virt. eigenvalues --    0.26577   0.26845   0.27855   0.27977   0.29722
 Alpha virt. eigenvalues --    0.30266   0.30941   0.31786   0.31902   0.32381

 Mulliken charges:
               1
     1  C   -0.298329
     2  C   -0.299705
     3  C   -0.475757
     4  H    0.149875
     5  H    0.149713
     6  H    0.152047
     7  H    0.152007
     8  H    0.155250
     9  H    0.155258
    10  H    0.160426
    11  C   -0.298526
    12  C   -0.300785
    13  C   -0.483498
    14  H    0.149392
    15  H    0.149299
    16  H    0.152296
    17  H    0.152145
    18  H    0.158782
    19  H    0.161367
    20  H    0.159983
    21  C   -0.299843
    22  C   -0.301026
    23  C   -0.475384
    24  H    0.149392
    25  H    0.150469
    26  H    0.151991
    27  H    0.152374
    28  H    0.154294
    29  H    0.155273
    30  H    0.160033
    31  C   -0.302919
    32  C   -0.301717
    33  C   -0.477134
    34  H    0.148712
    35  H    0.159122
    36  H    0.151939
    37  H    0.152455
    38  H    0.155894
    39  H    0.155287
    40  H    0.159547
 Sum of Mulliken charges =  -0.00000

 Dipole moment (field-independent basis, Debye):
    X=             -0.0450    Y=             -0.0077    Z=              0.0285  Tot=              0.0539
 Quadrupole moment (field-independent basis, Debye-Ang):
   XX=            -85.2175   YY=            -85.0754   ZZ=            -84.6864
   XY=              0.2252   XZ=             -0.3229   YZ=              0.5618

 Normal termination of Gaussian 16 at Thu May  6 00:50:33 2021.
