 Gaussian 16, Revision A.03,
 Gaussian 16:  EM64L-G16RevA.03 25-Dec-2016

 -------------
 #p 6-31g* mp2
 -------------

 ------------------------------------------------------
 Input file generated by CHIRIPA (05-May-2021 14:57:24)
 ------------------------------------------------------
 Symbolic Z-matrix:
 Charge =  0 Multiplicity = 1

                         Standard orientation:
 ---------------------------------------------------------------------
 Center     Atomic      Atomic             Coordinates (Angstroms)
 Number     Number       Type             X           Y           Z
 ---------------------------------------------------------------------
      1          6           0       -1.318148   -2.548181   -0.152672
      2          6           0       -2.169063   -2.187971    0.897430
      3          6           0       -2.772111   -0.926908    0.921943
      4          6           0       -2.500914   -0.046868   -0.124609
      5          6           0       -1.657784   -0.376354   -1.184732
      6          6           0       -1.065669   -1.642819   -1.188575
      7          1           0       -0.853932   -3.529903   -0.163686
      8          1           0       -2.366958   -2.889053    1.703262
      9          1           0       -3.434970   -0.622104    1.722649
     10          1           0       -1.479658    0.343955   -1.973937
     11          1           0       -0.405268   -1.919843   -2.005381
     12          7           0       -3.133547    1.291022   -0.109599
     13          8           0       -2.878458    2.048241   -1.043508
     14          8           0       -3.872515    1.557108    0.835791
     15          6           0        2.286466    2.783427    0.279518
     16          6           0        2.465172    2.164520   -0.962070
     17          6           0        2.527690    0.771195   -1.058416
     18          6           0        2.407301    0.024126    0.112346
     19          6           0        2.228482    0.611334    1.363945
     20          6           0        2.168899    2.006228    1.436523
     21          1           0        2.239041    3.866405    0.345130
     22          1           0        2.556777    2.765581   -1.862281
     23          1           0        2.665358    0.266096   -2.006752
     24          1           0        2.140336   -0.014412    2.243769
     25          1           0        2.030042    2.484157    2.402105
     26          7           0        2.471932   -1.451756    0.022930
     27          8           0        2.363192   -2.087485    1.069191
     28          8           0        2.630107   -1.944878   -1.091722
 ---------------------------------------------------------------------

 SCF Done:  E(RHF) =  -868.340717544     A.U. after   16 cycles
 E2 =    -0.2600719924D+01 EUMP2 =    -0.87094143746731D+03

 The electronic state is 1-A.
 Alpha  occ. eigenvalues --  -20.61449 -20.61402 -20.60682 -20.60673 -15.86439
 Alpha  occ. eigenvalues --  -15.85727 -11.31488 -11.30868 -11.28044 -11.27995
 Alpha  occ. eigenvalues --  -11.27649 -11.27429 -11.27426 -11.26966 -11.26955
 Alpha  occ. eigenvalues --  -11.26926 -11.26323 -11.26231  -1.60487  -1.59762
 Alpha  occ. eigenvalues --   -1.40054  -1.39322  -1.19620  -1.19008  -1.09062
 Alpha  occ. eigenvalues --   -1.08404  -1.04984  -1.04380  -0.95959  -0.95284
 Alpha  occ. eigenvalues --   -0.86389  -0.85756  -0.82814  -0.82132  -0.77908
 Alpha  occ. eigenvalues --   -0.77239  -0.72684  -0.71956  -0.71791  -0.71084
 Alpha  occ. eigenvalues --   -0.70714  -0.70021  -0.65277  -0.64977  -0.64634
 Alpha  occ. eigenvalues --   -0.64319  -0.62346  -0.61724  -0.55462  -0.54757
 Alpha  occ. eigenvalues --   -0.53355  -0.53070  -0.52679  -0.52430  -0.49456
 Alpha  occ. eigenvalues --   -0.49412  -0.48718  -0.48682  -0.45528  -0.44780
 Alpha  occ. eigenvalues --   -0.37577  -0.36910  -0.36598  -0.35943
 Alpha virt. eigenvalues --    0.04586   0.05286   0.11075   0.11654   0.16165
 Alpha virt. eigenvalues --    0.16864   0.21202   0.22072   0.27017   0.27652
 Alpha virt. eigenvalues --    0.28407   0.28914   0.30800   0.31574   0.32414

 Mulliken charges:
               1
     1  C   -0.167081
     2  C   -0.218829
     3  C   -0.173211
     4  C    0.157141
     5  C   -0.171648
     6  C   -0.229628
     7  H    0.236929
     8  H    0.224050
     9  H    0.273118
    10  H    0.271134
    11  H    0.234529
    12  N    0.488237
    13  O   -0.464114
    14  O   -0.462458
    15  C   -0.167645
    16  C   -0.217288
    17  C   -0.175061
    18  C    0.160844
    19  C   -0.170087
    20  C   -0.218040
    21  H    0.229914
    22  H    0.225617
    23  H    0.271778
    24  H    0.274744
    25  H    0.226108
    26  N    0.490027
    27  O   -0.460686
    28  O   -0.468393
 Sum of Mulliken charges =  -0.00000

 Dipole moment (field-independent basis, Debye):
    X=              2.1580    Y=              0.4552    Z=              0.3570  Tot=              2.2342
 Quadrupole moment (field-independent basis, Debye-Ang):
   XX=           -118.0949   YY=           -104.0733   ZZ=            -96.3182
   XY=             25.7426   XZ=             -2.2182   YZ=             -0.2137

 Normal termination of Gaussian 16 at Fri May  7 06:29:13 2021.
