 Gaussian 16, Revision A.03,
 Gaussian 16:  EM64L-G16RevA.03 25-Dec-2016

 -------------
 #p 6-31g* mp2
 -------------

 ------------------------------------------------------
 Input file generated by CHIRIPA (05-May-2021 14:57:24)
 ------------------------------------------------------
 Symbolic Z-matrix:
 Charge =  0 Multiplicity = 1

                         Standard orientation:
 ---------------------------------------------------------------------
 Center     Atomic      Atomic             Coordinates (Angstroms)
 Number     Number       Type             X           Y           Z
 ---------------------------------------------------------------------
      1          6           0        2.048804    0.484993    0.511333
      2          6           0        2.873508    1.422021   -0.119827
      3          6           0        4.218360    1.131326   -0.367651
      4          6           0        4.707629   -0.111705    0.030821
      5          6           0        3.911206   -1.066199    0.661648
      6          6           0        2.569367   -0.753942    0.899372
      7          1           0        1.005261    0.719187    0.699925
      8          1           0        2.471949    2.384994   -0.422281
      9          1           0        4.879098    1.838291   -0.854521
     10          1           0        4.340134   -2.017709    0.951591
     11          1           0        1.931227   -1.483584    1.389723
     12          7           0        6.129768   -0.430864   -0.226192
     13          8           0        6.536640   -1.533093    0.134620
     14          8           0        6.810642    0.427251   -0.783585
     15          6           0       -2.823279    1.960872    0.090593
     16          6           0       -2.377393    0.672133   -0.220630
     17          6           0       -3.282658   -0.389150   -0.314008
     18          6           0       -4.632755   -0.124752   -0.089013
     19          6           0       -5.107869    1.148162    0.222831
     20          6           0       -4.184695    2.194361    0.310942
     21          1           0       -2.113092    2.779444    0.161085
     22          1           0       -1.320684    0.487865   -0.392260
     23          1           0       -2.964702   -1.396631   -0.553388
     24          1           0       -6.167403    1.300892    0.388604
     25          1           0       -4.533830    3.194187    0.552804
     26          7           0       -5.600599   -1.240301   -0.185080
     27          8           0       -6.784841   -0.981229    0.017629
     28          8           0       -5.156627   -2.352617   -0.461268
 ---------------------------------------------------------------------

 SCF Done:  E(RHF) =  -868.336547705     A.U. after   16 cycles
 E2 =    -0.2599578920D+01 EUMP2 =    -0.87093612662462D+03

 The electronic state is 1-A.
 Alpha  occ. eigenvalues --  -20.61358 -20.61350 -20.61245 -20.61239 -15.86418
 Alpha  occ. eigenvalues --  -15.86302 -11.31928 -11.31823 -11.28567 -11.28496
 Alpha  occ. eigenvalues --  -11.28397 -11.28370 -11.28362 -11.28295 -11.27689
 Alpha  occ. eigenvalues --  -11.27533 -11.27523 -11.27470  -1.60430  -1.60316
 Alpha  occ. eigenvalues --   -1.39979  -1.39865  -1.20135  -1.20016  -1.09515
 Alpha  occ. eigenvalues --   -1.09412  -1.05566  -1.05431  -0.96316  -0.96217
 Alpha  occ. eigenvalues --   -0.86971  -0.86839  -0.83153  -0.83030  -0.78163
 Alpha  occ. eigenvalues --   -0.78029  -0.72634  -0.72519  -0.71755  -0.71639
 Alpha  occ. eigenvalues --   -0.71282  -0.71196  -0.65797  -0.65679  -0.65625
 Alpha  occ. eigenvalues --   -0.65425  -0.62916  -0.62765  -0.56166  -0.55980
 Alpha  occ. eigenvalues --   -0.53876  -0.53777  -0.53636  -0.53533  -0.49405
 Alpha  occ. eigenvalues --   -0.49378  -0.49290  -0.49263  -0.45352  -0.45235
 Alpha  occ. eigenvalues --   -0.38137  -0.38050  -0.37165  -0.37019
 Alpha virt. eigenvalues --    0.04393   0.04465   0.10414   0.10622   0.15768
 Alpha virt. eigenvalues --    0.15840   0.18280   0.21872   0.24972   0.26540
 Alpha virt. eigenvalues --    0.27409   0.28972   0.29788   0.31099   0.31989

 Mulliken charges:
               1
     1  C   -0.176459
     2  C   -0.217883
     3  C   -0.170130
     4  C    0.159739
     5  C   -0.170011
     6  C   -0.218548
     7  H    0.220015
     8  H    0.221234
     9  H    0.277414
    10  H    0.278356
    11  H    0.225657
    12  N    0.487877
    13  O   -0.458164
    14  O   -0.458925
    15  C   -0.170785
    16  C   -0.224003
    17  C   -0.170216
    18  C    0.159284
    19  C   -0.169582
    20  C   -0.218103
    21  H    0.222494
    22  H    0.218914
    23  H    0.277018
    24  H    0.278255
    25  H    0.225928
    26  N    0.487954
    27  O   -0.458150
    28  O   -0.459178
 Sum of Mulliken charges =  -0.00000

 Dipole moment (field-independent basis, Debye):
    X=             -1.6184    Y=              4.9854    Z=              1.2496  Tot=              5.3884
 Quadrupole moment (field-independent basis, Debye-Ang):
   XX=           -179.3299   YY=           -100.3407   ZZ=           -105.2543
   XY=            -15.1621   XZ=              0.9792   YZ=             -1.9076

 Normal termination of Gaussian 16 at Thu May  6 03:28:21 2021.
