 Gaussian 16, Revision A.03,
 Gaussian 16:  EM64L-G16RevA.03 25-Dec-2016

 -------------
 #p 6-31g* mp2
 -------------

 ------------------------------------------------------
 Input file generated by CHIRIPA (05-May-2021 14:57:21)
 ------------------------------------------------------
 Symbolic Z-matrix:
 Charge =  0 Multiplicity = 1

                         Standard orientation:
 ---------------------------------------------------------------------
 Center     Atomic      Atomic             Coordinates (Angstroms)
 Number     Number       Type             X           Y           Z
 ---------------------------------------------------------------------
      1          6           0        1.575943    0.207627    1.760632
      2          6           0        2.864785    0.661010    2.060386
      3          6           0        3.912697    0.471459    1.154572
      4          6           0        3.634968   -0.178349   -0.047055
      5          6           0        2.361585   -0.641516   -0.374563
      6          6           0        1.328892   -0.441045    0.546255
      7          1           0        0.767812    0.359116    2.470118
      8          1           0        3.059570    1.165102    3.002721
      9          1           0        4.919935    0.812349    1.361170
     10          1           0        2.198196   -1.140590   -1.322006
     11          1           0        0.328953   -0.794207    0.310793
     12          7           0        4.736289   -0.384798   -1.013942
     13          8           0        4.465621   -0.960175   -2.065757
     14          8           0        5.849319    0.032675   -0.701664
     15          6           0       -4.421659   -2.154140    0.269245
     16          6           0       -3.317013   -1.727470    1.013713
     17          6           0       -2.772263   -0.456018    0.810731
     18          6           0       -3.359855    0.366530   -0.149186
     19          6           0       -4.460888   -0.029808   -0.906769
     20          6           0       -4.989070   -1.305442   -0.686935
     21          1           0       -4.838399   -3.143459    0.433471
     22          1           0       -2.874295   -2.384450    1.756965
     23          1           0       -1.917480   -0.100325    1.373088
     24          1           0       -4.880513    0.647546   -1.640612
     25          1           0       -5.846993   -1.634140   -1.266565
     26          7           0       -2.791922    1.714775   -0.372995
     27          8           0       -3.327911    2.420491   -1.224650
     28          8           0       -1.821541    2.040283    0.307478
 ---------------------------------------------------------------------

 SCF Done:  E(RHF) =  -868.337157139     A.U. after   16 cycles
 E2 =    -0.2600578997D+01 EUMP2 =    -0.87093773613612D+03

 The electronic state is 1-A.
 Alpha  occ. eigenvalues --  -20.61589 -20.61564 -20.60514 -20.60508 -15.86631
 Alpha  occ. eigenvalues --  -15.85567 -11.32108 -11.30896 -11.28768 -11.28575
 Alpha  occ. eigenvalues --  -11.28325 -11.27724 -11.27606 -11.27479 -11.27463
 Alpha  occ. eigenvalues --  -11.27254 -11.26515 -11.26475  -1.60646  -1.59589
 Alpha  occ. eigenvalues --   -1.40201  -1.39144  -1.20258  -1.19072  -1.09610
 Alpha  occ. eigenvalues --   -1.08482  -1.05681  -1.04480  -0.96444  -0.95323
 Alpha  occ. eigenvalues --   -0.87065  -0.85893  -0.83275  -0.82160  -0.78340
 Alpha  occ. eigenvalues --   -0.77206  -0.72843  -0.71973  -0.71791  -0.71352
 Alpha  occ. eigenvalues --   -0.70909  -0.70214  -0.65899  -0.65688  -0.64741
 Alpha  occ. eigenvalues --   -0.64530  -0.63022  -0.61823  -0.56115  -0.55024
 Alpha  occ. eigenvalues --   -0.53988  -0.53764  -0.52784  -0.52573  -0.49617
 Alpha  occ. eigenvalues --   -0.49590  -0.48545  -0.48543  -0.45578  -0.44558
 Alpha  occ. eigenvalues --   -0.38195  -0.37281  -0.37029  -0.36062
 Alpha virt. eigenvalues --    0.04173   0.05344   0.10266   0.11583   0.15701
 Alpha virt. eigenvalues --    0.16843   0.19026   0.21941   0.25200   0.26970
 Alpha virt. eigenvalues --    0.27630   0.29030   0.30379   0.30869   0.32073

 Mulliken charges:
               1
     1  C   -0.166010
     2  C   -0.218216
     3  C   -0.170660
     4  C    0.158712
     5  C   -0.171421
     6  C   -0.214344
     7  H    0.221930
     8  H    0.223408
     9  H    0.275144
    10  H    0.274692
    11  H    0.217717
    12  N    0.488188
    13  O   -0.461241
    14  O   -0.460845
    15  C   -0.170304
    16  C   -0.219602
    17  C   -0.178899
    18  C    0.159692
    19  C   -0.169845
    20  C   -0.217108
    21  H    0.229137
    22  H    0.224649
    23  H    0.269609
    24  H    0.278871
    25  H    0.227436
    26  N    0.488026
    27  O   -0.455132
    28  O   -0.463585
 Sum of Mulliken charges =  -0.00000

 Dipole moment (field-independent basis, Debye):
    X=             -6.1851    Y=             -3.9648    Z=              4.0823  Tot=              8.4047
 Quadrupole moment (field-independent basis, Debye-Ang):
   XX=           -114.5525   YY=           -108.4193   ZZ=           -101.7997
   XY=             20.1703   XZ=             15.8243   YZ=              1.2978

 Normal termination of Gaussian 16 at Thu May  6 17:47:42 2021.
