 Gaussian 16, Revision A.03,
 Gaussian 16:  EM64L-G16RevA.03 25-Dec-2016

 -------------
 #p 6-31g* mp2
 -------------

 ------------------------------------------------------
 Input file generated by CHIRIPA (05-May-2021 14:55:23)
 ------------------------------------------------------
 Symbolic Z-matrix:
 Charge =  0 Multiplicity = 1

                         Standard orientation:
 ---------------------------------------------------------------------
 Center     Atomic      Atomic             Coordinates (Angstroms)
 Number     Number       Type             X           Y           Z
 ---------------------------------------------------------------------
      1          6           0        0.502490    0.978835    1.553464
      2          6           0        1.366111    1.802889    0.824344
      3          6           0        2.436590    1.255170    0.111164
      4          6           0        2.614786   -0.126889    0.149231
      5          6           0        1.771568   -0.974269    0.866323
      6          6           0        0.707613   -0.404675    1.572094
      7          1           0       -0.326549    1.412812    2.104601
      8          1           0        1.209230    2.877676    0.808072
      9          1           0        3.120378    1.869871   -0.461544
     10          1           0        1.953462   -2.042129    0.863534
     11          1           0        0.038508   -1.047083    2.137473
     12          7           0        3.744600   -0.718314   -0.601859
     13          8           0        3.880055   -1.938900   -0.552273
     14          8           0        4.473301    0.049913   -1.225927
     15          6           0       -3.580781   -0.512536   -0.109148
     16          6           0       -3.092511   -1.921375   -0.447898
     17          6           0       -4.047830   -3.011214    0.039351
     18          1           0       -3.711392   -0.428227    0.978407
     19          1           0       -4.572755   -0.358479   -0.555969
     20          1           0       -2.101152   -2.072241   -0.001734
     21          1           0       -2.962864   -2.002280   -1.534756
     22          1           0       -5.036080   -2.888812   -0.415600
     23          1           0       -4.169472   -2.959169    1.126133
     24          1           0       -3.679417   -4.010355   -0.213330
     25          6           0       -2.636380    0.587840   -0.589781
     26          6           0       -3.124650    1.996678   -0.251032
     27          6           0       -2.169332    3.086518   -0.738280
     28          1           0       -1.644406    0.433782   -0.142960
     29          1           0       -2.505769    0.503531   -1.677337
     30          1           0       -3.254298    2.077584    0.835827
     31          1           0       -4.116009    2.147544   -0.697195
     32          1           0       -2.047689    3.034473   -1.825063
     33          1           0       -1.181082    2.964115   -0.283330
     34          1           0       -2.537745    4.085659   -0.485599
 ---------------------------------------------------------------------

 SCF Done:  E(RHF) =  -669.534257198     A.U. after   15 cycles
 E2 =    -0.2094616704D+01 EUMP2 =    -0.67162887390281D+03

 The electronic state is 1-A.
 Alpha  occ. eigenvalues --  -20.60843 -20.60838 -15.85899 -11.31309 -11.27905
 Alpha  occ. eigenvalues --  -11.27897 -11.27644 -11.26913 -11.26893 -11.22294
 Alpha  occ. eigenvalues --  -11.22119 -11.21941 -11.21791 -11.21771 -11.21534
 Alpha  occ. eigenvalues --   -1.59918  -1.39470  -1.19509  -1.09046  -1.08857
 Alpha  occ. eigenvalues --   -1.04914  -1.04128  -0.96562  -0.95721  -0.87587
 Alpha  occ. eigenvalues --   -0.86309  -0.82542  -0.80186  -0.78797  -0.77575
 Alpha  occ. eigenvalues --   -0.72118  -0.71241  -0.70632  -0.65714  -0.65162
 Alpha  occ. eigenvalues --   -0.64876  -0.62283  -0.61534  -0.59923  -0.58161
 Alpha  occ. eigenvalues --   -0.55880  -0.55409  -0.53347  -0.53222  -0.53049
 Alpha  occ. eigenvalues --   -0.52924  -0.50532  -0.48878  -0.48868  -0.48489
 Alpha  occ. eigenvalues --   -0.47238  -0.46330  -0.46270  -0.44866  -0.44348
 Alpha  occ. eigenvalues --   -0.37342  -0.36490
 Alpha virt. eigenvalues --    0.04928   0.10897   0.16303   0.19514   0.22868
 Alpha virt. eigenvalues --    0.23465   0.25775   0.26290   0.26916   0.28069
 Alpha virt. eigenvalues --    0.29023   0.30175   0.31041   0.31466   0.31975

 Mulliken charges:
               1
     1  C   -0.172793
     2  C   -0.217244
     3  C   -0.171095
     4  C    0.158535
     5  C   -0.170222
     6  C   -0.218432
     7  H    0.228874
     8  H    0.225304
     9  H    0.276615
    10  H    0.276470
    11  H    0.224987
    12  N    0.488113
    13  O   -0.460023
    14  O   -0.459971
    15  C   -0.297650
    16  C   -0.299872
    17  C   -0.476010
    18  H    0.143638
    19  H    0.151666
    20  H    0.147300
    21  H    0.155946
    22  H    0.157197
    23  H    0.152792
    24  H    0.162349
    25  C   -0.309135
    26  C   -0.299767
    27  C   -0.479179
    28  H    0.159157
    29  H    0.152640
    30  H    0.144478
    31  H    0.155433
    32  H    0.160151
    33  H    0.149305
    34  H    0.160443
 Sum of Mulliken charges =  -0.00000

 Dipole moment (field-independent basis, Debye):
    X=             -3.8934    Y=              2.0362    Z=              2.5618  Tot=              5.0860
 Quadrupole moment (field-independent basis, Debye-Ang):
   XX=           -115.9890   YY=            -92.1272   ZZ=            -93.3511
   XY=              7.0650   XZ=              6.8480   YZ=             -1.4265

 Normal termination of Gaussian 16 at Thu May  6 19:17:47 2021.
