 Gaussian 16, Revision A.03,
 Gaussian 16:  EM64L-G16RevA.03 25-Dec-2016

 -------------
 #p 6-31g* mp2
 -------------

 ------------------------------------------------------
 Input file generated by CHIRIPA (05-May-2021 14:57:25)
 ------------------------------------------------------
 Symbolic Z-matrix:
 Charge =  0 Multiplicity = 1

                         Standard orientation:
 ---------------------------------------------------------------------
 Center     Atomic      Atomic             Coordinates (Angstroms)
 Number     Number       Type             X           Y           Z
 ---------------------------------------------------------------------
      1          6           0        3.501177   -1.837695   -0.495672
      2          6           0        4.313099   -0.701650   -0.413777
      3          6           0        3.756264    0.550597   -0.137446
      4          6           0        2.377559    0.630790    0.052372
      5          6           0        1.542186   -0.482668   -0.022820
      6          6           0        2.120746   -1.724777   -0.300276
      7          1           0        3.942178   -2.806533   -0.710770
      8          1           0        5.385470   -0.786356   -0.565074
      9          1           0        4.361502    1.446330   -0.068397
     10          1           0        0.476456   -0.366741    0.132736
     11          1           0        1.487751   -2.605341   -0.363285
     12          7           0        1.776563    1.951122    0.345507
     13          8           0        0.559168    1.995188    0.508739
     14          8           0        2.534277    2.916931    0.406485
     15          6           0       -1.321961   -2.514708    0.780991
     16          6           0       -1.447477   -2.254513   -0.587608
     17          6           0       -2.085321   -1.093288   -1.033997
     18          6           0       -2.588238   -0.210016   -0.079956
     19          6           0       -2.478839   -0.441192    1.290402
     20          6           0       -1.837134   -1.608814    1.713984
     21          1           0       -0.824971   -3.419260    1.118899
     22          1           0       -1.048346   -2.956258   -1.314446
     23          1           0       -2.196306   -0.867092   -2.087532
     24          1           0       -2.886811    0.277144    1.991094
     25          1           0       -1.741105   -1.808290    2.777483
     26          7           0       -3.265537    1.022707   -0.540455
     27          8           0       -3.700080    1.784998    0.320197
     28          8           0       -3.349036    1.203283   -1.753327
 ---------------------------------------------------------------------

 SCF Done:  E(RHF) =  -868.334655605     A.U. after   16 cycles
 E2 =    -0.2606253510D+01 EUMP2 =    -0.87094090911454D+03

 The electronic state is 1-A.
 Alpha  occ. eigenvalues --  -20.60774 -20.60766 -20.60640 -20.60602 -15.85829
 Alpha  occ. eigenvalues --  -15.85699 -11.31544 -11.31230 -11.28182 -11.28100
 Alpha  occ. eigenvalues --  -11.28040 -11.27877 -11.27705 -11.27695 -11.27337
 Alpha  occ. eigenvalues --  -11.27234 -11.26919 -11.26897  -1.59843  -1.59673
 Alpha  occ. eigenvalues --   -1.39397  -1.39220  -1.19840  -1.19449  -1.09124
 Alpha  occ. eigenvalues --   -1.08861  -1.05275  -1.04853  -0.95850  -0.95671
 Alpha  occ. eigenvalues --   -0.86633  -0.86275  -0.82660  -0.82512  -0.77624
 Alpha  occ. eigenvalues --   -0.77538  -0.72063  -0.71923  -0.71172  -0.70971
 Alpha  occ. eigenvalues --   -0.70894  -0.70598  -0.65469  -0.65318  -0.65122
 Alpha  occ. eigenvalues --   -0.64806  -0.62561  -0.62342  -0.55760  -0.55529
 Alpha  occ. eigenvalues --   -0.53646  -0.53303  -0.53208  -0.52591  -0.48804
 Alpha  occ. eigenvalues --   -0.48800  -0.48711  -0.48634  -0.44792  -0.44526
 Alpha  occ. eigenvalues --   -0.37861  -0.37492  -0.37104  -0.36220
 Alpha virt. eigenvalues --    0.04752   0.05165   0.10641   0.11143   0.15948
 Alpha virt. eigenvalues --    0.16794   0.19759   0.22121   0.25789   0.27341
 Alpha virt. eigenvalues --    0.28309   0.29184   0.30422   0.31188   0.32227

 Mulliken charges:
               1
     1  C   -0.170361
     2  C   -0.219942
     3  C   -0.169117
     4  C    0.155870
     5  C   -0.172722
     6  C   -0.224830
     7  H    0.223471
     8  H    0.223405
     9  H    0.276355
    10  H    0.290327
    11  H    0.211207
    12  N    0.488225
    13  O   -0.461184
    14  O   -0.459013
    15  C   -0.181107
    16  C   -0.230592
    17  C   -0.176191
    18  C    0.167340
    19  C   -0.164102
    20  C   -0.219369
    21  H    0.223699
    22  H    0.221522
    23  H    0.279206
    24  H    0.282760
    25  H    0.227422
    26  N    0.491105
    27  O   -0.453367
    28  O   -0.460018
 Sum of Mulliken charges =  -0.00000

 Dipole moment (field-independent basis, Debye):
    X=              4.0932    Y=             -8.5565    Z=              0.7128  Tot=              9.5119
 Quadrupole moment (field-independent basis, Debye-Ang):
   XX=           -102.9926   YY=           -109.4234   ZZ=           -101.3124
   XY=              2.7439   XZ=             -8.1823   YZ=              0.3755

 Normal termination of Gaussian 16 at Thu May  6 03:32:26 2021.
