 Gaussian 16, Revision A.03,
 Gaussian 16:  EM64L-G16RevA.03 25-Dec-2016

 -------------
 #p 6-31g* mp2
 -------------

 ------------------------------------------------------
 Input file generated by CHIRIPA (05-May-2021 14:53:14)
 ------------------------------------------------------
 Symbolic Z-matrix:
 Charge =  0 Multiplicity = 1

                         Standard orientation:
 ---------------------------------------------------------------------
 Center     Atomic      Atomic             Coordinates (Angstroms)
 Number     Number       Type             X           Y           Z
 ---------------------------------------------------------------------
      1          6           0       -2.562384    0.648372    0.090142
      2          6           0       -1.901586    2.016898   -0.078587
      3          6           0       -0.425348    2.013668    0.319538
      4          1           0       -2.463938    0.327207    1.136138
      5          1           0       -2.019804   -0.090265   -0.516008
      6          1           0       -2.446093    2.753005    0.526619
      7          1           0       -2.001785    2.334929   -1.124260
      8          1           0        0.137032    1.300728   -0.292055
      9          1           0       -0.309800    1.721180    1.368204
     10          1           0        0.027263    3.001851    0.191098
     11          6           0       -4.038305    0.635579   -0.303839
     12          6           0       -4.699102   -0.732946   -0.135109
     13          6           0       -6.175341   -0.729716   -0.533234
     14          1           0       -4.580885    1.374216    0.302311
     15          1           0       -4.136751    0.956744   -1.349834
     16          1           0       -4.598904   -1.050977    0.910564
     17          1           0       -4.154596   -1.469054   -0.740315
     18          1           0       -6.290888   -0.437228   -1.581900
     19          1           0       -6.737721   -0.016776    0.078359
     20          1           0       -6.627951   -1.717900   -0.404794
     21          6           0        4.483125    0.927244   -0.751086
     22          6           0        3.851714    1.238822    0.457534
     23          6           0        2.795311    0.454167    0.929633
     24          6           0        2.394252   -0.639673    0.164158
     25          6           0        3.003280   -0.975821   -1.043890
     26          6           0        4.057642   -0.177136   -1.496626
     27          1           0        5.302971    1.542232   -1.110303
     28          1           0        4.180035    2.095899    1.038627
     29          1           0        2.288793    0.672690    1.861892
     30          1           0        2.653715   -1.836514   -1.601054
     31          1           0        4.546148   -0.421490   -2.435614
     32          7           0        1.276965   -1.477778    0.653699
     33          8           0        0.942439   -2.436122   -0.039345
     34          8           0        0.756917   -1.160474    1.721174
 ---------------------------------------------------------------------

 SCF Done:  E(RHF) =  -669.535035123     A.U. after   15 cycles
 E2 =    -0.2093466817D+01 EUMP2 =    -0.67162850193995D+03

 The electronic state is 1-A.
 Alpha  occ. eigenvalues --  -20.60835 -20.60809 -15.85851 -11.31161 -11.27774
 Alpha  occ. eigenvalues --  -11.27737 -11.27506 -11.26763 -11.26744 -11.21110
 Alpha  occ. eigenvalues --  -11.20869 -11.20719 -11.20710 -11.20550 -11.20492
 Alpha  occ. eigenvalues --   -1.59882  -1.39439  -1.19367  -1.08766  -1.07769
 Alpha  occ. eigenvalues --   -1.04762  -1.02964  -0.95613  -0.95420  -0.86488
 Alpha  occ. eigenvalues --   -0.86135  -0.82439  -0.79039  -0.77572  -0.77453
 Alpha  occ. eigenvalues --   -0.72082  -0.71203  -0.70476  -0.65018  -0.64767
 Alpha  occ. eigenvalues --   -0.64402  -0.62114  -0.60374  -0.58790  -0.57037
 Alpha  occ. eigenvalues --   -0.55271  -0.54755  -0.53180  -0.52858  -0.52135
 Alpha  occ. eigenvalues --   -0.51785  -0.49373  -0.48838  -0.48825  -0.47356
 Alpha  occ. eigenvalues --   -0.46043  -0.45209  -0.45015  -0.44652  -0.43192
 Alpha  occ. eigenvalues --   -0.37312  -0.36329
 Alpha virt. eigenvalues --    0.05006   0.11280   0.16498   0.21292   0.23455
 Alpha virt. eigenvalues --    0.24680   0.26641   0.27371   0.27730   0.28381
 Alpha virt. eigenvalues --    0.28782   0.30679   0.31459   0.32123   0.32353

 Mulliken charges:
               1
     1  C   -0.299894
     2  C   -0.299734
     3  C   -0.478612
     4  H    0.159871
     5  H    0.153261
     6  H    0.149644
     7  H    0.148651
     8  H    0.151411
     9  H    0.162310
    10  H    0.152760
    11  C   -0.298346
    12  C   -0.299683
    13  C   -0.475486
    14  H    0.146806
    15  H    0.146255
    16  H    0.154893
    17  H    0.155377
    18  H    0.153057
    19  H    0.153298
    20  H    0.159767
    21  C   -0.170414
    22  C   -0.218873
    23  C   -0.164781
    24  C    0.155331
    25  C   -0.172362
    26  C   -0.218705
    27  H    0.225615
    28  H    0.223539
    29  H    0.275955
    30  H    0.275440
    31  H    0.223297
    32  N    0.490889
    33  O   -0.460902
    34  O   -0.459635
 Sum of Mulliken charges =  -0.00000

 Dipole moment (field-independent basis, Debye):
    X=              4.0260    Y=              2.8184    Z=             -1.6114  Tot=              5.1719
 Quadrupole moment (field-independent basis, Debye-Ang):
   XX=            -78.0867   YY=            -97.7192   ZZ=            -91.4398
   XY=              4.5314   XZ=             -4.7262   YZ=              4.6160

 Normal termination of Gaussian 16 at Wed May  5 18:35:28 2021.
