 Gaussian 16, Revision A.03,
 Gaussian 16:  EM64L-G16RevA.03 25-Dec-2016

 -------------
 #p 6-31g* mp2
 -------------

 ------------------------------------------------------
 Input file generated by CHIRIPA (05-May-2021 14:51:09)
 ------------------------------------------------------
 Symbolic Z-matrix:
 Charge =  0 Multiplicity = 1

                         Standard orientation:
 ---------------------------------------------------------------------
 Center     Atomic      Atomic             Coordinates (Angstroms)
 Number     Number       Type             X           Y           Z
 ---------------------------------------------------------------------
      1          6           0       -2.740072   -1.095377    0.175962
      2          6           0       -1.338409   -0.861233    0.740322
      3          6           0       -0.498099   -2.137835    0.784578
      4          1           0       -3.252234   -1.852223    0.785732
      5          1           0       -2.654939   -1.514687   -0.836128
      6          1           0       -1.426163   -0.441197    1.750513
      7          1           0       -0.829594   -0.104716    0.129252
      8          1           0       -0.380936   -2.556937   -0.220025
      9          1           0       -0.980895   -2.895330    1.410447
     10          1           0        0.500005   -1.947577    1.191334
     11          6           0       -3.592195    0.171530    0.125347
     12          6           0       -4.993859   -0.062614   -0.439013
     13          6           0       -5.834169    1.213988   -0.483269
     14          1           0       -3.677329    0.590840    1.137437
     15          1           0       -3.080034    0.928376   -0.484423
     16          1           0       -5.502674   -0.819131    0.172057
     17          1           0       -4.906104   -0.482650   -1.449204
     18          1           0       -5.351373    1.971482   -1.109138
     19          1           0       -5.951332    1.633090    0.521334
     20          1           0       -6.832273    1.023730   -0.890025
     21          6           0        2.760102    1.085294   -0.323799
     22          6           0        3.199444    2.329184    0.449314
     23          6           0        2.377764    3.568131    0.092036
     24          1           0        2.842018    1.283149   -1.401337
     25          1           0        1.697444    0.892572   -0.121290
     26          1           0        4.261312    2.518700    0.246494
     27          1           0        3.116654    2.128280    1.525139
     28          1           0        1.317768    3.403719    0.311080
     29          1           0        2.468930    3.796358   -0.974829
     30          1           0        2.708629    4.445697    0.656187
     31          6           0        3.572166   -0.161447    0.022490
     32          6           0        3.132824   -1.405336   -0.750623
     33          6           0        3.954504   -2.644284   -0.393345
     34          1           0        4.634824    0.031275   -0.180019
     35          1           0        3.490250   -0.359301    1.100028
     36          1           0        3.215614   -1.204432   -1.826447
     37          1           0        2.070956   -1.594853   -0.547803
     38          1           0        3.863338   -2.872511    0.673520
     39          1           0        5.014499   -2.479872   -0.612388
     40          1           0        3.623639   -3.521850   -0.957495
 ---------------------------------------------------------------------

 SCF Done:  E(RHF) =  -470.732746789     A.U. after   11 cycles
 E2 =    -0.1583707706D+01 EUMP2 =    -0.47231645449452D+03

 The electronic state is 1-A.
 Alpha  occ. eigenvalues --  -11.21697 -11.21631 -11.21584 -11.21459 -11.21454
 Alpha  occ. eigenvalues --  -11.21396 -11.21373 -11.21312 -11.21158 -11.21091
 Alpha  occ. eigenvalues --  -11.21060 -11.21010  -1.08494  -1.08386  -1.03605
 Alpha  occ. eigenvalues --   -1.03474  -0.96048  -0.95939  -0.87081  -0.86942
 Alpha  occ. eigenvalues --   -0.79704  -0.79503  -0.78305  -0.78204  -0.65206
 Alpha  occ. eigenvalues --   -0.64975  -0.61077  -0.60856  -0.59415  -0.59274
 Alpha  occ. eigenvalues --   -0.57649  -0.57551  -0.55346  -0.55226  -0.52770
 Alpha  occ. eigenvalues --   -0.52620  -0.52471  -0.52357  -0.50075  -0.49813
 Alpha  occ. eigenvalues --   -0.48011  -0.47830  -0.46803  -0.46428  -0.45928
 Alpha  occ. eigenvalues --   -0.45771  -0.45728  -0.45527  -0.43816  -0.43735
 Alpha virt. eigenvalues --    0.20266   0.23062   0.23794   0.24244   0.25926
 Alpha virt. eigenvalues --    0.26706   0.27090   0.27550   0.28000   0.29335
 Alpha virt. eigenvalues --    0.30644   0.31396   0.31660   0.31831   0.32288

 Mulliken charges:
               1
     1  C   -0.298278
     2  C   -0.304861
     3  C   -0.479756
     4  H    0.150015
     5  H    0.150044
     6  H    0.152237
     7  H    0.155590
     8  H    0.156358
     9  H    0.156552
    10  H    0.162735
    11  C   -0.298497
    12  C   -0.299715
    13  C   -0.475771
    14  H    0.149558
    15  H    0.149881
    16  H    0.151998
    17  H    0.152077
    18  H    0.155341
    19  H    0.155212
    20  H    0.160374
    21  C   -0.303726
    22  C   -0.299265
    23  C   -0.475830
    24  H    0.149422
    25  H    0.154257
    26  H    0.151974
    27  H    0.151911
    28  H    0.155211
    29  H    0.154984
    30  H    0.160247
    31  C   -0.297863
    32  C   -0.309585
    33  C   -0.475199
    34  H    0.149516
    35  H    0.148672
    36  H    0.150903
    37  H    0.163778
    38  H    0.154572
    39  H    0.154899
    40  H    0.160030
 Sum of Mulliken charges =  -0.00000

 Dipole moment (field-independent basis, Debye):
    X=             -0.0621    Y=             -0.0178    Z=              0.0050  Tot=              0.0648
 Quadrupole moment (field-independent basis, Debye-Ang):
   XX=            -85.1659   YY=            -86.3567   ZZ=            -83.3770
   XY=              1.3703   XZ=             -0.9427   YZ=             -0.1414

 Normal termination of Gaussian 16 at Thu May  6 06:53:31 2021.
