 Gaussian 16, Revision A.03,
 Gaussian 16:  EM64L-G16RevA.03 25-Dec-2016

 -------------
 #p 6-31g* mp2
 -------------

 ------------------------------------------------------
 Input file generated by CHIRIPA (05-May-2021 14:53:18)
 ------------------------------------------------------
 Symbolic Z-matrix:
 Charge =  0 Multiplicity = 1

                         Standard orientation:
 ---------------------------------------------------------------------
 Center     Atomic      Atomic             Coordinates (Angstroms)
 Number     Number       Type             X           Y           Z
 ---------------------------------------------------------------------
      1          6           0       -3.569547   -0.641573   -0.377729
      2          6           0       -2.645131   -1.595707    0.379285
      3          6           0       -2.617941   -2.998612   -0.228095
      4          1           0       -4.586221   -1.057748   -0.388584
      5          1           0       -3.244925   -0.582145   -1.425815
      6          1           0       -2.970561   -1.652248    1.425953
      7          1           0       -1.630579   -1.177119    0.388503
      8          1           0       -2.272157   -2.962315   -1.266227
      9          1           0       -3.619752   -3.440143   -0.222882
     10          1           0       -1.950928   -3.664241    0.328584
     11          6           0       -3.607400    0.764845    0.217487
     12          6           0       -4.531816    1.718979   -0.539527
     13          6           0       -4.559006    3.121884    0.067853
     14          1           0       -3.932022    0.705416    1.265573
     15          1           0       -2.590726    1.181020    0.228342
     16          1           0       -5.546368    1.300391   -0.548745
     17          1           0       -4.206386    1.775520   -1.586195
     18          1           0       -3.557195    3.563415    0.062640
     19          1           0       -4.904790    3.085586    1.105985
     20          1           0       -5.226019    3.787512   -0.488826
     21          6           0        4.661155    1.610891   -0.340636
     22          6           0        4.040657    1.545383    0.911247
     23          6           0        3.010312    0.630043    1.145967
     24          6           0        2.623903   -0.208543    0.101578
     25          6           0        3.222620   -0.167332   -1.156648
     26          6           0        4.250880    0.755831   -1.368775
     27          1           0        5.460742    2.324987   -0.514197
     28          1           0        4.357213    2.208200    1.711565
     29          1           0        2.512735    0.558104    2.105478
     30          1           0        2.885270   -0.841051   -1.934925
     31          1           0        4.730965    0.804480   -2.342016
     32          7           0        1.534228   -1.181714    0.338106
     33          8           0        1.212196   -1.909542   -0.598483
     34          8           0        1.022803   -1.198229    1.455609
 ---------------------------------------------------------------------

 SCF Done:  E(RHF) =  -669.536351665     A.U. after   15 cycles
 E2 =    -0.2091757298D+01 EUMP2 =    -0.67162810896289D+03

 The electronic state is 1-A.
 Alpha  occ. eigenvalues --  -20.61045 -20.61039 -15.86050 -11.31358 -11.27914
 Alpha  occ. eigenvalues --  -11.27910 -11.27646 -11.26912 -11.26903 -11.20976
 Alpha  occ. eigenvalues --  -11.20615 -11.20531 -11.20220 -11.19871 -11.19386
 Alpha  occ. eigenvalues --   -1.60093  -1.39646  -1.19520  -1.08928  -1.07397
 Alpha  occ. eigenvalues --   -1.04911  -1.02402  -0.95772  -0.94897  -0.86312
 Alpha  occ. eigenvalues --   -0.85931  -0.82605  -0.78548  -0.77665  -0.77102
 Alpha  occ. eigenvalues --   -0.72254  -0.71414  -0.70627  -0.65172  -0.64913
 Alpha  occ. eigenvalues --   -0.64042  -0.62257  -0.59803  -0.58343  -0.56457
 Alpha  occ. eigenvalues --   -0.55413  -0.54214  -0.53244  -0.53000  -0.51590
 Alpha  occ. eigenvalues --   -0.51326  -0.49072  -0.49022  -0.48871  -0.46827
 Alpha  occ. eigenvalues --   -0.45607  -0.45097  -0.44643  -0.44438  -0.42675
 Alpha  occ. eigenvalues --   -0.37495  -0.36510
 Alpha virt. eigenvalues --    0.04820   0.11146   0.16328   0.21286   0.23774
 Alpha virt. eigenvalues --    0.25481   0.27210   0.27616   0.28160   0.28547
 Alpha virt. eigenvalues --    0.29050   0.30850   0.32400   0.32464   0.32680

 Mulliken charges:
               1
     1  C   -0.298497
     2  C   -0.302494
     3  C   -0.471440
     4  H    0.145030
     5  H    0.146484
     6  H    0.146856
     7  H    0.169878
     8  H    0.154624
     9  H    0.144051
    10  H    0.167350
    11  C   -0.296219
    12  C   -0.298622
    13  C   -0.474783
    14  H    0.148585
    15  H    0.147069
    16  H    0.151027
    17  H    0.149978
    18  H    0.152725
    19  H    0.154556
    20  H    0.157751
    21  C   -0.170417
    22  C   -0.218616
    23  C   -0.170779
    24  C    0.159720
    25  C   -0.170896
    26  C   -0.218629
    27  H    0.226274
    28  H    0.224134
    29  H    0.276186
    30  H    0.275950
    31  H    0.224058
    32  N    0.486512
    33  O   -0.459191
    34  O   -0.458213
 Sum of Mulliken charges =  -0.00000

 Dipole moment (field-independent basis, Debye):
    X=              4.2395    Y=              3.3487    Z=             -0.7804  Tot=              5.4586
 Quadrupole moment (field-independent basis, Debye-Ang):
   XX=            -75.8234   YY=            -97.6871   ZZ=            -90.3329
   XY=              8.7181   XZ=             -2.9445   YZ=              1.7637

 Normal termination of Gaussian 16 at Thu May  6 07:36:49 2021.
