 Gaussian 16, Revision A.03,
 Gaussian 16:  EM64L-G16RevA.03 25-Dec-2016

 -------------
 #p 6-31g* mp2
 -------------

 ------------------------------------------------------
 Input file generated by CHIRIPA (05-May-2021 14:53:13)
 ------------------------------------------------------
 Symbolic Z-matrix:
 Charge =  0 Multiplicity = 1

                         Standard orientation:
 ---------------------------------------------------------------------
 Center     Atomic      Atomic             Coordinates (Angstroms)
 Number     Number       Type             X           Y           Z
 ---------------------------------------------------------------------
      1          6           0        3.836485    0.012867    0.107341
      2          6           0        4.841648   -1.065147   -0.299499
      3          6           0        5.702432   -1.542576    0.870504
      4          1           0        4.377911    0.866174    0.538235
      5          1           0        3.189237   -0.380794    0.903266
      6          1           0        5.485911   -0.670041   -1.095384
      7          1           0        4.297780   -1.915907   -0.729650
      8          1           0        5.075516   -1.961983    1.664025
      9          1           0        6.270397   -0.709037    1.296213
     10          1           0        6.413907   -2.313018    0.557322
     11          6           0        2.968637    0.500302   -1.051527
     12          6           0        1.963474    1.578315   -0.644687
     13          6           0        1.102691    2.055745   -1.814690
     14          1           0        3.615885    0.893962   -1.847452
     15          1           0        2.427211   -0.353005   -1.482421
     16          1           0        2.507342    2.429076   -0.214536
     17          1           0        1.319211    1.183209    0.151198
     18          1           0        0.534725    1.222206   -2.240399
     19          1           0        1.729607    2.475151   -2.608211
     20          1           0        0.391215    2.826186   -1.501508
     21          6           0       -0.992116    1.003112    1.832155
     22          6           0       -2.194588    1.626000    1.482021
     23          6           0       -3.125104    0.968601    0.671764
     24          6           0       -2.819327   -0.316813    0.227353
     25          6           0       -1.629991   -0.963969    0.558954
     26          6           0       -0.714146   -0.287609    1.370318
     27          1           0       -0.274967    1.521160    2.462012
     28          1           0       -2.413129    2.628338    1.839235
     29          1           0       -4.063708    1.427385    0.385484
     30          1           0       -1.440232   -1.963699    0.187538
     31          1           0        0.218903   -0.773808    1.640642
     32          7           0       -3.796657   -1.022809   -0.631016
     33          8           0       -3.503548   -2.154797   -1.009601
     34          8           0       -4.837291   -0.430811   -0.908967
 ---------------------------------------------------------------------

 SCF Done:  E(RHF) =  -669.534521814     A.U. after   15 cycles
 E2 =    -0.2093493997D+01 EUMP2 =    -0.67162801581113D+03

 The electronic state is 1-A.
 Alpha  occ. eigenvalues --  -20.60819 -20.60814 -15.85874 -11.31265 -11.27841
 Alpha  occ. eigenvalues --  -11.27837 -11.27578 -11.26858 -11.26847 -11.22130
 Alpha  occ. eigenvalues --  -11.22048 -11.21981 -11.21858 -11.21565 -11.21370
 Alpha  occ. eigenvalues --   -1.59894  -1.39447  -1.19450  -1.08982  -1.08827
 Alpha  occ. eigenvalues --   -1.04860  -1.03988  -0.96441  -0.95668  -0.87453
 Alpha  occ. eigenvalues --   -0.86261  -0.82497  -0.80073  -0.78803  -0.77537
 Alpha  occ. eigenvalues --   -0.72093  -0.71218  -0.70552  -0.65663  -0.65100
 Alpha  occ. eigenvalues --   -0.64830  -0.62205  -0.61403  -0.59819  -0.58067
 Alpha  occ. eigenvalues --   -0.55752  -0.55347  -0.53235  -0.53054  -0.52943
 Alpha  occ. eigenvalues --   -0.52859  -0.50381  -0.48854  -0.48845  -0.48382
 Alpha  occ. eigenvalues --   -0.47121  -0.46334  -0.46269  -0.44847  -0.44269
 Alpha  occ. eigenvalues --   -0.37331  -0.36420
 Alpha virt. eigenvalues --    0.04978   0.11071   0.16422   0.19811   0.22755
 Alpha virt. eigenvalues --    0.23922   0.25036   0.26558   0.27250   0.28140
 Alpha virt. eigenvalues --    0.29126   0.30797   0.31095   0.31581   0.31784

 Mulliken charges:
               1
     1  C   -0.297374
     2  C   -0.300046
     3  C   -0.475715
     4  H    0.150716
     5  H    0.139223
     6  H    0.154682
     7  H    0.152827
     8  H    0.152945
     9  H    0.155718
    10  H    0.162708
    11  C   -0.298583
    12  C   -0.306529
    13  C   -0.474236
    14  H    0.152299
    15  H    0.150287
    16  H    0.148757
    17  H    0.153482
    18  H    0.158386
    19  H    0.156109
    20  H    0.158858
    21  C   -0.169039
    22  C   -0.218926
    23  C   -0.170429
    24  C    0.158809
    25  C   -0.172294
    26  C   -0.220048
    27  H    0.227506
    28  H    0.223997
    29  H    0.276056
    30  H    0.275848
    31  H    0.226370
    32  N    0.488058
    33  O   -0.460348
    34  O   -0.460075
 Sum of Mulliken charges =  -0.00000

 Dipole moment (field-independent basis, Debye):
    X=              3.4169    Y=              2.4919    Z=              2.9779  Tot=              5.1723
 Quadrupole moment (field-independent basis, Debye-Ang):
   XX=           -112.4641   YY=            -93.1992   ZZ=            -94.5446
   XY=            -10.3140   XZ=             -8.8461   YZ=              0.0995

 Normal termination of Gaussian 16 at Wed May  5 20:10:43 2021.
