 Gaussian 16, Revision A.03,
 Gaussian 16:  EM64L-G16RevA.03 25-Dec-2016

 -------------
 #p 6-31g* mp2
 -------------

 ------------------------------------------------------
 Input file generated by CHIRIPA (05-May-2021 14:51:10)
 ------------------------------------------------------
 Symbolic Z-matrix:
 Charge =  0 Multiplicity = 1

                         Standard orientation:
 ---------------------------------------------------------------------
 Center     Atomic      Atomic             Coordinates (Angstroms)
 Number     Number       Type             X           Y           Z
 ---------------------------------------------------------------------
      1          6           0       -4.007481   -0.349763   -0.187374
      2          6           0       -4.732061    0.996529   -0.209034
      3          6           0       -6.060402    0.940860   -0.964153
      4          1           0       -3.830303   -0.680261   -1.220004
      5          1           0       -4.661309   -1.102787    0.273992
      6          1           0       -4.076527    1.747096   -0.668968
      7          1           0       -4.907364    1.323952    0.823767
      8          1           0       -6.735559    0.212878   -0.502843
      9          1           0       -5.900000    0.638426   -2.004059
     10          1           0       -6.561522    1.913860   -0.967254
     11          6           0       -2.677905   -0.310143    0.563882
     12          6           0       -1.953326   -1.656434    0.585542
     13          6           0       -0.624984   -1.600766    1.340661
     14          1           0       -2.024078    0.442882    0.102516
     15          1           0       -2.855084    0.020355    1.596512
     16          1           0       -1.778022   -1.983857   -0.447259
     17          1           0       -2.608860   -2.407002    1.045475
     18          1           0       -0.785386   -1.298332    2.380567
     19          1           0        0.050172   -0.872783    0.879351
     20          1           0       -0.123865   -2.573766    1.343762
     21          6           0        3.109590   -0.387010   -0.065536
     22          6           0        3.908639   -1.427286   -0.851241
     23          6           0        3.430482   -2.856836   -0.595222
     24          1           0        3.181319   -0.612563    1.007276
     25          1           0        2.047165   -0.472634   -0.332589
     26          1           0        4.969427   -1.338801   -0.583818
     27          1           0        3.835157   -1.199118   -1.922295
     28          1           0        2.379128   -2.968138   -0.879596
     29          1           0        3.519844   -3.108616    0.466486
     30          1           0        4.015366   -3.584219   -1.166783
     31          6           0        3.575797    1.046915   -0.310971
     32          6           0        2.776747    2.087191    0.474734
     33          6           0        3.254905    3.516741    0.218714
     34          1           0        4.638222    1.132540   -0.043919
     35          1           0        3.504067    1.272469   -1.383783
     36          1           0        2.850230    1.859023    1.545787
     37          1           0        1.715960    1.998706    0.207310
     38          1           0        3.165543    3.768521   -0.842993
     39          1           0        4.306259    3.628043    0.503088
     40          1           0        2.670020    4.244124    0.790275
 ---------------------------------------------------------------------

 SCF Done:  E(RHF) =  -470.733164605     A.U. after   11 cycles
 E2 =    -0.1582893470D+01 EUMP2 =    -0.47231605807465D+03

 The electronic state is 1-A.
 Alpha  occ. eigenvalues --  -11.21617 -11.21605 -11.21595 -11.21579 -11.21405
 Alpha  occ. eigenvalues --  -11.21397 -11.21346 -11.21332 -11.21081 -11.21074
 Alpha  occ. eigenvalues --  -11.21055 -11.20972  -1.08442  -1.08415  -1.03535
 Alpha  occ. eigenvalues --   -1.03506  -0.95990  -0.95948  -0.87011  -0.86960
 Alpha  occ. eigenvalues --   -0.79629  -0.79549  -0.78298  -0.78184  -0.65126
 Alpha  occ. eigenvalues --   -0.65003  -0.60969  -0.60878  -0.59374  -0.59298
 Alpha  occ. eigenvalues --   -0.57667  -0.57501  -0.55349  -0.55181  -0.52686
 Alpha  occ. eigenvalues --   -0.52642  -0.52502  -0.52284  -0.50012  -0.49843
 Alpha  occ. eigenvalues --   -0.47930  -0.47883  -0.46725  -0.46603  -0.45894
 Alpha  occ. eigenvalues --   -0.45747  -0.45735  -0.45410  -0.43785  -0.43764
 Alpha virt. eigenvalues --    0.21279   0.23207   0.23748   0.24266   0.25737
 Alpha virt. eigenvalues --    0.26832   0.27002   0.27299   0.27918   0.29494
 Alpha virt. eigenvalues --    0.31190   0.31534   0.31619   0.31836   0.32156

 Mulliken charges:
               1
     1  C   -0.298252
     2  C   -0.299631
     3  C   -0.475699
     4  H    0.149465
     5  H    0.149642
     6  H    0.151787
     7  H    0.152008
     8  H    0.155223
     9  H    0.155124
    10  H    0.160260
    11  C   -0.298011
    12  C   -0.299734
    13  C   -0.481984
    14  H    0.148644
    15  H    0.149879
    16  H    0.151020
    17  H    0.151905
    18  H    0.154740
    19  H    0.161764
    20  H    0.160807
    21  C   -0.303053
    22  C   -0.299286
    23  C   -0.476186
    24  H    0.150654
    25  H    0.154416
    26  H    0.151896
    27  H    0.151520
    28  H    0.155888
    29  H    0.155442
    30  H    0.160013
    31  C   -0.297931
    32  C   -0.300009
    33  C   -0.475664
    34  H    0.149612
    35  H    0.149238
    36  H    0.152521
    37  H    0.151168
    38  H    0.155059
    39  H    0.155351
    40  H    0.160396
 Sum of Mulliken charges =  -0.00000

 Dipole moment (field-independent basis, Debye):
    X=              0.0251    Y=              0.0016    Z=              0.0136  Tot=              0.0286
 Quadrupole moment (field-independent basis, Debye-Ang):
   XX=            -85.1388   YY=            -85.9592   ZZ=            -83.6764
   XY=             -0.0847   XZ=             -0.3523   YZ=             -0.1269

 Normal termination of Gaussian 16 at Wed May  5 21:25:08 2021.
