 Gaussian 16, Revision A.03,
 Gaussian 16:  EM64L-G16RevA.03 25-Dec-2016

 -------------
 #p 6-31g* mp2
 -------------

 ------------------------------------------------------
 Input file generated by CHIRIPA (05-May-2021 14:55:23)
 ------------------------------------------------------
 Symbolic Z-matrix:
 Charge =  0 Multiplicity = 1

                         Standard orientation:
 ---------------------------------------------------------------------
 Center     Atomic      Atomic             Coordinates (Angstroms)
 Number     Number       Type             X           Y           Z
 ---------------------------------------------------------------------
      1          6           0        1.525342    2.011072    0.475237
      2          6           0        1.842271    1.164907    1.542983
      3          6           0        2.791082    0.150001    1.387186
      4          6           0        3.406399    0.008976    0.144291
      5          6           0        3.112119    0.836077   -0.938572
      6          6           0        2.160158    1.844251   -0.759955
      7          1           0        0.787060    2.796860    0.605128
      8          1           0        1.350852    1.292133    2.503382
      9          1           0        3.055395   -0.519150    2.196997
     10          1           0        3.618720    0.684708   -1.884015
     11          1           0        1.916014    2.499918   -1.590942
     12          7           0        4.412530   -1.061896   -0.032724
     13          8           0        4.940500   -1.165419   -1.137788
     14          8           0        4.654113   -1.777445    0.936948
     15          6           0       -3.477445   -0.574686   -0.363843
     16          6           0       -2.351484    0.415861   -0.662193
     17          6           0       -1.016391   -0.274057   -0.943854
     18          1           0       -3.193822   -1.193597    0.498394
     19          1           0       -3.589876   -1.258909   -1.216248
     20          1           0       -2.242134    1.098886    0.189943
     21          1           0       -2.637903    1.032614   -1.523702
     22          1           0       -1.102436   -0.941899   -1.807095
     23          1           0       -0.704418   -0.875250   -0.083714
     24          1           0       -0.225571    0.452613   -1.154598
     25          6           0       -4.818430    0.099886   -0.080228
     26          6           0       -5.944391   -0.890661    0.218122
     27          6           0       -7.279485   -0.200742    0.499782
     28          1           0       -4.705999    0.784109    0.772176
     29          1           0       -5.102054    0.718797   -0.942466
     30          1           0       -5.657973   -1.507414    1.079629
     31          1           0       -6.053741   -1.573686   -0.634014
     32          1           0       -7.591458    0.400451   -0.360358
     33          1           0       -7.193440    0.467100    1.363022
     34          1           0       -8.070304   -0.927413    0.710526
 ---------------------------------------------------------------------

 SCF Done:  E(RHF) =  -669.534186549     A.U. after   15 cycles
 E2 =    -0.2093024834D+01 EUMP2 =    -0.67162721138320D+03

 The electronic state is 1-A.
 Alpha  occ. eigenvalues --  -20.60792 -20.60786 -15.85847 -11.31239 -11.27828
 Alpha  occ. eigenvalues --  -11.27816 -11.27546 -11.26822 -11.26798 -11.22038
 Alpha  occ. eigenvalues --  -11.21880 -11.21744 -11.21685 -11.21332 -11.21162
 Alpha  occ. eigenvalues --   -1.59866  -1.39419  -1.19424  -1.08833  -1.08749
 Alpha  occ. eigenvalues --   -1.04833  -1.03836  -0.96265  -0.95636  -0.87276
 Alpha  occ. eigenvalues --   -0.86228  -0.82471  -0.79909  -0.78586  -0.77512
 Alpha  occ. eigenvalues --   -0.72066  -0.71189  -0.70528  -0.65400  -0.65076
 Alpha  occ. eigenvalues --   -0.64833  -0.62175  -0.61242  -0.59709  -0.57930
 Alpha  occ. eigenvalues --   -0.55563  -0.55325  -0.53691  -0.52920  -0.52737
 Alpha  occ. eigenvalues --   -0.52306  -0.50181  -0.48826  -0.48818  -0.48221
 Alpha  occ. eigenvalues --   -0.46955  -0.46119  -0.46058  -0.44820  -0.44098
 Alpha  occ. eigenvalues --   -0.37301  -0.36395
 Alpha virt. eigenvalues --    0.05008   0.11128   0.16455   0.21025   0.22616
 Alpha virt. eigenvalues --    0.24147   0.26194   0.26954   0.27114   0.27773
 Alpha virt. eigenvalues --    0.28514   0.30633   0.31207   0.31786   0.32060

 Mulliken charges:
               1
     1  C   -0.167298
     2  C   -0.216686
     3  C   -0.170697
     4  C    0.159228
     5  C   -0.168359
     6  C   -0.223502
     7  H    0.226773
     8  H    0.223526
     9  H    0.275898
    10  H    0.276107
    11  H    0.224299
    12  N    0.488098
    13  O   -0.460170
    14  O   -0.460384
    15  C   -0.297962
    16  C   -0.299312
    17  C   -0.480417
    18  H    0.150053
    19  H    0.151693
    20  H    0.143522
    21  H    0.150105
    22  H    0.155212
    23  H    0.155509
    24  H    0.165035
    25  C   -0.298061
    26  C   -0.299868
    27  C   -0.475781
    28  H    0.147422
    29  H    0.149475
    30  H    0.152322
    31  H    0.153069
    32  H    0.155277
    33  H    0.154559
    34  H    0.161316
 Sum of Mulliken charges =  -0.00000

 Dipole moment (field-independent basis, Debye):
    X=             -3.4701    Y=              3.7574    Z=              0.6338  Tot=              5.1538
 Quadrupole moment (field-independent basis, Debye-Ang):
   XX=           -120.5670   YY=            -95.0866   ZZ=            -89.1631
   XY=             13.6589   XZ=              1.3663   YZ=             -1.0310

 Normal termination of Gaussian 16 at Thu May  6 17:36:59 2021.
