 Gaussian 16, Revision A.03,
 Gaussian 16:  EM64L-G16RevA.03 25-Dec-2016

 -------------
 #p 6-31g* mp2
 -------------

 ------------------------------------------------------
 Input file generated by CHIRIPA (05-May-2021 14:57:25)
 ------------------------------------------------------
 Symbolic Z-matrix:
 Charge =  0 Multiplicity = 1

                         Standard orientation:
 ---------------------------------------------------------------------
 Center     Atomic      Atomic             Coordinates (Angstroms)
 Number     Number       Type             X           Y           Z
 ---------------------------------------------------------------------
      1          6           0       -1.112965   -1.709249    0.384736
      2          6           0       -1.695073   -1.101643    1.502093
      3          6           0       -2.795990   -0.252483    1.355609
      4          6           0       -3.291354   -0.032141    0.071337
      5          6           0       -2.733345   -0.622774   -1.061389
      6          6           0       -1.633042   -1.468300   -0.891189
      7          1           0       -0.257985   -2.367485    0.507739
      8          1           0       -1.293283   -1.286943    2.494198
      9          1           0       -3.266014    0.230911    2.203444
     10          1           0       -3.156090   -0.418839   -2.037665
     11          1           0       -1.183001   -1.938812   -1.760745
     12          7           0       -4.456521    0.864903   -0.096292
     13          8           0       -4.874176    1.042800   -1.238463
     14          8           0       -4.930060    1.373124    0.917665
     15          6           0        3.479499    2.669139    0.060710
     16          6           0        3.017633    2.106769   -1.133837
     17          6           0        2.803451    0.728836   -1.233708
     18          6           0        3.062566   -0.060658   -0.114401
     19          6           0        3.523293    0.469858    1.089582
     20          6           0        3.730413    1.850332    1.166657
     21          1           0        3.643138    3.740537    0.129437
     22          1           0        2.821927    2.740233   -1.994341
     23          1           0        2.446382    0.267185   -2.146286
     24          1           0        3.709490   -0.187244    1.930393
     25          1           0        4.089155    2.284320    2.095636
     26          7           0        2.839560   -1.520759   -0.208063
     27          8           0        3.075348   -2.194662    0.792384
     28          8           0        2.433200   -1.963636   -1.280150
 ---------------------------------------------------------------------

 SCF Done:  E(RHF) =  -868.340373471     A.U. after   16 cycles
 E2 =    -0.2599117573D+01 EUMP2 =    -0.87093949104408D+03

 The electronic state is 1-A.
 Alpha  occ. eigenvalues --  -20.61872 -20.61855 -20.60521 -20.60516 -15.86883
 Alpha  occ. eigenvalues --  -15.85568 -11.31895 -11.30787 -11.28432 -11.28420
 Alpha  occ. eigenvalues --  -11.28082 -11.27354 -11.27349 -11.27332 -11.27312
 Alpha  occ. eigenvalues --  -11.26860 -11.26285 -11.26186  -1.60944  -1.59601
 Alpha  occ. eigenvalues --   -1.40500  -1.39159  -1.20033  -1.18922  -1.09492
 Alpha  occ. eigenvalues --   -1.08309  -1.05383  -1.04303  -0.96385  -0.95177
 Alpha  occ. eigenvalues --   -0.86797  -0.85678  -0.83230  -0.82023  -0.78323
 Alpha  occ. eigenvalues --   -0.77120  -0.73102  -0.72298  -0.71786  -0.71133
 Alpha  occ. eigenvalues --   -0.70925  -0.69898  -0.65687  -0.65378  -0.64548
 Alpha  occ. eigenvalues --   -0.64258  -0.62739  -0.61650  -0.55886  -0.54668
 Alpha  occ. eigenvalues --   -0.53722  -0.53469  -0.52649  -0.52361  -0.49880
 Alpha  occ. eigenvalues --   -0.49834  -0.48554  -0.48528  -0.45984  -0.44598
 Alpha  occ. eigenvalues --   -0.37986  -0.36970  -0.36850  -0.35929
 Alpha virt. eigenvalues --    0.04139   0.05400   0.10684   0.11746   0.15724
 Alpha virt. eigenvalues --    0.16937   0.20845   0.22107   0.26781   0.27578
 Alpha virt. eigenvalues --    0.27988   0.28941   0.30567   0.31537   0.32011

 Mulliken charges:
               1
     1  C   -0.181374
     2  C   -0.219823
     3  C   -0.172485
     4  C    0.157648
     5  C   -0.173407
     6  C   -0.220726
     7  H    0.243418
     8  H    0.223125
     9  H    0.272996
    10  H    0.273242
    11  H    0.231422
    12  N    0.488101
    13  O   -0.462138
    14  O   -0.462334
    15  C   -0.169061
    16  C   -0.217919
    17  C   -0.169133
    18  C    0.158004
    19  C   -0.171442
    20  C   -0.218360
    21  H    0.229028
    22  H    0.226649
    23  H    0.274559
    24  H    0.274807
    25  H    0.225572
    26  N    0.486691
    27  O   -0.462187
    28  O   -0.464872
 Sum of Mulliken charges =  -0.00000

 Dipole moment (field-independent basis, Debye):
    X=              5.2161    Y=              2.0487    Z=              0.8847  Tot=              5.6734
 Quadrupole moment (field-independent basis, Debye-Ang):
   XX=           -128.5591   YY=           -105.8480   ZZ=            -95.4451
   XY=             26.7245   XZ=              0.8530   YZ=             -0.5903

 Normal termination of Gaussian 16 at Fri May  7 06:35:01 2021.
