 Gaussian 16, Revision A.03,
 Gaussian 16:  EM64L-G16RevA.03 25-Dec-2016

 -------------
 #p 6-31g* mp2
 -------------

 ------------------------------------------------------
 Input file generated by CHIRIPA (05-May-2021 14:57:26)
 ------------------------------------------------------
 Symbolic Z-matrix:
 Charge =  0 Multiplicity = 1

                         Standard orientation:
 ---------------------------------------------------------------------
 Center     Atomic      Atomic             Coordinates (Angstroms)
 Number     Number       Type             X           Y           Z
 ---------------------------------------------------------------------
      1          6           0       -5.472491   -0.384271   -1.457857
      2          6           0       -4.489300   -1.371896   -1.337632
      3          6           0       -3.424804   -1.209220   -0.446042
      4          6           0       -3.374454   -0.041223    0.313258
      5          6           0       -4.338623    0.960892    0.216125
      6          6           0       -5.394153    0.776923   -0.681963
      7          1           0       -6.295934   -0.518912   -2.152989
      8          1           0       -4.547576   -2.274718   -1.938931
      9          1           0       -2.650054   -1.957818   -0.332982
     10          1           0       -4.253535    1.850081    0.828922
     11          1           0       -6.156287    1.545601   -0.773236
     12          7           0       -2.252267    0.142265    1.260584
     13          8           0       -2.230700    1.180382    1.918222
     14          8           0       -1.415511   -0.755507    1.327524
     15          6           0        3.979163   -2.388807    0.212726
     16          6           0        2.770477   -1.815697    0.621559
     17          6           0        2.527073   -0.453582    0.421697
     18          6           0        3.518824    0.309314   -0.192884
     19          6           0        4.733175   -0.232484   -0.611330
     20          6           0        4.954934   -1.596768   -0.401331
     21          1           0        4.159839   -3.447774    0.371921
     22          1           0        2.010872   -2.428379    1.098702
     23          1           0        1.600268    0.015873    0.728395
     24          1           0        5.471319    0.403834   -1.084259
     25          1           0        5.894550   -2.039152   -0.719865
     26          7           0        3.272600    1.752472   -0.409835
     27          8           0        4.162433    2.403000   -0.953569
     28          8           0        2.194438    2.205765   -0.032038
 ---------------------------------------------------------------------

 SCF Done:  E(RHF) =  -868.339674423     A.U. after   16 cycles
 E2 =    -0.2598656470D+01 EUMP2 =    -0.87093833089359D+03

 The electronic state is 1-A.
 Alpha  occ. eigenvalues --  -20.61194 -20.61108 -20.59959 -20.59928 -15.86179
 Alpha  occ. eigenvalues --  -15.84993 -11.31374 -11.30269 -11.27960 -11.27891
 Alpha  occ. eigenvalues --  -11.27643 -11.26933 -11.26926 -11.26882 -11.26663
 Alpha  occ. eigenvalues --  -11.26655 -11.25956 -11.25760  -1.60198  -1.59027
 Alpha  occ. eigenvalues --   -1.39762  -1.38578  -1.19530  -1.18461  -1.08957
 Alpha  occ. eigenvalues --   -1.07895  -1.04913  -1.03826  -0.95822  -0.94726
 Alpha  occ. eigenvalues --   -0.86320  -0.85245  -0.82667  -0.81539  -0.77731
 Alpha  occ. eigenvalues --   -0.76578  -0.72415  -0.71493  -0.71211  -0.70646
 Alpha  occ. eigenvalues --   -0.70353  -0.69576  -0.65193  -0.64920  -0.64108
 Alpha  occ. eigenvalues --   -0.63828  -0.62267  -0.61135  -0.55425  -0.54396
 Alpha  occ. eigenvalues --   -0.53243  -0.53008  -0.52210  -0.51901  -0.49180
 Alpha  occ. eigenvalues --   -0.49130  -0.47983  -0.47957  -0.45198  -0.44002
 Alpha  occ. eigenvalues --   -0.37498  -0.36505  -0.36499  -0.35439
 Alpha virt. eigenvalues --    0.04782   0.05915   0.11153   0.12197   0.16293
 Alpha virt. eigenvalues --    0.17399   0.21262   0.22361   0.27192   0.27935
 Alpha virt. eigenvalues --    0.28460   0.29274   0.30882   0.31853   0.32404

 Mulliken charges:
               1
     1  C   -0.170057
     2  C   -0.218329
     3  C   -0.170234
     4  C    0.159251
     5  C   -0.169247
     6  C   -0.218394
     7  H    0.226484
     8  H    0.223214
     9  H    0.271990
    10  H    0.277950
    11  H    0.225029
    12  N    0.490484
    13  O   -0.451203
    14  O   -0.473533
    15  C   -0.171794
    16  C   -0.222687
    17  C   -0.176059
    18  C    0.157106
    19  C   -0.172104
    20  C   -0.219725
    21  H    0.221862
    22  H    0.229609
    23  H    0.293268
    24  H    0.272387
    25  H    0.219468
    26  N    0.487412
    27  O   -0.465280
    28  O   -0.456868
 Sum of Mulliken charges =  -0.00000

 Dipole moment (field-independent basis, Debye):
    X=             -3.5756    Y=             -5.5847    Z=             -2.4626  Tot=              7.0738
 Quadrupole moment (field-independent basis, Debye-Ang):
   XX=            -68.6825   YY=           -104.9374   ZZ=           -107.3129
   XY=            -17.1267   XZ=             10.3907   YZ=              2.5263

 Normal termination of Gaussian 16 at Fri May  7 12:41:06 2021.
