 Gaussian 16, Revision A.03,
 Gaussian 16:  EM64L-G16RevA.03 25-Dec-2016

 -------------
 #p 6-31g* mp2
 -------------

 ------------------------------------------------------
 Input file generated by CHIRIPA (05-May-2021 14:57:25)
 ------------------------------------------------------
 Symbolic Z-matrix:
 Charge =  0 Multiplicity = 1

                         Standard orientation:
 ---------------------------------------------------------------------
 Center     Atomic      Atomic             Coordinates (Angstroms)
 Number     Number       Type             X           Y           Z
 ---------------------------------------------------------------------
      1          6           0        4.400216    1.983488    0.709736
      2          6           0        3.500020    1.913966   -0.358597
      3          6           0        2.984784    0.682468   -0.773919
      4          6           0        3.393090   -0.464746   -0.095334
      5          6           0        4.288398   -0.428101    0.972547
      6          6           0        4.790843    0.814294    1.370733
      7          1           0        4.795495    2.944378    1.025712
      8          1           0        3.194886    2.820342   -0.873788
      9          1           0        2.286489    0.599862   -1.597920
     10          1           0        4.573943   -1.348854    1.466607
     11          1           0        5.489801    0.865269    2.200736
     12          7           0        2.854403   -1.774246   -0.525946
     13          8           0        3.229849   -2.770392    0.088358
     14          8           0        2.066936   -1.779689   -1.469610
     15          6           0       -1.614782    1.828541   -0.595887
     16          6           0       -2.909661    2.318891   -0.397474
     17          6           0       -3.951886    1.452851   -0.053541
     18          6           0       -3.662375    0.096213    0.084328
     19          6           0       -2.382739   -0.422747   -0.106725
     20          6           0       -1.355911    0.461697   -0.450136
     21          1           0       -0.811138    2.508450   -0.862860
     22          1           0       -3.113626    3.379921   -0.509987
     23          1           0       -4.963587    1.805629    0.105913
     24          1           0       -2.210203   -1.485485    0.012591
     25          1           0       -0.351260    0.078072   -0.603613
     26          7           0       -4.757583   -0.830367    0.448157
     27          8           0       -4.476532   -2.021301    0.563576
     28          8           0       -5.876318   -0.348140    0.611020
 ---------------------------------------------------------------------

 SCF Done:  E(RHF) =  -868.338233069     A.U. after   16 cycles
 E2 =    -0.2599937449D+01 EUMP2 =    -0.87093817051805D+03

 The electronic state is 1-A.
 Alpha  occ. eigenvalues --  -20.61778 -20.61722 -20.60492 -20.60475 -15.86773
 Alpha  occ. eigenvalues --  -15.85538 -11.32124 -11.30927 -11.28748 -11.28608
 Alpha  occ. eigenvalues --  -11.28360 -11.27725 -11.27611 -11.27529 -11.27415
 Alpha  occ. eigenvalues --  -11.27336 -11.26603 -11.26449  -1.60807  -1.59561
 Alpha  occ. eigenvalues --   -1.40364  -1.39113  -1.20277  -1.19108  -1.09665
 Alpha  occ. eigenvalues --   -1.08525  -1.05679  -1.04495  -0.96508  -0.95350
 Alpha  occ. eigenvalues --   -0.87075  -0.85912  -0.83341  -0.82161  -0.78411
 Alpha  occ. eigenvalues --   -0.77184  -0.72982  -0.72125  -0.71758  -0.71368
 Alpha  occ. eigenvalues --   -0.70884  -0.70273  -0.65927  -0.65678  -0.64765
 Alpha  occ. eigenvalues --   -0.64503  -0.63030  -0.61817  -0.56144  -0.55090
 Alpha  occ. eigenvalues --   -0.53999  -0.53766  -0.52850  -0.52578  -0.49756
 Alpha  occ. eigenvalues --   -0.49735  -0.48522  -0.48506  -0.45753  -0.44512
 Alpha  occ. eigenvalues --   -0.38228  -0.37286  -0.37134  -0.36089
 Alpha virt. eigenvalues --    0.04085   0.05324   0.10259   0.11542   0.15603
 Alpha virt. eigenvalues --    0.16797   0.19713   0.21864   0.25665   0.26735
 Alpha virt. eigenvalues --    0.27878   0.29158   0.29736   0.31127   0.32048

 Mulliken charges:
               1
     1  C   -0.169970
     2  C   -0.218395
     3  C   -0.178199
     4  C    0.159788
     5  C   -0.169707
     6  C   -0.217396
     7  H    0.228545
     8  H    0.222432
     9  H    0.271787
    10  H    0.278800
    11  H    0.227313
    12  N    0.487924
    13  O   -0.452830
    14  O   -0.465075
    15  C   -0.171155
    16  C   -0.218280
    17  C   -0.171832
    18  C    0.158726
    19  C   -0.171592
    20  C   -0.223883
    21  H    0.216214
    22  H    0.220755
    23  H    0.274631
    24  H    0.281848
    25  H    0.231801
    26  N    0.487843
    27  O   -0.458051
    28  O   -0.462043
 Sum of Mulliken charges =  -0.00000

 Dipole moment (field-independent basis, Debye):
    X=              6.0967    Y=              7.6737    Z=              0.3897  Tot=              9.8085
 Quadrupole moment (field-independent basis, Debye-Ang):
   XX=           -116.4844   YY=           -105.1224   ZZ=           -104.0210
   XY=             -0.6676   XZ=             12.7382   YZ=             -2.6793

 Normal termination of Gaussian 16 at Thu May  6 14:44:59 2021.
