 Gaussian 16, Revision A.03,
 Gaussian 16:  EM64L-G16RevA.03 25-Dec-2016

 -------------
 #p 6-31g* mp2
 -------------

 ------------------------------------------------------
 Input file generated by CHIRIPA (05-May-2021 14:51:12)
 ------------------------------------------------------
 Symbolic Z-matrix:
 Charge =  0 Multiplicity = 1

                         Standard orientation:
 ---------------------------------------------------------------------
 Center     Atomic      Atomic             Coordinates (Angstroms)
 Number     Number       Type             X           Y           Z
 ---------------------------------------------------------------------
      1          6           0        2.329998    1.185306   -0.110231
      2          6           0        2.711845    2.564487    0.428321
      3          6           0        1.557137    3.564646    0.364114
      4          1           0        1.987851    1.286297   -1.149308
      5          1           0        1.476473    0.798687    0.463718
      6          1           0        3.565277    2.947791   -0.145568
      7          1           0        3.053305    2.460174    1.466175
      8          1           0        0.705258    3.207795    0.951960
      9          1           0        1.220140    3.698183   -0.668940
     10          1           0        1.852019    4.543863    0.754036
     11          6           0        3.473948    0.174468   -0.052673
     12          6           0        3.092100   -1.204713   -0.591225
     13          6           0        4.246809   -2.204872   -0.527018
     14          1           0        4.327472    0.561087   -0.626621
     15          1           0        3.816095    0.073477    0.986404
     16          1           0        2.750641   -1.100401   -1.629078
     17          1           0        2.238668   -1.588017   -0.017336
     18          1           0        4.583806   -2.338409    0.506037
     19          1           0        5.098687   -1.848022   -1.114863
     20          1           0        3.951927   -3.184089   -0.916940
     21          6           0       -2.653178   -1.364388    0.311650
     22          6           0       -1.129332   -1.490104    0.302873
     23          6           0       -0.646935   -2.865130    0.765896
     24          1           0       -3.025246   -1.562600    1.326156
     25          1           0       -3.081982   -2.141646   -0.335954
     26          1           0       -0.703465   -0.711966    0.949212
     27          1           0       -0.760833   -1.291381   -0.711688
     28          1           0       -1.044250   -3.651667    0.116203
     29          1           0       -0.986555   -3.068959    1.786539
     30          1           0        0.445332   -2.933071    0.751871
     31          6           0       -3.150767    0.004614   -0.148747
     32          6           0       -4.674613    0.130330   -0.139969
     33          6           0       -5.157011    1.505356   -0.602992
     34          1           0       -2.721963    0.781873    0.498857
     35          1           0       -2.778700    0.202827   -1.163252
     36          1           0       -5.043112   -0.068393    0.874592
     37          1           0       -5.100480   -0.647807   -0.786309
     38          1           0       -4.817390    1.709186   -1.623636
     39          1           0       -4.759695    2.291892    0.046701
     40          1           0       -6.249278    1.573298   -0.588967
 ---------------------------------------------------------------------

 SCF Done:  E(RHF) =  -470.733062166     A.U. after   11 cycles
 E2 =    -0.1583651248D+01 EUMP2 =    -0.47231671341417D+03

 The electronic state is 1-A.
 Alpha  occ. eigenvalues --  -11.21610 -11.21600 -11.21578 -11.21564 -11.21411
 Alpha  occ. eigenvalues --  -11.21369 -11.21350 -11.21303 -11.21085 -11.21064
 Alpha  occ. eigenvalues --  -11.21063 -11.21058  -1.08450  -1.08391  -1.03555
 Alpha  occ. eigenvalues --   -1.03497  -0.95993  -0.95957  -0.87019  -0.86962
 Alpha  occ. eigenvalues --   -0.79615  -0.79568  -0.78341  -0.78120  -0.65100
 Alpha  occ. eigenvalues --   -0.65020  -0.60966  -0.60918  -0.59464  -0.59229
 Alpha  occ. eigenvalues --   -0.57640  -0.57532  -0.55286  -0.55239  -0.52720
 Alpha  occ. eigenvalues --   -0.52639  -0.52469  -0.52338  -0.49944  -0.49887
 Alpha  occ. eigenvalues --   -0.48020  -0.47799  -0.46672  -0.46555  -0.45987
 Alpha  occ. eigenvalues --   -0.45773  -0.45666  -0.45427  -0.43790  -0.43753
 Alpha virt. eigenvalues --    0.20899   0.23092   0.23476   0.24316   0.25691
 Alpha virt. eigenvalues --    0.26397   0.27111   0.27420   0.27905   0.29523
 Alpha virt. eigenvalues --    0.30485   0.31269   0.31687   0.31870   0.32195

 Mulliken charges:
               1
     1  C   -0.302660
     2  C   -0.299590
     3  C   -0.475364
     4  H    0.149339
     5  H    0.154755
     6  H    0.151852
     7  H    0.151603
     8  H    0.154578
     9  H    0.155376
    10  H    0.160104
    11  C   -0.297514
    12  C   -0.308754
    13  C   -0.475582
    14  H    0.149386
    15  H    0.149164
    16  H    0.151601
    17  H    0.161185
    18  H    0.154949
    19  H    0.155324
    20  H    0.160157
    21  C   -0.298394
    22  C   -0.302356
    23  C   -0.481160
    24  H    0.149460
    25  H    0.149668
    26  H    0.153325
    27  H    0.154189
    28  H    0.155671
    29  H    0.155093
    30  H    0.164305
    31  C   -0.298088
    32  C   -0.299681
    33  C   -0.475695
    34  H    0.149257
    35  H    0.149961
    36  H    0.151857
    37  H    0.151913
    38  H    0.155231
    39  H    0.155321
    40  H    0.160213
 Sum of Mulliken charges =  -0.00000

 Dipole moment (field-independent basis, Debye):
    X=             -0.0202    Y=             -0.0085    Z=             -0.0108  Tot=              0.0244
 Quadrupole moment (field-independent basis, Debye-Ang):
   XX=            -85.6123   YY=            -86.2269   ZZ=            -83.0450
   XY=              1.1711   XZ=             -0.3664   YZ=              0.3413

 Normal termination of Gaussian 16 at Thu May  6 02:18:16 2021.
