 Gaussian 16, Revision A.03,
 Gaussian 16:  EM64L-G16RevA.03 25-Dec-2016

 -------------
 #p 6-31g* mp2
 -------------

 ------------------------------------------------------
 Input file generated by CHIRIPA (05-May-2021 14:57:21)
 ------------------------------------------------------
 Symbolic Z-matrix:
 Charge =  0 Multiplicity = 1

                         Standard orientation:
 ---------------------------------------------------------------------
 Center     Atomic      Atomic             Coordinates (Angstroms)
 Number     Number       Type             X           Y           Z
 ---------------------------------------------------------------------
      1          6           0        3.768642    1.689922   -1.053878
      2          6           0        2.701872    1.144427   -1.775651
      3          6           0        2.045004   -0.000650   -1.315356
      4          6           0        2.483077   -0.577028   -0.124067
      5          6           0        3.542793   -0.057209    0.617607
      6          6           0        4.184964    1.088423    0.138346
      7          1           0        4.273205    2.579661   -1.418812
      8          1           0        2.376398    1.609439   -2.701866
      9          1           0        1.216381   -0.443840   -1.854229
     10          1           0        3.844553   -0.543083    1.537544
     11          1           0        5.013142    1.509873    0.700971
     12          7           0        1.795460   -1.789564    0.373266
     13          8           0        2.200558   -2.278504    1.425630
     14          8           0        0.864428   -2.228050   -0.298706
     15          6           0       -1.471584    2.273465    1.432750
     16          6           0       -2.376419    2.545954    0.401467
     17          6           0       -3.005539    1.503169   -0.285085
     18          6           0       -2.705148    0.193863    0.087439
     19          6           0       -1.808260   -0.109838    1.110497
     20          6           0       -1.190887    0.948775    1.783355
     21          1           0       -0.987431    3.089674    1.960761
     22          1           0       -2.596328    3.573754    0.127036
     23          1           0       -3.710109    1.685696   -1.087383
     24          1           0       -1.609241   -1.144649    1.361446
     25          1           0       -0.488607    0.734177    2.583852
     26          7           0       -3.364952   -0.918465   -0.632135
     27          8           0       -3.083254   -2.063312   -0.284845
     28          8           0       -4.151310   -0.624399   -1.529800
 ---------------------------------------------------------------------

 SCF Done:  E(RHF) =  -868.337799997     A.U. after   16 cycles
 E2 =    -0.2600832224D+01 EUMP2 =    -0.87093863222095D+03

 The electronic state is 1-A.
 Alpha  occ. eigenvalues --  -20.61162 -20.61110 -20.60223 -20.60140 -15.86163
 Alpha  occ. eigenvalues --  -15.85241 -11.31523 -11.30759 -11.28120 -11.28053
 Alpha  occ. eigenvalues --  -11.27841 -11.27444 -11.27246 -11.27217 -11.27124
 Alpha  occ. eigenvalues --  -11.27074 -11.26487 -11.26384  -1.60217  -1.59262
 Alpha  occ. eigenvalues --   -1.39763  -1.38803  -1.19700  -1.18980  -1.09100
 Alpha  occ. eigenvalues --   -1.08355  -1.05095  -1.04400  -0.95930  -0.95151
 Alpha  occ. eigenvalues --   -0.86494  -0.85785  -0.82752  -0.81976  -0.77805
 Alpha  occ. eigenvalues --   -0.76976  -0.72364  -0.71582  -0.71442  -0.70803
 Alpha  occ. eigenvalues --   -0.70591  -0.70073  -0.65347  -0.65093  -0.64626
 Alpha  occ. eigenvalues --   -0.64401  -0.62435  -0.61708  -0.55602  -0.54927
 Alpha  occ. eigenvalues --   -0.53448  -0.53182  -0.52736  -0.52477  -0.49152
 Alpha  occ. eigenvalues --   -0.49127  -0.48247  -0.48188  -0.45167  -0.44166
 Alpha  occ. eigenvalues --   -0.37704  -0.36999  -0.36701  -0.36000
 Alpha virt. eigenvalues --    0.04687   0.05540   0.10945   0.11642   0.16189
 Alpha virt. eigenvalues --    0.16968   0.21106   0.21752   0.27027   0.27600
 Alpha virt. eigenvalues --    0.28019   0.28704   0.30677   0.31260   0.32233

 Mulliken charges:
               1
     1  C   -0.171382
     2  C   -0.218935
     3  C   -0.168942
     4  C    0.157319
     5  C   -0.173595
     6  C   -0.219419
     7  H    0.225873
     8  H    0.224974
     9  H    0.279244
    10  H    0.274773
    11  H    0.223302
    12  N    0.484899
    13  O   -0.462955
    14  O   -0.453436
    15  C   -0.170778
    16  C   -0.220578
    17  C   -0.172995
    18  C    0.155125
    19  C   -0.169970
    20  C   -0.224418
    21  H    0.222337
    22  H    0.220010
    23  H    0.273661
    24  H    0.290184
    25  H    0.224676
    26  N    0.487228
    27  O   -0.449847
    28  O   -0.466356
 Sum of Mulliken charges =  -0.00000

 Dipole moment (field-independent basis, Debye):
    X=              4.8073    Y=              7.9124    Z=              0.7266  Tot=              9.2868
 Quadrupole moment (field-independent basis, Debye-Ang):
   XX=           -103.8954   YY=           -107.1441   ZZ=           -100.0015
   XY=             -2.1546   XZ=             -7.3590   YZ=             -1.0606

 Normal termination of Gaussian 16 at Thu May  6 00:09:34 2021.
