 Gaussian 16, Revision A.03,
 Gaussian 16:  EM64L-G16RevA.03 25-Dec-2016

 -------------
 #p 6-31g* mp2
 -------------

 ------------------------------------------------------
 Input file generated by CHIRIPA (05-May-2021 14:57:21)
 ------------------------------------------------------
 Symbolic Z-matrix:
 Charge =  0 Multiplicity = 1

                         Standard orientation:
 ---------------------------------------------------------------------
 Center     Atomic      Atomic             Coordinates (Angstroms)
 Number     Number       Type             X           Y           Z
 ---------------------------------------------------------------------
      1          6           0        3.781300   -2.375754   -0.401916
      2          6           0        4.902976   -1.732089    0.131056
      3          6           0        4.890354   -0.352040    0.354334
      4          6           0        3.734084    0.356650    0.031707
      5          6           0        2.600645   -0.255931   -0.500601
      6          6           0        2.635734   -1.636923   -0.715491
      7          1           0        3.799831   -3.448175   -0.572106
      8          1           0        5.794017   -2.303338    0.375526
      9          1           0        5.744702    0.171604    0.765801
     10          1           0        1.726947    0.340247   -0.734355
     11          1           0        1.763156   -2.134145   -1.129524
     12          7           0        3.708829    1.818145    0.263642
     13          8           0        2.677882    2.419937   -0.028989
     14          8           0        4.720459    2.334201    0.733672
     15          6           0       -6.160528    0.570196    0.173584
     16          6           0       -5.340885    1.129869   -0.812048
     17          6           0       -3.997271    0.757213   -0.913925
     18          6           0       -3.504068   -0.182095   -0.009633
     19          6           0       -4.295414   -0.757628    0.983253
     20          6           0       -5.636102   -0.370110    1.066515
     21          1           0       -7.203143    0.865456    0.245494
     22          1           0       -5.745451    1.860349   -1.506864
     23          1           0       -3.340418    1.174683   -1.667370
     24          1           0       -3.863570   -1.483411    1.661611
     25          1           0       -6.270310   -0.806416    1.832976
     26          7           0       -2.083194   -0.584477   -0.107631
     27          8           0       -1.672787   -1.414032    0.701097
     28          8           0       -1.406823   -0.062690   -0.991316
 ---------------------------------------------------------------------

 SCF Done:  E(RHF) =  -868.340724027     A.U. after   16 cycles
 E2 =    -0.2598404253D+01 EUMP2 =    -0.87093912828036D+03

 The electronic state is 1-A.
 Alpha  occ. eigenvalues --  -20.61457 -20.61436 -20.59738 -20.59719 -15.86449
 Alpha  occ. eigenvalues --  -15.84773 -11.31530 -11.29911 -11.28074 -11.28051
 Alpha  occ. eigenvalues --  -11.27768 -11.27028 -11.27007 -11.26570 -11.26262
 Alpha  occ. eigenvalues --  -11.26244 -11.25580 -11.25302  -1.60498  -1.58812
 Alpha  occ. eigenvalues --   -1.40056  -1.38368  -1.19678  -1.18083  -1.09131
 Alpha  occ. eigenvalues --   -1.07545  -1.05038  -1.03421  -0.96012  -0.94402
 Alpha  occ. eigenvalues --   -0.86450  -0.84853  -0.82853  -0.81218  -0.77928
 Alpha  occ. eigenvalues --   -0.76273  -0.72689  -0.71781  -0.71003  -0.70787
 Alpha  occ. eigenvalues --   -0.70131  -0.69210  -0.65336  -0.65042  -0.63732
 Alpha  occ. eigenvalues --   -0.63422  -0.62387  -0.60740  -0.55558  -0.54008
 Alpha  occ. eigenvalues --   -0.53381  -0.53128  -0.51815  -0.51496  -0.49455
 Alpha  occ. eigenvalues --   -0.49432  -0.47762  -0.47739  -0.45515  -0.43823
 Alpha  occ. eigenvalues --   -0.37644  -0.36626  -0.36115  -0.35016
 Alpha virt. eigenvalues --    0.04581   0.06208   0.11033   0.12615   0.16127
 Alpha virt. eigenvalues --    0.17730   0.21184   0.22752   0.27121   0.28026
 Alpha virt. eigenvalues --    0.28764   0.29613   0.30797   0.32224   0.32307

 Mulliken charges:
               1
     1  C   -0.171880
     2  C   -0.219720
     3  C   -0.172762
     4  C    0.156610
     5  C   -0.173837
     6  C   -0.218745
     7  H    0.221468
     8  H    0.218148
     9  H    0.270917
    10  H    0.291505
    11  H    0.232792
    12  N    0.487862
    13  O   -0.460162
    14  O   -0.465856
    15  C   -0.169710
    16  C   -0.218575
    17  C   -0.169612
    18  C    0.157931
    19  C   -0.170246
    20  C   -0.218649
    21  H    0.227153
    22  H    0.225395
    23  H    0.277251
    24  H    0.275501
    25  H    0.224514
    26  N    0.490404
    27  O   -0.461131
    28  O   -0.466565
 Sum of Mulliken charges =  -0.00000

 Dipole moment (field-independent basis, Debye):
    X=             -5.5349    Y=             -3.7331    Z=             -0.5335  Tot=              6.6975
 Quadrupole moment (field-independent basis, Debye-Ang):
   XX=            -66.3533   YY=           -108.5399   ZZ=           -102.3329
   XY=            -23.4535   XZ=             -3.1805   YZ=             -3.5006

 Normal termination of Gaussian 16 at Thu May  6 03:17:27 2021.
