 Gaussian 16, Revision A.03,
 Gaussian 16:  EM64L-G16RevA.03 25-Dec-2016

 -------------
 #p 6-31g* mp2
 -------------

 ------------------------------------------------------
 Input file generated by CHIRIPA (05-May-2021 14:55:22)
 ------------------------------------------------------
 Symbolic Z-matrix:
 Charge =  0 Multiplicity = 1

                         Standard orientation:
 ---------------------------------------------------------------------
 Center     Atomic      Atomic             Coordinates (Angstroms)
 Number     Number       Type             X           Y           Z
 ---------------------------------------------------------------------
      1          6           0        2.219699    2.472240    0.772797
      2          6           0        1.276064    1.455502    0.593031
      3          6           0        1.658552    0.215868    0.071921
      4          6           0        2.999117    0.026492   -0.260214
      5          6           0        3.962789    1.019774   -0.092830
      6          6           0        3.557692    2.251520    0.429898
      7          1           0        1.913791    3.432155    1.178237
      8          1           0        0.236268    1.624092    0.858453
      9          1           0        0.948761   -0.588658   -0.077590
     10          1           0        4.992009    0.821958   -0.366678
     11          1           0        4.292705    3.039309    0.568422
     12          7           0        3.416008   -1.281678   -0.812746
     13          8           0        4.603210   -1.423395   -1.097537
     14          8           0        2.547672   -2.140535   -0.950568
     15          6           0       -3.488067   -0.907641    0.612772
     16          6           0       -2.100420   -0.675369    1.211497
     17          6           0       -1.588146   -1.880171    2.001319
     18          1           0       -4.193812   -1.145365    1.420457
     19          1           0       -3.454244   -1.789195   -0.042295
     20          1           0       -2.136520    0.206306    1.864156
     21          1           0       -1.397936   -0.437981    0.402312
     22          1           0       -1.523559   -2.763495    1.357759
     23          1           0       -2.266340   -2.115547    2.827910
     24          1           0       -0.594716   -1.692456    2.420508
     25          6           0       -4.013778    0.287879   -0.179748
     26          6           0       -5.401425    0.055606   -0.778473
     27          6           0       -5.913699    1.260409   -1.568294
     28          1           0       -4.047600    1.169433    0.475319
     29          1           0       -3.308033    0.525603   -0.987434
     30          1           0       -6.103908   -0.181781    0.030712
     31          1           0       -5.365324   -0.826068   -1.431132
     32          1           0       -5.235505    1.495785   -2.394885
     33          1           0       -5.978285    2.143733   -0.924736
     34          1           0       -6.907129    1.072694   -1.987484
 ---------------------------------------------------------------------

 SCF Done:  E(RHF) =  -669.535405251     A.U. after   15 cycles
 E2 =    -0.2092030650D+01 EUMP2 =    -0.67162743590149D+03

 The electronic state is 1-A.
 Alpha  occ. eigenvalues --  -20.60728 -20.60723 -15.85778 -11.31121 -11.27694
 Alpha  occ. eigenvalues --  -11.27654 -11.27425 -11.26713 -11.26649 -11.22469
 Alpha  occ. eigenvalues --  -11.21986 -11.21945 -11.21877 -11.21557 -11.21401
 Alpha  occ. eigenvalues --   -1.59802  -1.39356  -1.19291  -1.08990  -1.08691
 Alpha  occ. eigenvalues --   -1.04698  -1.04058  -0.96460  -0.95531  -0.87473
 Alpha  occ. eigenvalues --   -0.86088  -0.82374  -0.80172  -0.78821  -0.77396
 Alpha  occ. eigenvalues --   -0.71999  -0.71125  -0.70417  -0.65632  -0.64941
 Alpha  occ. eigenvalues --   -0.64686  -0.62166  -0.61374  -0.59815  -0.58080
 Alpha  occ. eigenvalues --   -0.55725  -0.55187  -0.53161  -0.53034  -0.52894
 Alpha  occ. eigenvalues --   -0.52747  -0.50389  -0.48760  -0.48755  -0.48445
 Alpha  occ. eigenvalues --   -0.47196  -0.46334  -0.46246  -0.44766  -0.44303
 Alpha  occ. eigenvalues --   -0.37276  -0.36290
 Alpha virt. eigenvalues --    0.05101   0.11351   0.16581   0.19919   0.22692
 Alpha virt. eigenvalues --    0.23750   0.25575   0.25690   0.27180   0.28183
 Alpha virt. eigenvalues --    0.29401   0.29947   0.31151   0.31485   0.31970

 Mulliken charges:
               1
     1  C   -0.171096
     2  C   -0.222556
     3  C   -0.179743
     4  C    0.160551
     5  C   -0.170943
     6  C   -0.218627
     7  H    0.225379
     8  H    0.228624
     9  H    0.281617
    10  H    0.275289
    11  H    0.223158
    12  N    0.488376
    13  O   -0.460623
    14  O   -0.460858
    15  C   -0.297517
    16  C   -0.307565
    17  C   -0.478252
    18  H    0.152472
    19  H    0.154786
    20  H    0.148739
    21  H    0.145018
    22  H    0.163559
    23  H    0.158265
    24  H    0.161529
    25  C   -0.299377
    26  C   -0.300151
    27  C   -0.476142
    28  H    0.147116
    29  H    0.149234
    30  H    0.152954
    31  H    0.154533
    32  H    0.155783
    33  H    0.154370
    34  H    0.162096
 Sum of Mulliken charges =  -0.00000

 Dipole moment (field-independent basis, Debye):
    X=             -1.6536    Y=              4.4894    Z=              1.9650  Tot=              5.1720
 Quadrupole moment (field-independent basis, Debye-Ang):
   XX=            -98.6736   YY=            -94.7523   ZZ=            -96.1460
   XY=             16.2726   XZ=              5.2649   YZ=             -0.5872

 Normal termination of Gaussian 16 at Thu May  6 01:30:02 2021.
