 Gaussian 16, Revision A.03,
 Gaussian 16:  EM64L-G16RevA.03 25-Dec-2016

 -------------
 #p 6-31g* mp2
 -------------

 ------------------------------------------------------
 Input file generated by CHIRIPA (05-May-2021 14:51:09)
 ------------------------------------------------------
 Symbolic Z-matrix:
 Charge =  0 Multiplicity = 1

                         Standard orientation:
 ---------------------------------------------------------------------
 Center     Atomic      Atomic             Coordinates (Angstroms)
 Number     Number       Type             X           Y           Z
 ---------------------------------------------------------------------
      1          6           0        4.128588   -0.505869    0.284023
      2          6           0        4.839705   -0.318409   -1.056557
      3          6           0        6.161188   -1.083286   -1.136787
      4          1           0        4.794001   -0.176995    1.093969
      5          1           0        3.943921   -1.576784    0.446609
      6          1           0        5.021738    0.751952   -1.217205
      7          1           0        4.172448   -0.647588   -1.863419
      8          1           0        5.993741   -2.156796   -1.002107
      9          1           0        6.847857   -0.749304   -0.352221
     10          1           0        6.652701   -0.935232   -2.103408
     11          6           0        2.805990    0.252647    0.379494
     12          6           0        2.094873    0.065187    1.720075
     13          6           0        0.773389    0.830065    1.800304
     14          1           0        2.990657    1.323562    0.216909
     15          1           0        2.140576   -0.076227   -0.430451
     16          1           0        2.762129    0.394367    2.526936
     17          1           0        1.912840   -1.005174    1.880722
     18          1           0        0.086721    0.496082    1.015739
     19          1           0        0.940836    1.903575    1.665625
     20          1           0        0.281877    0.682011    2.766925
     21          6           0       -3.814704   -0.487388   -0.624573
     22          6           0       -4.227178   -1.512399    0.432404
     23          6           0       -4.920965   -2.735074   -0.168863
     24          1           0       -4.704991   -0.167755   -1.183293
     25          1           0       -3.145951   -0.969201   -1.351224
     26          1           0       -4.893851   -1.028436    1.157624
     27          1           0       -3.335833   -1.829487    0.988800
     28          1           0       -4.259488   -3.243577   -0.877717
     29          1           0       -5.826357   -2.437975   -0.707934
     30          1           0       -5.207268   -3.454871    0.604300
     31          6           0       -3.119874    0.740609   -0.038945
     32          6           0       -2.707400    1.765622   -1.095922
     33          6           0       -2.013613    2.988296   -0.494655
     34          1           0       -3.788627    1.222423    0.687706
     35          1           0       -2.229586    0.420977    0.519775
     36          1           0       -3.598745    2.082708   -1.652317
     37          1           0       -2.040727    1.281658   -1.821142
     38          1           0       -1.108220    2.691196    0.044417
     39          1           0       -2.675089    3.496798    0.214200
     40          1           0       -1.727309    3.708094   -1.267818
 ---------------------------------------------------------------------

 SCF Done:  E(RHF) =  -470.732841270     A.U. after   11 cycles
 E2 =    -0.1583264494D+01 EUMP2 =    -0.47231610576376D+03

 The electronic state is 1-A.
 Alpha  occ. eigenvalues --  -11.21671 -11.21635 -11.21581 -11.21534 -11.21458
 Alpha  occ. eigenvalues --  -11.21396 -11.21355 -11.21276 -11.21157 -11.21097
 Alpha  occ. eigenvalues --  -11.21059 -11.20928  -1.08487  -1.08381  -1.03597
 Alpha  occ. eigenvalues --   -1.03470  -0.96047  -0.95920  -0.87068  -0.86938
 Alpha  occ. eigenvalues --   -0.79701  -0.79506  -0.78316  -0.78172  -0.65156
 Alpha  occ. eigenvalues --   -0.64997  -0.61031  -0.60855  -0.59405  -0.59296
 Alpha  occ. eigenvalues --   -0.57674  -0.57511  -0.55409  -0.55152  -0.52737
 Alpha  occ. eigenvalues --   -0.52617  -0.52516  -0.52321  -0.50094  -0.49776
 Alpha  occ. eigenvalues --   -0.48124  -0.47754  -0.46741  -0.46539  -0.45937
 Alpha  occ. eigenvalues --   -0.45766  -0.45701  -0.45406  -0.43837  -0.43730
 Alpha virt. eigenvalues --    0.21339   0.23041   0.23765   0.24799   0.25953
 Alpha virt. eigenvalues --    0.26308   0.27224   0.27559   0.27823   0.29207
 Alpha virt. eigenvalues --    0.30880   0.31214   0.31822   0.31847   0.31998

 Mulliken charges:
               1
     1  C   -0.298310
     2  C   -0.299696
     3  C   -0.475746
     4  H    0.149853
     5  H    0.149558
     6  H    0.152099
     7  H    0.151919
     8  H    0.155204
     9  H    0.155262
    10  H    0.160389
    11  C   -0.298523
    12  C   -0.299768
    13  C   -0.482847
    14  H    0.149864
    15  H    0.149341
    16  H    0.152358
    17  H    0.151962
    18  H    0.160413
    19  H    0.157064
    20  H    0.161316
    21  C   -0.297696
    22  C   -0.299577
    23  C   -0.475643
    24  H    0.149621
    25  H    0.148721
    26  H    0.152036
    27  H    0.151677
    28  H    0.154946
    29  H    0.155212
    30  H    0.160147
    31  C   -0.305847
    32  C   -0.298917
    33  C   -0.481741
    34  H    0.149557
    35  H    0.156799
    36  H    0.151681
    37  H    0.150776
    38  H    0.162714
    39  H    0.154550
    40  H    0.159274
 Sum of Mulliken charges =  -0.00000

 Dipole moment (field-independent basis, Debye):
    X=              0.0534    Y=             -0.0012    Z=              0.0400  Tot=              0.0667
 Quadrupole moment (field-independent basis, Debye-Ang):
   XX=            -84.9918   YY=            -85.1210   ZZ=            -84.7604
   XY=              0.0262   XZ=              0.1086   YZ=              0.0502

 Normal termination of Gaussian 16 at Wed May  5 21:21:45 2021.
