 Gaussian 16, Revision A.03,
 Gaussian 16:  EM64L-G16RevA.03 25-Dec-2016

 -------------
 #p 6-31g* mp2
 -------------

 ------------------------------------------------------
 Input file generated by CHIRIPA (05-May-2021 14:55:21)
 ------------------------------------------------------
 Symbolic Z-matrix:
 Charge =  0 Multiplicity = 1

                         Standard orientation:
 ---------------------------------------------------------------------
 Center     Atomic      Atomic             Coordinates (Angstroms)
 Number     Number       Type             X           Y           Z
 ---------------------------------------------------------------------
      1          6           0        0.454496   -1.768809    1.456894
      2          6           0        0.975439   -2.157472    0.218314
      3          6           0        1.871851   -1.331058   -0.465815
      4          6           0        2.227304   -0.117307    0.120488
      5          6           0        1.725505    0.297850    1.353019
      6          6           0        0.830529   -0.544547    2.019302
      7          1           0       -0.241300   -2.416996    1.981411
      8          1           0        0.685183   -3.107694   -0.220861
      9          1           0        2.290350   -1.607309   -1.426004
     10          1           0        2.033556    1.250937    1.765508
     11          1           0        0.427552   -0.240124    2.981062
     12          7           0        3.175535    0.766041   -0.594323
     13          8           0        3.472894    1.830411   -0.056427
     14          8           0        3.603445    0.377314   -1.678952
     15          6           0       -2.834717   -0.366958   -0.070947
     16          6           0       -2.398159   -1.463057   -1.043557
     17          6           0       -2.772919   -2.864799   -0.561406
     18          1           0       -2.377527   -0.553101    0.910518
     19          1           0       -3.922219   -0.427197    0.074336
     20          1           0       -1.311995   -1.399892   -1.188034
     21          1           0       -2.856289   -1.274174   -2.022871
     22          1           0       -3.856928   -2.951723   -0.435034
     23          1           0       -2.303860   -3.078154    0.404547
     24          1           0       -2.451484   -3.632951   -1.271674
     25          6           0       -2.467105    1.039964   -0.539095
     26          6           0       -2.903663    2.136063    0.433515
     27          6           0       -2.528902    3.537805   -0.048636
     28          1           0       -1.379604    1.100203   -0.684379
     29          1           0       -2.924296    1.226108   -1.520560
     30          1           0       -2.445533    1.947181    1.412829
     31          1           0       -3.989827    2.072898    0.577992
     32          1           0       -2.997962    3.751161   -1.014589
     33          1           0       -1.444894    3.624729   -0.175008
     34          1           0       -2.850337    4.305957    0.661632
 ---------------------------------------------------------------------

 SCF Done:  E(RHF) =  -669.534376754     A.U. after   15 cycles
 E2 =    -0.2095528442D+01 EUMP2 =    -0.67162990519604D+03

 The electronic state is 1-A.
 Alpha  occ. eigenvalues --  -20.60880 -20.60874 -15.85935 -11.31355 -11.27916
 Alpha  occ. eigenvalues --  -11.27897 -11.27638 -11.26948 -11.26899 -11.21976
 Alpha  occ. eigenvalues --  -11.21889 -11.21849 -11.21760 -11.21589 -11.21175
 Alpha  occ. eigenvalues --   -1.59955  -1.39506  -1.19533  -1.08965  -1.08720
 Alpha  occ. eigenvalues --   -1.04942  -1.03913  -0.96384  -0.95737  -0.87395
 Alpha  occ. eigenvalues --   -0.86325  -0.82569  -0.79977  -0.78566  -0.77605
 Alpha  occ. eigenvalues --   -0.72151  -0.71280  -0.70635  -0.65506  -0.65173
 Alpha  occ. eigenvalues --   -0.64877  -0.62293  -0.61324  -0.59769  -0.57985
 Alpha  occ. eigenvalues --   -0.55708  -0.55404  -0.53254  -0.53084  -0.52993
 Alpha  occ. eigenvalues --   -0.52803  -0.50320  -0.48914  -0.48903  -0.48292
 Alpha  occ. eigenvalues --   -0.47022  -0.46117  -0.46007  -0.44900  -0.44143
 Alpha  occ. eigenvalues --   -0.37436  -0.36454
 Alpha virt. eigenvalues --    0.04880   0.11027   0.16253   0.19765   0.22938
 Alpha virt. eigenvalues --    0.23956   0.25621   0.26478   0.26669   0.28227
 Alpha virt. eigenvalues --    0.28684   0.30111   0.31243   0.31802   0.32174

 Mulliken charges:
               1
     1  C   -0.168563
     2  C   -0.219818
     3  C   -0.171857
     4  C    0.158955
     5  C   -0.171619
     6  C   -0.218593
     7  H    0.227740
     8  H    0.227421
     9  H    0.276578
    10  H    0.276343
    11  H    0.224572
    12  N    0.488005
    13  O   -0.459994
    14  O   -0.459714
    15  C   -0.296801
    16  C   -0.305639
    17  C   -0.477017
    18  H    0.143581
    19  H    0.149007
    20  H    0.158844
    21  H    0.154257
    22  H    0.159740
    23  H    0.142603
    24  H    0.158882
    25  C   -0.299400
    26  C   -0.298885
    27  C   -0.476594
    28  H    0.153133
    29  H    0.151107
    30  H    0.146871
    31  H    0.151592
    32  H    0.156641
    33  H    0.158501
    34  H    0.160124
 Sum of Mulliken charges =  -0.00000

 Dipole moment (field-independent basis, Debye):
    X=             -3.2332    Y=             -3.0467    Z=              2.4670  Tot=              5.0816
 Quadrupole moment (field-independent basis, Debye-Ang):
   XX=           -109.8075   YY=            -93.3998   ZZ=            -91.4803
   XY=             -7.3135   XZ=              5.6496   YZ=              2.3059

 Normal termination of Gaussian 16 at Thu May  6 04:37:06 2021.
