 Gaussian 16, Revision A.03,
 Gaussian 16:  EM64L-G16RevA.03 25-Dec-2016

 -------------
 #p 6-31g* mp2
 -------------

 ------------------------------------------------------
 Input file generated by CHIRIPA (05-May-2021 14:55:19)
 ------------------------------------------------------
 Symbolic Z-matrix:
 Charge =  0 Multiplicity = 1

                         Standard orientation:
 ---------------------------------------------------------------------
 Center     Atomic      Atomic             Coordinates (Angstroms)
 Number     Number       Type             X           Y           Z
 ---------------------------------------------------------------------
      1          6           0        2.732012   -2.297875    0.241842
      2          6           0        2.639875   -1.497787    1.385472
      3          6           0        2.734921   -0.106373    1.288094
      4          6           0        2.922887    0.454051    0.025603
      5          6           0        3.018554   -0.316236   -1.132324
      6          6           0        2.920725   -1.705591   -1.011197
      7          1           0        2.657098   -3.377959    0.326712
      8          1           0        2.493323   -1.955017    2.359899
      9          1           0        2.667005    0.536730    2.157130
     10          1           0        3.164696    0.168483   -2.089982
     11          1           0        2.992638   -2.324465   -1.901066
     12          7           0        3.024981    1.925988   -0.090058
     13          8           0        3.190535    2.395299   -1.213880
     14          8           0        2.937515    2.582511    0.945299
     15          6           0       -4.478305   -0.255006   -0.145444
     16          6           0       -5.103005    1.093249    0.215032
     17          6           0       -6.621068    1.108885    0.033280
     18          1           0       -4.726860   -0.500325   -1.187070
     19          1           0       -4.931136   -1.039190    0.476967
     20          1           0       -4.648142    1.874855   -0.406906
     21          1           0       -4.852773    1.335476    1.255861
     22          1           0       -7.092618    0.349804    0.665763
     23          1           0       -6.886824    0.892247   -1.006452
     24          1           0       -7.046920    2.082120    0.296576
     25          6           0       -2.961210   -0.286326    0.031101
     26          6           0       -2.336510   -1.634581   -0.329374
     27          6           0       -0.818446   -1.650217   -0.147624
     28          1           0       -2.508378    0.497858   -0.591309
     29          1           0       -2.712655   -0.041008    1.072726
     30          1           0       -2.586741   -1.876808   -1.370204
     31          1           0       -2.791373   -2.416187    0.292564
     32          1           0       -0.552689   -1.433579    0.892109
     33          1           0       -0.346895   -0.891136   -0.780106
     34          1           0       -0.392594   -2.623452   -0.410919
 ---------------------------------------------------------------------

 SCF Done:  E(RHF) =  -669.534841803     A.U. after   15 cycles
 E2 =    -0.2092747212D+01 EUMP2 =    -0.67162758901502D+03

 The electronic state is 1-A.
 Alpha  occ. eigenvalues --  -20.60757 -20.60751 -15.85811 -11.31168 -11.27742
 Alpha  occ. eigenvalues --  -11.27734 -11.27475 -11.26752 -11.26742 -11.21727
 Alpha  occ. eigenvalues --  -11.21573 -11.21453 -11.21389 -11.21226 -11.21048
 Alpha  occ. eigenvalues --   -1.59833  -1.39387  -1.19345  -1.08745  -1.08482
 Alpha  occ. eigenvalues --   -1.04751  -1.03595  -0.96050  -0.95576  -0.87067
 Alpha  occ. eigenvalues --   -0.86150  -0.82412  -0.79661  -0.78290  -0.77458
 Alpha  occ. eigenvalues --   -0.72030  -0.71156  -0.70461  -0.65117  -0.65002
 Alpha  occ. eigenvalues --   -0.64759  -0.62101  -0.60997  -0.59439  -0.57666
 Alpha  occ. eigenvalues --   -0.55341  -0.55257  -0.53511  -0.52848  -0.52626
 Alpha  occ. eigenvalues --   -0.52167  -0.49998  -0.48788  -0.48785  -0.47948
 Alpha  occ. eigenvalues --   -0.46699  -0.45824  -0.45755  -0.44794  -0.43865
 Alpha  occ. eigenvalues --   -0.37248  -0.36311
 Alpha virt. eigenvalues --    0.05063   0.11278   0.16512   0.21258   0.22820
 Alpha virt. eigenvalues --    0.24217   0.26575   0.27207   0.27495   0.27543
 Alpha virt. eigenvalues --    0.28431   0.30691   0.31312   0.31818   0.32012

 Mulliken charges:
               1
     1  C   -0.166462
     2  C   -0.216793
     3  C   -0.170842
     4  C    0.159439
     5  C   -0.172502
     6  C   -0.216225
     7  H    0.225265
     8  H    0.223124
     9  H    0.275360
    10  H    0.275359
    11  H    0.223231
    12  N    0.487982
    13  O   -0.460805
    14  O   -0.460454
    15  C   -0.298187
    16  C   -0.299946
    17  C   -0.475775
    18  H    0.149459
    19  H    0.148447
    20  H    0.153847
    21  H    0.152261
    22  H    0.154431
    23  H    0.155046
    24  H    0.161053
    25  C   -0.298621
    26  C   -0.301239
    27  C   -0.471234
    28  H    0.152118
    29  H    0.149372
    30  H    0.150922
    31  H    0.149643
    32  H    0.153474
    33  H    0.158515
    34  H    0.150738
 Sum of Mulliken charges =  -0.00000

 Dipole moment (field-independent basis, Debye):
    X=             -0.2984    Y=             -5.1587    Z=              0.4142  Tot=              5.1839
 Quadrupole moment (field-independent basis, Debye-Ang):
   XX=            -98.8873   YY=           -100.1816   ZZ=            -88.9142
   XY=            -15.6591   XZ=              0.3475   YZ=              0.2095

 Normal termination of Gaussian 16 at Thu May  6 19:03:16 2021.
