 Gaussian 16, Revision A.03,
 Gaussian 16:  EM64L-G16RevA.03 25-Dec-2016

 -------------
 #p 6-31g* mp2
 -------------

 ------------------------------------------------------
 Input file generated by CHIRIPA (05-May-2021 14:53:15)
 ------------------------------------------------------
 Symbolic Z-matrix:
 Charge =  0 Multiplicity = 1

                         Standard orientation:
 ---------------------------------------------------------------------
 Center     Atomic      Atomic             Coordinates (Angstroms)
 Number     Number       Type             X           Y           Z
 ---------------------------------------------------------------------
      1          6           0       -3.623193   -0.459368    0.483571
      2          6           0       -2.662374   -1.419801   -0.218125
      3          6           0       -1.414071   -1.719020    0.612538
      4          1           0       -3.096176    0.478355    0.706899
      5          1           0       -3.919385   -0.889360    1.450407
      6          1           0       -2.369166   -0.988758   -1.183965
      7          1           0       -3.191794   -2.355275   -0.439980
      8          1           0       -1.688411   -2.172028    1.570725
      9          1           0       -0.861109   -0.797746    0.822513
     10          1           0       -0.741048   -2.407523    0.092093
     11          6           0       -4.875930   -0.150547   -0.334358
     12          6           0       -5.836749    0.809886    0.367338
     13          6           0       -7.085052    1.109105   -0.463325
     14          1           0       -4.579738    0.279445   -1.301194
     15          1           0       -5.402947   -1.088270   -0.557686
     16          1           0       -5.307329    1.745360    0.589193
     17          1           0       -6.129957    0.378843    1.333178
     18          1           0       -7.638014    0.187831   -0.673300
     19          1           0       -6.810712    1.562112   -1.421512
     20          1           0       -7.758075    1.797608    0.057120
     21          6           0        3.105202    2.748737    0.073028
     22          6           0        4.369875    2.151870    0.102596
     23          6           0        4.500816    0.761833    0.030491
     24          6           0        3.340733   -0.004457   -0.070982
     25          6           0        2.066758    0.560577   -0.102816
     26          6           0        1.959699    1.952589   -0.029403
     27          1           0        3.012759    3.829319    0.129550
     28          1           0        5.261225    2.767679    0.182092
     29          1           0        5.467574    0.273608    0.051284
     30          1           0        1.196527   -0.079538   -0.182630
     31          1           0        0.976247    2.413381   -0.052585
     32          7           0        3.466712   -1.477072   -0.148008
     33          8           0        2.429217   -2.130015   -0.236926
     34          8           0        4.600565   -1.950480   -0.118007
 ---------------------------------------------------------------------

 SCF Done:  E(RHF) =  -669.535547444     A.U. after   15 cycles
 E2 =    -0.2091383114D+01 EUMP2 =    -0.67162693055865D+03

 The electronic state is 1-A.
 Alpha  occ. eigenvalues --  -20.60770 -20.60764 -15.85819 -11.31163 -11.27745
 Alpha  occ. eigenvalues --  -11.27695 -11.27493 -11.26761 -11.26750 -11.21757
 Alpha  occ. eigenvalues --  -11.21633 -11.21541 -11.21483 -11.21207 -11.20965
 Alpha  occ. eigenvalues --   -1.59840  -1.39394  -1.19343  -1.08744  -1.08548
 Alpha  occ. eigenvalues --   -1.04747  -1.03610  -0.96052  -0.95576  -0.87063
 Alpha  occ. eigenvalues --   -0.86142  -0.82413  -0.79672  -0.78366  -0.77454
 Alpha  occ. eigenvalues --   -0.72042  -0.71160  -0.70462  -0.65204  -0.64999
 Alpha  occ. eigenvalues --   -0.64754  -0.62142  -0.60995  -0.59384  -0.57642
 Alpha  occ. eigenvalues --   -0.55455  -0.55176  -0.53077  -0.52892  -0.52643
 Alpha  occ. eigenvalues --   -0.52444  -0.50001  -0.48795  -0.48789  -0.47973
 Alpha  occ. eigenvalues --   -0.46726  -0.45904  -0.45841  -0.44803  -0.43831
 Alpha  occ. eigenvalues --   -0.37329  -0.36347
 Alpha virt. eigenvalues --    0.05062   0.11286   0.16556   0.20522   0.22832
 Alpha virt. eigenvalues --    0.23951   0.26141   0.26940   0.27327   0.27826
 Alpha virt. eigenvalues --    0.29409   0.30968   0.31455   0.31793   0.32113

 Mulliken charges:
               1
     1  C   -0.297033
     2  C   -0.301565
     3  C   -0.481561
     4  H    0.143646
     5  H    0.151103
     6  H    0.149302
     7  H    0.155310
     8  H    0.158081
     9  H    0.140438
    10  H    0.181954
    11  C   -0.298156
    12  C   -0.299337
    13  C   -0.475703
    14  H    0.148393
    15  H    0.151380
    16  H    0.149724
    17  H    0.152723
    18  H    0.156206
    19  H    0.154720
    20  H    0.160234
    21  C   -0.170436
    22  C   -0.218988
    23  C   -0.170222
    24  C    0.157127
    25  C   -0.178146
    26  C   -0.221488
    27  H    0.225481
    28  H    0.223368
    29  H    0.275515
    30  H    0.288575
    31  H    0.222919
    32  N    0.488822
    33  O   -0.462053
    34  O   -0.460330
 Sum of Mulliken charges =  -0.00000

 Dipole moment (field-independent basis, Debye):
    X=             -0.4526    Y=              5.0271    Z=              0.2634  Tot=              5.0543
 Quadrupole moment (field-independent basis, Debye-Ang):
   XX=            -93.3929   YY=            -94.4381   ZZ=            -95.7999
   XY=             18.9616   XZ=              0.6029   YZ=             -0.5752

 Normal termination of Gaussian 16 at Wed May  5 23:30:09 2021.
