 Gaussian 16, Revision A.03,
 Gaussian 16:  EM64L-G16RevA.03 25-Dec-2016

 -------------
 #p 6-31g* mp2
 -------------

 ------------------------------------------------------
 Input file generated by CHIRIPA (05-May-2021 14:51:11)
 ------------------------------------------------------
 Symbolic Z-matrix:
 Charge =  0 Multiplicity = 1

                         Standard orientation:
 ---------------------------------------------------------------------
 Center     Atomic      Atomic             Coordinates (Angstroms)
 Number     Number       Type             X           Y           Z
 ---------------------------------------------------------------------
      1          6           0        3.486265    0.685232    0.356322
      2          6           0        4.136802    1.844468   -0.399297
      3          6           0        4.474516    3.026928    0.509290
      4          1           0        2.572036    1.043951    0.848714
      5          1           0        4.162276    0.352813    1.156261
      6          1           0        3.460359    2.173693   -1.198454
      7          1           0        5.049487    1.482901   -0.890105
      8          1           0        5.168165    2.720261    1.298852
      9          1           0        3.570008    3.414978    0.988751
     10          1           0        4.938622    3.844308   -0.051384
     11          6           0        3.142783   -0.504341   -0.538476
     12          6           0        2.492247   -1.663576    0.217144
     13          6           0        2.154533   -2.846037   -0.691443
     14          1           0        2.466773   -0.171922   -1.338415
     15          1           0        4.057013   -0.863060   -1.030867
     16          1           0        1.579562   -1.302010    0.707951
     17          1           0        3.168690   -1.992802    1.016300
     18          1           0        3.059041   -3.234087   -1.170904
     19          1           0        1.460884   -2.539370   -1.481005
     20          1           0        1.690427   -3.663417   -0.130770
     21          6           0       -2.923575   -0.686414   -0.183536
     22          6           0       -2.243725   -1.518764    0.904113
     23          6           0       -1.465536   -2.707445    0.339086
     24          1           0       -3.602339   -1.330746   -0.758916
     25          1           0       -2.162277   -0.325540   -0.888938
     26          1           0       -3.005909   -1.876809    1.608027
     27          1           0       -1.566644   -0.872334    1.477093
     28          1           0       -0.684604   -2.365268   -0.347689
     29          1           0       -2.132047   -3.375451   -0.216011
     30          1           0       -0.987578   -3.288698    1.133794
     31          6           0       -3.705473    0.505523    0.365690
     32          6           0       -4.385324    1.337873   -0.721959
     33          6           0       -5.163512    2.526554   -0.156933
     34          1           0       -4.466772    0.144649    1.071091
     35          1           0       -3.026710    1.149855    0.941070
     36          1           0       -5.062405    0.691442   -1.294939
     37          1           0       -3.623139    1.695918   -1.425873
     38          1           0       -4.497002    3.194559    0.398164
     39          1           0       -5.944445    2.184376    0.529843
     40          1           0       -5.641471    3.107807   -0.951641
 ---------------------------------------------------------------------

 SCF Done:  E(RHF) =  -470.732571257     A.U. after   11 cycles
 E2 =    -0.1583287764D+01 EUMP2 =    -0.47231585902009D+03

 The electronic state is 1-A.
 Alpha  occ. eigenvalues --  -11.21623 -11.21621 -11.21598 -11.21596 -11.21426
 Alpha  occ. eigenvalues --  -11.21425 -11.21366 -11.21366 -11.21091 -11.21087
 Alpha  occ. eigenvalues --  -11.21028 -11.20974  -1.08464  -1.08427  -1.03596
 Alpha  occ. eigenvalues --   -1.03478  -0.96079  -0.95892  -0.87098  -0.86904
 Alpha  occ. eigenvalues --   -0.79646  -0.79551  -0.78265  -0.78252  -0.65201
 Alpha  occ. eigenvalues --   -0.64983  -0.61248  -0.60679  -0.59455  -0.59251
 Alpha  occ. eigenvalues --   -0.57633  -0.57559  -0.55596  -0.54953  -0.52813
 Alpha  occ. eigenvalues --   -0.52577  -0.52383  -0.52362  -0.50114  -0.49702
 Alpha  occ. eigenvalues --   -0.47959  -0.47852  -0.46705  -0.46541  -0.45833
 Alpha  occ. eigenvalues --   -0.45763  -0.45742  -0.45693  -0.43855  -0.43720
 Alpha virt. eigenvalues --    0.20815   0.23230   0.23532   0.25024   0.26239
 Alpha virt. eigenvalues --    0.26673   0.27070   0.27351   0.27962   0.29305
 Alpha virt. eigenvalues --    0.29354   0.31154   0.31359   0.32209   0.32479

 Mulliken charges:
               1
     1  C   -0.298178
     2  C   -0.299643
     3  C   -0.475696
     4  H    0.149144
     5  H    0.149708
     6  H    0.151776
     7  H    0.152091
     8  H    0.155276
     9  H    0.155048
    10  H    0.160331
    11  C   -0.297955
    12  C   -0.303623
    13  C   -0.477756
    14  H    0.148742
    15  H    0.149946
    16  H    0.154877
    17  H    0.152172
    18  H    0.155550
    19  H    0.154113
    20  H    0.163657
    21  C   -0.298181
    22  C   -0.300834
    23  C   -0.480799
    24  H    0.149901
    25  H    0.148649
    26  H    0.151866
    27  H    0.151489
    28  H    0.164310
    29  H    0.154562
    30  H    0.159438
    31  C   -0.298225
    32  C   -0.299640
    33  C   -0.475705
    34  H    0.149728
    35  H    0.149386
    36  H    0.152045
    37  H    0.151725
    38  H    0.155128
    39  H    0.155271
    40  H    0.160308
 Sum of Mulliken charges =  -0.00000

 Dipole moment (field-independent basis, Debye):
    X=              0.0126    Y=             -0.0252    Z=             -0.0039  Tot=              0.0284
 Quadrupole moment (field-independent basis, Debye-Ang):
   XX=            -83.6913   YY=            -85.9026   ZZ=            -85.1387
   XY=              0.3419   XZ=              0.1413   YZ=             -0.8271

 Normal termination of Gaussian 16 at Wed May  5 23:04:18 2021.
