 Gaussian 16, Revision A.03,
 Gaussian 16:  EM64L-G16RevA.03 25-Dec-2016

 -------------
 #p 6-31g* mp2
 -------------

 ------------------------------------------------------
 Input file generated by CHIRIPA (05-May-2021 14:57:24)
 ------------------------------------------------------
 Symbolic Z-matrix:
 Charge =  0 Multiplicity = 1

                         Standard orientation:
 ---------------------------------------------------------------------
 Center     Atomic      Atomic             Coordinates (Angstroms)
 Number     Number       Type             X           Y           Z
 ---------------------------------------------------------------------
      1          6           0       -6.155780    0.411425   -1.065424
      2          6           0       -5.332966    1.430425   -0.574365
      3          6           0       -4.144779    1.122976    0.095138
      4          6           0       -3.808545   -0.220214    0.256623
      5          6           0       -4.607330   -1.257971   -0.221176
      6          6           0       -5.790979   -0.927161   -0.887576
      7          1           0       -7.077029    0.659332   -1.584305
      8          1           0       -5.613758    2.470869   -0.711031
      9          1           0       -3.489251    1.891996    0.485407
     10          1           0       -4.300890   -2.285855   -0.069630
     11          1           0       -6.428044   -1.720610   -1.267879
     12          7           0       -2.553067   -0.558062    0.963754
     13          8           0       -2.279245   -1.749250    1.093096
     14          8           0       -1.866617    0.374718    1.375270
     15          6           0        2.778428    2.347745    0.123078
     16          6           0        2.074118    1.139252    0.126815
     17          6           0        2.749160   -0.076406   -0.018236
     18          6           0        4.135054   -0.046532   -0.165521
     19          6           0        4.864944    1.141108   -0.173251
     20          6           0        4.169142    2.344821   -0.026679
     21          1           0        2.245976    3.287457    0.236348
     22          1           0        0.994043    1.138491    0.242941
     23          1           0        2.228759   -1.026459   -0.018879
     24          1           0        5.941331    1.109915   -0.290885
     25          1           0        4.718725    3.281834   -0.029952
     26          7           0        4.860680   -1.327172   -0.319885
     27          8           0        6.081896   -1.273877   -0.448061
     28          8           0        4.194470   -2.359984   -0.309777
 ---------------------------------------------------------------------

 SCF Done:  E(RHF) =  -868.339725048     A.U. after   16 cycles
 E2 =    -0.2598368708D+01 EUMP2 =    -0.87093809375522D+03

 The electronic state is 1-A.
 Alpha  occ. eigenvalues --  -20.61668 -20.61600 -20.60027 -20.60010 -15.86658
 Alpha  occ. eigenvalues --  -15.85066 -11.31805 -11.30317 -11.28376 -11.28318
 Alpha  occ. eigenvalues --  -11.28039 -11.27322 -11.27284 -11.26916 -11.26754
 Alpha  occ. eigenvalues --  -11.26595 -11.25949 -11.25675  -1.60696  -1.59099
 Alpha  occ. eigenvalues --   -1.40255  -1.38654  -1.19955  -1.18468  -1.09389
 Alpha  occ. eigenvalues --   -1.07895  -1.05325  -1.03828  -0.96260  -0.94751
 Alpha  occ. eigenvalues --   -0.86733  -0.85239  -0.83100  -0.81566  -0.78177
 Alpha  occ. eigenvalues --   -0.76621  -0.72880  -0.72000  -0.71289  -0.71058
 Alpha  occ. eigenvalues --   -0.70420  -0.69598  -0.65611  -0.65323  -0.64113
 Alpha  occ. eigenvalues --   -0.63801  -0.62676  -0.61153  -0.55827  -0.54375
 Alpha  occ. eigenvalues --   -0.53665  -0.53413  -0.52200  -0.51893  -0.49654
 Alpha  occ. eigenvalues --   -0.49612  -0.48050  -0.48035  -0.45699  -0.44085
 Alpha  occ. eigenvalues --   -0.37918  -0.36918  -0.36475  -0.35430
 Alpha virt. eigenvalues --    0.04308   0.05870   0.10740   0.12213   0.15825
 Alpha virt. eigenvalues --    0.17393   0.20892   0.22421   0.26825   0.27651
 Alpha virt. eigenvalues --    0.28515   0.29168   0.30477   0.31735   0.32227

 Mulliken charges:
               1
     1  C   -0.169883
     2  C   -0.218326
     3  C   -0.171110
     4  C    0.157702
     5  C   -0.170146
     6  C   -0.218391
     7  H    0.227787
     8  H    0.224451
     9  H    0.272767
    10  H    0.277753
    11  H    0.226043
    12  N    0.488844
    13  O   -0.454254
    14  O   -0.469797
    15  C   -0.172431
    16  C   -0.224613
    17  C   -0.172861
    18  C    0.157947
    19  C   -0.172955
    20  C   -0.218721
    21  H    0.222360
    22  H    0.241031
    23  H    0.280461
    24  H    0.272476
    25  H    0.219476
    26  N    0.487956
    27  O   -0.463824
    28  O   -0.459744
 Sum of Mulliken charges =  -0.00000

 Dipole moment (field-independent basis, Debye):
    X=             -7.5106    Y=              5.5461    Z=             -1.9508  Tot=              9.5380
 Quadrupole moment (field-independent basis, Debye-Ang):
   XX=            -89.2702   YY=           -100.3504   ZZ=           -107.8854
   XY=             18.7540   XZ=             11.4651   YZ=              0.5763

 Normal termination of Gaussian 16 at Thu May  6 21:14:50 2021.
