 Gaussian 16, Revision A.03,
 Gaussian 16:  EM64L-G16RevA.03 25-Dec-2016

 -------------
 #p 6-31g* mp2
 -------------

 ------------------------------------------------------
 Input file generated by CHIRIPA (05-May-2021 14:57:25)
 ------------------------------------------------------
 Symbolic Z-matrix:
 Charge =  0 Multiplicity = 1

                         Standard orientation:
 ---------------------------------------------------------------------
 Center     Atomic      Atomic             Coordinates (Angstroms)
 Number     Number       Type             X           Y           Z
 ---------------------------------------------------------------------
      1          6           0       -2.397128    2.382347   -0.670893
      2          6           0       -3.776679    2.267767   -0.871472
      3          6           0       -4.457136    1.110395   -0.481578
      4          6           0       -3.723450    0.082448    0.108608
      5          6           0       -2.348413    0.166631    0.321862
      6          6           0       -1.688648    1.333263   -0.075915
      7          1           0       -1.876570    3.285018   -0.976834
      8          1           0       -4.329467    3.080901   -1.333298
      9          1           0       -5.524647    0.995241   -0.625025
     10          1           0       -1.824469   -0.660783    0.784773
     11          1           0       -0.617219    1.419476    0.081098
     12          7           0       -4.432867   -1.147712    0.525544
     13          8           0       -3.763608   -2.039116    1.043356
     14          8           0       -5.644733   -1.197214    0.326632
     15          6           0        5.548965    1.049027    0.861621
     16          6           0        4.323387    1.054058    1.535753
     17          6           0        3.240308    0.318504    1.045396
     18          6           0        3.418742   -0.414180   -0.127047
     19          6           0        4.627259   -0.439322   -0.821415
     20          6           0        5.696729    0.303667   -0.312742
     21          1           0        6.385041    1.623311    1.249655
     22          1           0        4.205745    1.631995    2.447999
     23          1           0        2.280427    0.304637    1.547246
     24          1           0        4.714110   -1.025122   -1.728451
     25          1           0        6.647367    0.297898   -0.838382
     26          7           0        2.279339   -1.196814   -0.655861
     27          8           0        2.462221   -1.834135   -1.690758
     28          8           0        1.224967   -1.158102   -0.025435
 ---------------------------------------------------------------------

 SCF Done:  E(RHF) =  -868.338936873     A.U. after   16 cycles
 E2 =    -0.2599326011D+01 EUMP2 =    -0.87093826288414D+03

 The electronic state is 1-A.
 Alpha  occ. eigenvalues --  -20.61604 -20.61538 -20.59971 -20.59945 -15.86609
 Alpha  occ. eigenvalues --  -15.85011 -11.31861 -11.30307 -11.28448 -11.28370
 Alpha  occ. eigenvalues --  -11.28098 -11.27401 -11.27361 -11.26962 -11.26750
 Alpha  occ. eigenvalues --  -11.26717 -11.25995 -11.25843  -1.60622  -1.59038
 Alpha  occ. eigenvalues --   -1.40187  -1.38591  -1.20012  -1.18502  -1.09420
 Alpha  occ. eigenvalues --   -1.07936  -1.05397  -1.03876  -0.96278  -0.94764
 Alpha  occ. eigenvalues --   -0.86799  -0.85302  -0.83121  -0.81581  -0.78191
 Alpha  occ. eigenvalues --   -0.76615  -0.72832  -0.71934  -0.71234  -0.71111
 Alpha  occ. eigenvalues --   -0.70359  -0.69636  -0.65666  -0.65390  -0.64156
 Alpha  occ. eigenvalues --   -0.63901  -0.62749  -0.61197  -0.55883  -0.54461
 Alpha  occ. eigenvalues --   -0.53731  -0.53484  -0.52244  -0.51976  -0.49590
 Alpha  occ. eigenvalues --   -0.49549  -0.47999  -0.47978  -0.45603  -0.44009
 Alpha  occ. eigenvalues --   -0.37975  -0.36997  -0.36540  -0.35470
 Alpha virt. eigenvalues --    0.04312   0.05896   0.10634   0.12159   0.15825
 Alpha virt. eigenvalues --    0.17372   0.20478   0.22163   0.25961   0.27120
 Alpha virt. eigenvalues --    0.28609   0.29082   0.30565   0.31219   0.32971

 Mulliken charges:
               1
     1  C   -0.171598
     2  C   -0.219367
     3  C   -0.171713
     4  C    0.157115
     5  C   -0.168771
     6  C   -0.218981
     7  H    0.220593
     8  H    0.219585
     9  H    0.272903
    10  H    0.288258
    11  H    0.222827
    12  N    0.487994
    13  O   -0.457852
    14  O   -0.464404
    15  C   -0.170378
    16  C   -0.218169
    17  C   -0.173819
    18  C    0.158419
    19  C   -0.170405
    20  C   -0.218203
    21  H    0.227843
    22  H    0.224995
    23  H    0.271827
    24  H    0.277538
    25  H    0.225869
    26  N    0.491577
    27  O   -0.452934
    28  O   -0.470747
 Sum of Mulliken charges =  -0.00000

 Dipole moment (field-independent basis, Debye):
    X=              6.9957    Y=              6.8905    Z=              0.3709  Tot=              9.8263
 Quadrupole moment (field-independent basis, Debye-Ang):
   XX=            -91.0640   YY=           -106.7166   ZZ=           -103.1295
   XY=            -10.6080   XZ=             10.6083   YZ=              0.1122

 Normal termination of Gaussian 16 at Thu May  6 05:06:11 2021.
