 Gaussian 16, Revision A.03,
 Gaussian 16:  EM64L-G16RevA.03 25-Dec-2016

 -------------
 #p 6-31g* mp2
 -------------

 ------------------------------------------------------
 Input file generated by CHIRIPA (05-May-2021 14:55:20)
 ------------------------------------------------------
 Symbolic Z-matrix:
 Charge =  0 Multiplicity = 1

                         Standard orientation:
 ---------------------------------------------------------------------
 Center     Atomic      Atomic             Coordinates (Angstroms)
 Number     Number       Type             X           Y           Z
 ---------------------------------------------------------------------
      1          6           0       -3.558438    1.514552    1.443722
      2          6           0       -3.769341    0.184811    1.822974
      3          6           0       -3.297413   -0.863712    1.027718
      4          6           0       -2.615558   -0.544883   -0.145616
      5          6           0       -2.389639    0.769798   -0.550415
      6          6           0       -2.870473    1.802294    0.260325
      7          1           0       -3.928502    2.322844    2.067510
      8          1           0       -4.303292   -0.041626    2.741487
      9          1           0       -3.446752   -1.902128    1.297549
     10          1           0       -1.853879    0.964196   -1.471604
     11          1           0       -2.705223    2.834047   -0.036698
     12          7           0       -2.111235   -1.646424   -0.995713
     13          8           0       -1.513467   -1.339087   -2.024720
     14          8           0       -2.323264   -2.796291   -0.616916
     15          6           0        2.732340    0.711937   -0.028354
     16          6           0        2.553115    1.934819   -0.928590
     17          6           0        1.103377    2.416878   -0.989204
     18          1           0        2.089081   -0.100865   -0.392383
     19          1           0        2.383693    0.956698    0.984529
     20          1           0        2.903280    1.688258   -1.939138
     21          1           0        3.197018    2.744741   -0.562488
     22          1           0        0.746095    2.689795    0.009028
     23          1           0        0.450688    1.627309   -1.375443
     24          1           0        0.998041    3.291843   -1.638203
     25          6           0        4.176273    0.218203    0.042458
     26          6           0        4.355498   -1.004678    0.942693
     27          6           0        5.805236   -1.486738    1.003307
     28          1           0        4.524919   -0.026558   -0.970426
     29          1           0        4.819531    1.031005    0.406487
     30          1           0        3.711595   -1.814601    0.576592
     31          1           0        4.005332   -0.758118    1.953242
     32          1           0        6.457925   -0.697170    1.389546
     33          1           0        6.162518   -1.759655    0.005075
     34          1           0        5.910572   -2.361704    1.652306
 ---------------------------------------------------------------------

 SCF Done:  E(RHF) =  -669.535511346     A.U. after   15 cycles
 E2 =    -0.2091622085D+01 EUMP2 =    -0.67162713343086D+03

 The electronic state is 1-A.
 Alpha  occ. eigenvalues --  -20.60802 -20.60795 -15.85848 -11.31164 -11.27742
 Alpha  occ. eigenvalues --  -11.27714 -11.27480 -11.26750 -11.26726 -11.21633
 Alpha  occ. eigenvalues --  -11.21380 -11.21347 -11.21254 -11.21185 -11.20865
 Alpha  occ. eigenvalues --   -1.59872  -1.39428  -1.19342  -1.08747  -1.08315
 Alpha  occ. eigenvalues --   -1.04740  -1.03473  -0.95951  -0.95585  -0.86982
 Alpha  occ. eigenvalues --   -0.86140  -0.82419  -0.79552  -0.78112  -0.77466
 Alpha  occ. eigenvalues --   -0.72068  -0.71192  -0.70466  -0.64995  -0.64955
 Alpha  occ. eigenvalues --   -0.64733  -0.62123  -0.60852  -0.59316  -0.57546
 Alpha  occ. eigenvalues --   -0.55336  -0.55156  -0.53114  -0.52861  -0.52659
 Alpha  occ. eigenvalues --   -0.52303  -0.49872  -0.48827  -0.48821  -0.47857
 Alpha  occ. eigenvalues --   -0.46548  -0.45665  -0.45557  -0.44832  -0.43715
 Alpha  occ. eigenvalues --   -0.37326  -0.36310
 Alpha virt. eigenvalues --    0.05035   0.11254   0.16523   0.21020   0.23025
 Alpha virt. eigenvalues --    0.24291   0.25972   0.26761   0.27704   0.27999
 Alpha virt. eigenvalues --    0.29116   0.29924   0.31544   0.31682   0.32148

 Mulliken charges:
               1
     1  C   -0.171031
     2  C   -0.218586
     3  C   -0.170948
     4  C    0.157680
     5  C   -0.169552
     6  C   -0.219332
     7  H    0.225476
     8  H    0.223264
     9  H    0.275403
    10  H    0.277969
    11  H    0.224712
    12  N    0.488353
    13  O   -0.462315
    14  O   -0.460040
    15  C   -0.300606
    16  C   -0.298161
    17  C   -0.483119
    18  H    0.157323
    19  H    0.146956
    20  H    0.155582
    21  H    0.150950
    22  H    0.152255
    23  H    0.158524
    24  H    0.158028
    25  C   -0.298425
    26  C   -0.300408
    27  C   -0.475738
    28  H    0.151379
    29  H    0.147839
    30  H    0.156168
    31  H    0.150171
    32  H    0.153758
    33  H    0.156117
    34  H    0.160351
 Sum of Mulliken charges =  -0.00000

 Dipole moment (field-independent basis, Debye):
    X=             -1.7538    Y=              3.8106    Z=              2.9743  Tot=              5.1422
 Quadrupole moment (field-independent basis, Debye-Ang):
   XX=            -86.3898   YY=            -97.1750   ZZ=            -93.4122
   XY=             -7.5142   XZ=             -9.3399   YZ=             -4.0625

 Normal termination of Gaussian 16 at Thu May  6 04:33:46 2021.
