 Gaussian 16, Revision A.03,
 Gaussian 16:  EM64L-G16RevA.03 25-Dec-2016

 -------------
 #p 6-31g* mp2
 -------------

 ------------------------------------------------------
 Input file generated by CHIRIPA (05-May-2021 14:55:20)
 ------------------------------------------------------
 Symbolic Z-matrix:
 Charge =  0 Multiplicity = 1

                         Standard orientation:
 ---------------------------------------------------------------------
 Center     Atomic      Atomic             Coordinates (Angstroms)
 Number     Number       Type             X           Y           Z
 ---------------------------------------------------------------------
      1          6           0       -3.082694   -2.227596    0.954206
      2          6           0       -1.818368   -2.127758    0.364262
      3          6           0       -1.418863   -0.943704   -0.262603
      4          6           0       -2.312950    0.125669   -0.281080
      5          6           0       -3.579250    0.057106    0.297774
      6          6           0       -3.957558   -1.136768    0.919140
      7          1           0       -3.384806   -3.151211    1.439034
      8          1           0       -1.136863   -2.973296    0.389972
      9          1           0       -0.445907   -0.839142   -0.727190
     10          1           0       -4.236742    0.916982    0.256104
     11          1           0       -4.940062   -1.211444    1.376473
     12          7           0       -1.901232    1.384372   -0.941803
     13          8           0       -2.707385    2.312136   -0.944538
     14          8           0       -0.780171    1.419345   -1.444432
     15          6           0        3.557249   -0.406046   -0.029959
     16          6           0        2.957088   -1.790298   -0.278236
     17          6           0        3.989368   -2.801069   -0.778770
     18          1           0        4.011625   -0.038198   -0.960106
     19          1           0        4.371611   -0.493161    0.702584
     20          1           0        2.143188   -1.700388   -1.009055
     21          1           0        2.503920   -2.154812    0.652561
     22          1           0        4.796998   -2.920233   -0.049293
     23          1           0        4.434216   -2.463228   -1.720351
     24          1           0        3.538889   -3.783770   -0.949724
     25          6           0        2.537613    0.615405    0.470751
     26          6           0        3.137774    1.999656    0.719027
     27          6           0        2.105494    3.010427    1.219561
     28          1           0        1.723251    0.702519   -0.261793
     29          1           0        2.083237    0.247556    1.400899
     30          1           0        3.590943    2.364171   -0.211769
     31          1           0        3.951674    1.909746    1.449848
     32          1           0        1.660646    2.672586    2.161143
     33          1           0        1.297865    3.129592    0.490086
     34          1           0        2.555973    3.993129    1.390516
 ---------------------------------------------------------------------

 SCF Done:  E(RHF) =  -669.536519212     A.U. after   15 cycles
 E2 =    -0.2092715209D+01 EUMP2 =    -0.67162923442147D+03

 The electronic state is 1-A.
 Alpha  occ. eigenvalues --  -20.60960 -20.60954 -15.85975 -11.31223 -11.27794
 Alpha  occ. eigenvalues --  -11.27757 -11.27524 -11.26790 -11.26763 -11.21916
 Alpha  occ. eigenvalues --  -11.21299 -11.21261 -11.21045 -11.20893 -11.20277
 Alpha  occ. eigenvalues --   -1.60008  -1.39568  -1.19393  -1.08813  -1.08225
 Alpha  occ. eigenvalues --   -1.04777  -1.03304  -0.95722  -0.95662  -0.86745
 Alpha  occ. eigenvalues --   -0.86185  -0.82503  -0.79459  -0.78052  -0.77497
 Alpha  occ. eigenvalues --   -0.72205  -0.71310  -0.70509  -0.65064  -0.64900
 Alpha  occ. eigenvalues --   -0.64717  -0.62128  -0.60686  -0.59165  -0.57336
 Alpha  occ. eigenvalues --   -0.55297  -0.54975  -0.53116  -0.52882  -0.52462
 Alpha  occ. eigenvalues --   -0.52140  -0.49688  -0.48956  -0.48937  -0.47747
 Alpha  occ. eigenvalues --   -0.46502  -0.45618  -0.45468  -0.44721  -0.43542
 Alpha  occ. eigenvalues --   -0.37375  -0.36371
 Alpha virt. eigenvalues --    0.04923   0.11256   0.16400   0.20132   0.23171
 Alpha virt. eigenvalues --    0.24414   0.24950   0.26664   0.27888   0.28249
 Alpha virt. eigenvalues --    0.29773   0.31187   0.31506   0.31887   0.32279

 Mulliken charges:
               1
     1  C   -0.170273
     2  C   -0.221620
     3  C   -0.173405
     4  C    0.157285
     5  C   -0.170153
     6  C   -0.219055
     7  H    0.225745
     8  H    0.224747
     9  H    0.283750
    10  H    0.275494
    11  H    0.223513
    12  N    0.489566
    13  O   -0.458363
    14  O   -0.463502
    15  C   -0.296882
    16  C   -0.303122
    17  C   -0.474782
    18  H    0.152706
    19  H    0.148897
    20  H    0.147022
    21  H    0.147074
    22  H    0.156870
    23  H    0.158425
    24  H    0.156791
    25  C   -0.314296
    26  C   -0.297328
    27  C   -0.481521
    28  H    0.172047
    29  H    0.143234
    30  H    0.153791
    31  H    0.147629
    32  H    0.149453
    33  H    0.172293
    34  H    0.157972
 Sum of Mulliken charges =  -0.00000

 Dipole moment (field-independent basis, Debye):
    X=             -1.5472    Y=             -4.3091    Z=              2.2122  Tot=              5.0849
 Quadrupole moment (field-independent basis, Debye-Ang):
   XX=            -84.5795   YY=            -96.2016   ZZ=            -96.0217
   XY=              8.6505   XZ=             -6.2225   YZ=              1.2013

 Normal termination of Gaussian 16 at Thu May  6 12:26:36 2021.
