 Gaussian 16, Revision A.03,
 Gaussian 16:  EM64L-G16RevA.03 25-Dec-2016

 -------------
 #p 6-31g* mp2
 -------------

 ------------------------------------------------------
 Input file generated by CHIRIPA (05-May-2021 14:51:12)
 ------------------------------------------------------
 Symbolic Z-matrix:
 Charge =  0 Multiplicity = 1

                         Standard orientation:
 ---------------------------------------------------------------------
 Center     Atomic      Atomic             Coordinates (Angstroms)
 Number     Number       Type             X           Y           Z
 ---------------------------------------------------------------------
      1          6           0        3.509189    0.411501    0.052741
      2          6           0        2.661759    0.803178    1.263706
      3          6           0        1.457687    1.667386    0.888007
      4          1           0        3.854115    1.322374   -0.455472
      5          1           0        2.879326   -0.128818   -0.667483
      6          1           0        3.293363    1.341390    1.982053
      7          1           0        2.318969   -0.108732    1.769206
      8          1           0        0.804275    1.134866    0.189383
      9          1           0        1.784205    2.593227    0.403439
     10          1           0        0.865802    1.935844    1.768610
     11          6           0        4.716610   -0.452578    0.412230
     12          6           0        5.564039   -0.844256   -0.798735
     13          6           0        6.768111   -1.708463   -0.423036
     14          1           0        5.346472    0.087741    1.132454
     15          1           0        4.371683   -1.363451    0.920443
     16          1           0        5.906829    0.067655   -1.304235
     17          1           0        4.932436   -1.382467   -1.517081
     18          1           0        6.441594   -2.634304    0.061532
     19          1           0        7.421524   -1.175943    0.275588
     20          1           0        7.359997   -1.976921   -1.303639
     21          6           0       -3.828971    0.727920   -0.281758
     22          6           0       -2.379670    0.767116   -0.767528
     23          6           0       -1.825745    2.189171   -0.860900
     24          1           0       -4.453455    1.322224   -0.962763
     25          1           0       -3.891655    1.212201    0.702589
     26          1           0       -2.319499    0.281676   -1.750047
     27          1           0       -1.758595    0.172492   -0.085395
     28          1           0       -1.856699    2.679666    0.117393
     29          1           0       -2.420789    2.789471   -1.556717
     30          1           0       -0.788488    2.193859   -1.210096
     31          6           0       -4.396827   -0.686844   -0.183214
     32          6           0       -5.846129   -0.726038    0.302557
     33          6           0       -6.400054   -2.148094    0.395929
     34          1           0       -4.334143   -1.171123   -1.167560
     35          1           0       -3.772344   -1.281147    0.497791
     36          1           0       -6.467203   -0.131414   -0.379576
     37          1           0       -5.906300   -0.240598    1.285076
     38          1           0       -5.805010   -2.748394    1.091746
     39          1           0       -6.369098   -2.638589   -0.582364
     40          1           0       -7.437310   -2.152782    0.745123
 ---------------------------------------------------------------------

 SCF Done:  E(RHF) =  -470.732649105     A.U. after   11 cycles
 E2 =    -0.1582836168D+01 EUMP2 =    -0.47231548527343D+03

 The electronic state is 1-A.
 Alpha  occ. eigenvalues --  -11.21599 -11.21593 -11.21574 -11.21572 -11.21400
 Alpha  occ. eigenvalues --  -11.21389 -11.21341 -11.21329 -11.21069 -11.21067
 Alpha  occ. eigenvalues --  -11.21007 -11.20939  -1.08430  -1.08402  -1.03557
 Alpha  occ. eigenvalues --   -1.03464  -0.96047  -0.95869  -0.87084  -0.86864
 Alpha  occ. eigenvalues --   -0.79625  -0.79524  -0.78239  -0.78224  -0.65090
 Alpha  occ. eigenvalues --   -0.65009  -0.61046  -0.60801  -0.59376  -0.59318
 Alpha  occ. eigenvalues --   -0.57756  -0.57409  -0.55370  -0.55102  -0.52845
 Alpha  occ. eigenvalues --   -0.52628  -0.52439  -0.52124  -0.49917  -0.49838
 Alpha  occ. eigenvalues --   -0.47977  -0.47777  -0.46653  -0.46553  -0.45778
 Alpha  occ. eigenvalues --   -0.45763  -0.45719  -0.45661  -0.43786  -0.43721
 Alpha virt. eigenvalues --    0.21886   0.23029   0.23486   0.24927   0.26435
 Alpha virt. eigenvalues --    0.26703   0.26992   0.27454   0.27644   0.29293
 Alpha virt. eigenvalues --    0.30334   0.31200   0.31499   0.32066   0.32224

 Mulliken charges:
               1
     1  C   -0.298401
     2  C   -0.300189
     3  C   -0.479125
     4  H    0.149559
     5  H    0.149336
     6  H    0.151597
     7  H    0.151423
     8  H    0.162021
     9  H    0.154872
    10  H    0.159564
    11  C   -0.298204
    12  C   -0.299657
    13  C   -0.475701
    14  H    0.149556
    15  H    0.149606
    16  H    0.151927
    17  H    0.151921
    18  H    0.155168
    19  H    0.155179
    20  H    0.160244
    21  C   -0.298015
    22  C   -0.302795
    23  C   -0.477103
    24  H    0.149779
    25  H    0.149612
    26  H    0.151422
    27  H    0.152961
    28  H    0.156092
    29  H    0.154323
    30  H    0.163419
    31  C   -0.298297
    32  C   -0.299640
    33  C   -0.475690
    34  H    0.149398
    35  H    0.149461
    36  H    0.151965
    37  H    0.151932
    38  H    0.155106
    39  H    0.155138
    40  H    0.160238
 Sum of Mulliken charges =  -0.00000

 Dipole moment (field-independent basis, Debye):
    X=              0.0030    Y=              0.0150    Z=             -0.0014  Tot=              0.0154
 Quadrupole moment (field-independent basis, Debye-Ang):
   XX=            -85.6283   YY=            -85.3939   ZZ=            -83.8966
   XY=              0.5211   XZ=              0.2992   YZ=              0.2354

 Normal termination of Gaussian 16 at Wed May  5 15:17:04 2021.
