 Gaussian 16, Revision A.03,
 Gaussian 16:  EM64L-G16RevA.03 25-Dec-2016

 -------------
 #p 6-31g* mp2
 -------------

 ------------------------------------------------------
 Input file generated by CHIRIPA (05-May-2021 14:53:14)
 ------------------------------------------------------
 Symbolic Z-matrix:
 Charge =  0 Multiplicity = 1

                         Standard orientation:
 ---------------------------------------------------------------------
 Center     Atomic      Atomic             Coordinates (Angstroms)
 Number     Number       Type             X           Y           Z
 ---------------------------------------------------------------------
      1          6           0       -2.221763    1.387450    0.246444
      2          6           0       -1.053551    2.150203   -0.379234
      3          6           0       -0.468722    3.207821    0.557362
      4          1           0       -3.006754    2.101224    0.531507
      5          1           0       -1.882408    0.908581    1.175378
      6          1           0       -1.394651    2.626348   -1.307432
      7          1           0       -0.271331    1.434510   -0.663015
      8          1           0       -0.101711    2.745342    1.479326
      9          1           0       -1.231414    3.943952    0.831247
     10          1           0        0.365064    3.740998    0.090046
     11          6           0       -2.817068    0.326675   -0.677729
     12          6           0       -3.985280   -0.436078   -0.052051
     13          6           0       -4.570110   -1.493696   -0.988647
     14          1           0       -3.156424    0.805544   -1.606663
     15          1           0       -2.032077   -0.387099   -0.962792
     16          1           0       -4.767501    0.279615    0.231730
     17          1           0       -3.644180   -0.912224    0.876147
     18          1           0       -3.807418   -2.229827   -1.262532
     19          1           0       -4.937121   -1.031217   -1.910611
     20          1           0       -5.403895   -2.026873   -0.521331
     21          6           0        0.207224   -2.052150    1.331680
     22          6           0        0.904245   -2.580805    0.240256
     23          6           0        1.882092   -1.823783   -0.411879
     24          6           0        2.138547   -0.535919    0.056016
     25          6           0        1.461099    0.018763    1.140766
     26          6           0        0.487382   -0.756338    1.777666
     27          1           0       -0.550788   -2.647245    1.832357
     28          1           0        0.688767   -3.586855   -0.108280
     29          1           0        2.436711   -2.208370   -1.259173
     30          1           0        1.697995    1.024748    1.465255
     31          1           0       -0.052360   -0.343190    2.625034
     32          7           0        3.171565    0.275077   -0.626305
     33          8           0        3.378846    1.407066   -0.194714
     34          8           0        3.754401   -0.236611   -1.579780
 ---------------------------------------------------------------------

 SCF Done:  E(RHF) =  -669.534084055     A.U. after   15 cycles
 E2 =    -0.2095981018D+01 EUMP2 =    -0.67163006507332D+03

 The electronic state is 1-A.
 Alpha  occ. eigenvalues --  -20.60858 -20.60851 -15.85909 -11.31293 -11.27884
 Alpha  occ. eigenvalues --  -11.27844 -11.27647 -11.26900 -11.26884 -11.22063
 Alpha  occ. eigenvalues --  -11.21694 -11.21658 -11.21608 -11.21525 -11.21252
 Alpha  occ. eigenvalues --   -1.59930  -1.39482  -1.19501  -1.08889  -1.08717
 Alpha  occ. eigenvalues --   -1.04917  -1.03819  -0.96289  -0.95700  -0.87304
 Alpha  occ. eigenvalues --   -0.86294  -0.82540  -0.79894  -0.78543  -0.77575
 Alpha  occ. eigenvalues --   -0.72127  -0.71261  -0.70605  -0.65430  -0.65140
 Alpha  occ. eigenvalues --   -0.64909  -0.62329  -0.61184  -0.59631  -0.57875
 Alpha  occ. eigenvalues --   -0.55652  -0.55357  -0.53210  -0.53013  -0.52940
 Alpha  occ. eigenvalues --   -0.52671  -0.50232  -0.48888  -0.48878  -0.48205
 Alpha  occ. eigenvalues --   -0.46960  -0.46080  -0.45986  -0.44872  -0.44052
 Alpha  occ. eigenvalues --   -0.37436  -0.36417
 Alpha virt. eigenvalues --    0.04928   0.11051   0.16314   0.19951   0.22947
 Alpha virt. eigenvalues --    0.23690   0.25541   0.26477   0.26791   0.28533
 Alpha virt. eigenvalues --    0.29275   0.30236   0.31225   0.31596   0.31721

 Mulliken charges:
               1
     1  C   -0.296427
     2  C   -0.304065
     3  C   -0.476663
     4  H    0.149649
     5  H    0.141236
     6  H    0.155096
     7  H    0.156209
     8  H    0.140635
     9  H    0.156024
    10  H    0.172847
    11  C   -0.300085
    12  C   -0.298207
    13  C   -0.475456
    14  H    0.151595
    15  H    0.152047
    16  H    0.153509
    17  H    0.143846
    18  H    0.152538
    19  H    0.157986
    20  H    0.159932
    21  C   -0.171366
    22  C   -0.219347
    23  C   -0.171114
    24  C    0.159484
    25  C   -0.173838
    26  C   -0.215919
    27  H    0.226693
    28  H    0.224218
    29  H    0.276247
    30  H    0.280506
    31  H    0.224220
    32  N    0.488077
    33  O   -0.459992
    34  O   -0.460116
 Sum of Mulliken charges =  -0.00000

 Dipole moment (field-independent basis, Debye):
    X=             -3.5355    Y=             -2.8198    Z=              2.2955  Tot=              5.0716
 Quadrupole moment (field-independent basis, Debye-Ang):
   XX=           -110.9354   YY=            -89.0087   ZZ=            -93.1672
   XY=             -5.8020   XZ=              4.4986   YZ=              0.3283

 Normal termination of Gaussian 16 at Thu May  6 04:14:48 2021.
