 Gaussian 16, Revision A.03,
 Gaussian 16:  EM64L-G16RevA.03 25-Dec-2016

 -------------
 #p 6-31g* mp2
 -------------

 ------------------------------------------------------
 Input file generated by CHIRIPA (05-May-2021 14:53:16)
 ------------------------------------------------------
 Symbolic Z-matrix:
 Charge =  0 Multiplicity = 1

                         Standard orientation:
 ---------------------------------------------------------------------
 Center     Atomic      Atomic             Coordinates (Angstroms)
 Number     Number       Type             X           Y           Z
 ---------------------------------------------------------------------
      1          6           0       -3.900191    0.377781   -0.135559
      2          6           0       -5.408010    0.318749    0.111390
      3          6           0       -6.044441    1.704957    0.217109
      4          1           0       -3.423469    0.940558    0.678667
      5          1           0       -3.708729    0.941567   -1.059075
      6          1           0       -5.596644   -0.245943    1.033429
      7          1           0       -5.881175   -0.244116   -0.703418
      8          1           0       -5.885550    2.273155   -0.705120
      9          1           0       -5.599402    2.271317    1.041595
     10          1           0       -7.122578    1.639317    0.393661
     11          6           0       -3.249595   -1.000182   -0.243589
     12          6           0       -1.741776   -0.941150   -0.490539
     13          6           0       -1.105345   -2.327358   -0.596257
     14          1           0       -3.441057   -1.563968    0.679927
     15          1           0       -3.726317   -1.562958   -1.057815
     16          1           0       -1.268611   -0.378284    0.324270
     17          1           0       -1.553142   -0.376457   -1.412578
     18          1           0       -1.550384   -2.893718   -1.420744
     19          1           0       -1.264236   -2.895555    0.325972
     20          1           0       -0.027208   -2.261718   -0.772809
     21          6           0        3.049694    2.711521   -0.306862
     22          6           0        3.529781    1.776043   -1.229314
     23          6           0        3.392950    0.405858   -0.987616
     24          6           0        2.768058    0.004490    0.192089
     25          6           0        2.279352    0.912124    1.130523
     26          6           0        2.427110    2.277341    0.868042
     27          1           0        3.160233    3.773984   -0.502691
     28          1           0        4.013713    2.110345   -2.142603
     29          1           0        3.755455   -0.339893   -1.684654
     30          1           0        1.801425    0.548452    2.032047
     31          1           0        2.053308    3.001589    1.586222
     32          7           0        2.617417   -1.443434    0.458966
     33          8           0        2.063105   -1.771356    1.505791
     34          8           0        3.056510   -2.222980   -0.383735
 ---------------------------------------------------------------------

 SCF Done:  E(RHF) =  -669.535966784     A.U. after   15 cycles
 E2 =    -0.2091699623D+01 EUMP2 =    -0.67162766640741D+03

 The electronic state is 1-A.
 Alpha  occ. eigenvalues --  -20.60874 -20.60868 -15.85896 -11.31245 -11.27813
 Alpha  occ. eigenvalues --  -11.27805 -11.27547 -11.26821 -11.26811 -11.21481
 Alpha  occ. eigenvalues --  -11.21224 -11.21162 -11.21039 -11.21031 -11.20239
 Alpha  occ. eigenvalues --   -1.59938  -1.39490  -1.19412  -1.08814  -1.08161
 Alpha  occ. eigenvalues --   -1.04812  -1.03198  -0.95658  -0.95620  -0.86632
 Alpha  occ. eigenvalues --   -0.86212  -0.82487  -0.79277  -0.77974  -0.77539
 Alpha  occ. eigenvalues --   -0.72121  -0.71281  -0.70522  -0.65068  -0.64818
 Alpha  occ. eigenvalues --   -0.64792  -0.62161  -0.60590  -0.59014  -0.57240
 Alpha  occ. eigenvalues --   -0.55316  -0.54904  -0.53143  -0.52906  -0.52279
 Alpha  occ. eigenvalues --   -0.52052  -0.49562  -0.48884  -0.48876  -0.47585
 Alpha  occ. eigenvalues --   -0.46325  -0.45513  -0.45433  -0.44886  -0.43445
 Alpha  occ. eigenvalues --   -0.37388  -0.36409
 Alpha virt. eigenvalues --    0.04975   0.11208   0.16463   0.21332   0.23081
 Alpha virt. eigenvalues --    0.24516   0.26752   0.27275   0.27637   0.28186
 Alpha virt. eigenvalues --    0.28429   0.30792   0.31580   0.31964   0.32301

 Mulliken charges:
               1
     1  C   -0.297270
     2  C   -0.299450
     3  C   -0.475359
     4  H    0.146842
     5  H    0.147728
     6  H    0.152513
     7  H    0.152259
     8  H    0.154174
     9  H    0.153726
    10  H    0.160132
    11  C   -0.298036
    12  C   -0.300762
    13  C   -0.475321
    14  H    0.150978
    15  H    0.149494
    16  H    0.148305
    17  H    0.147717
    18  H    0.151513
    19  H    0.161616
    20  H    0.166127
    21  C   -0.170520
    22  C   -0.218458
    23  C   -0.171004
    24  C    0.158152
    25  C   -0.170663
    26  C   -0.218358
    27  H    0.225860
    28  H    0.223666
    29  H    0.275797
    30  H    0.275553
    31  H    0.223670
    32  N    0.487490
    33  O   -0.458221
    34  O   -0.459888
 Sum of Mulliken charges =  -0.00000

 Dipole moment (field-independent basis, Debye):
    X=              0.6557    Y=              5.0282    Z=             -0.8993  Tot=              5.1499
 Quadrupole moment (field-independent basis, Debye-Ang):
   XX=            -92.0845   YY=            -95.7231   ZZ=            -90.5971
   XY=             14.5307   XZ=             -4.7139   YZ=              1.8068

 Normal termination of Gaussian 16 at Thu May  6 18:51:26 2021.
