 Gaussian 16, Revision A.03,
 Gaussian 16:  EM64L-G16RevA.03 25-Dec-2016

 -------------
 #p 6-31g* mp2
 -------------

 ------------------------------------------------------
 Input file generated by CHIRIPA (05-May-2021 14:53:15)
 ------------------------------------------------------
 Symbolic Z-matrix:
 Charge =  0 Multiplicity = 1

                         Standard orientation:
 ---------------------------------------------------------------------
 Center     Atomic      Atomic             Coordinates (Angstroms)
 Number     Number       Type             X           Y           Z
 ---------------------------------------------------------------------
      1          6           0        4.750487   -0.099455   -0.256592
      2          6           0        5.710290    0.944405    0.315352
      3          6           0        6.934012    1.171717   -0.572695
      4          1           0        5.288407   -1.047768   -0.391834
      5          1           0        4.424987    0.220560   -1.256109
      6          1           0        6.032803    0.623196    1.314064
      7          1           0        5.169974    1.890290    0.449427
      8          1           0        6.630154    1.515858   -1.566596
      9          1           0        7.497886    0.241564   -0.697046
     10          1           0        7.606709    1.921651   -0.144983
     11          6           0        3.522210   -0.337735    0.619926
     12          6           0        2.562407   -1.381595    0.047982
     13          6           0        1.338685   -1.608907    0.936030
     14          1           0        3.847710   -0.657750    1.619444
     15          1           0        2.984290    0.610578    0.755168
     16          1           0        3.102724   -2.327480   -0.086093
     17          1           0        2.239894   -1.060386   -0.950730
     18          1           0        0.774812   -0.678754    1.060380
     19          1           0        1.642543   -1.953048    1.929930
     20          1           0        0.665988   -2.358841    0.508318
     21          6           0       -3.665512    2.636544    0.170432
     22          6           0       -2.429041    2.199529   -0.316064
     23          6           0       -2.177515    0.835733   -0.493100
     24          6           0       -3.189566   -0.067604   -0.172125
     25          6           0       -4.431764    0.336667    0.314495
     26          6           0       -4.661173    1.705360    0.483606
     27          1           0       -3.852313    3.697877    0.304878
     28          1           0       -1.653944    2.920441   -0.560108
     29          1           0       -1.229343    0.469935   -0.868041
     30          1           0       -5.184878   -0.405777    0.549046
     31          1           0       -5.622382    2.041872    0.861602
     32          7           0       -2.934993   -1.513986   -0.355350
     33          8           0       -3.843109   -2.289730   -0.065207
     34          8           0       -1.832164   -1.844529   -0.785636
 ---------------------------------------------------------------------

 SCF Done:  E(RHF) =  -669.535904355     A.U. after   15 cycles
 E2 =    -0.2091313661D+01 EUMP2 =    -0.67162721801688D+03

 The electronic state is 1-A.
 Alpha  occ. eigenvalues --  -20.60867 -20.60857 -15.85899 -11.31244 -11.27808
 Alpha  occ. eigenvalues --  -11.27804 -11.27552 -11.26826 -11.26816 -11.21524
 Alpha  occ. eigenvalues --  -11.21224 -11.21145 -11.21087 -11.21018 -11.20253
 Alpha  occ. eigenvalues --   -1.59926  -1.39482  -1.19414  -1.08814  -1.08187
 Alpha  occ. eigenvalues --   -1.04815  -1.03208  -0.95691  -0.95601  -0.86655
 Alpha  occ. eigenvalues --   -0.86213  -0.82488  -0.79288  -0.77995  -0.77533
 Alpha  occ. eigenvalues --   -0.72132  -0.71241  -0.70523  -0.65072  -0.64858
 Alpha  occ. eigenvalues --   -0.64796  -0.62167  -0.60621  -0.59005  -0.57222
 Alpha  occ. eigenvalues --   -0.55323  -0.54955  -0.53145  -0.52907  -0.52268
 Alpha  occ. eigenvalues --   -0.52058  -0.49631  -0.48883  -0.48868  -0.47585
 Alpha  occ. eigenvalues --   -0.46359  -0.45532  -0.45477  -0.44884  -0.43397
 Alpha  occ. eigenvalues --   -0.37392  -0.36415
 Alpha virt. eigenvalues --    0.04967   0.11192   0.16448   0.20940   0.22941
 Alpha virt. eigenvalues --    0.24184   0.26588   0.27386   0.27672   0.27835
 Alpha virt. eigenvalues --    0.29069   0.30884   0.31491   0.32031   0.32630

 Mulliken charges:
               1
     1  C   -0.297742
     2  C   -0.299024
     3  C   -0.475469
     4  H    0.150748
     5  H    0.147873
     6  H    0.152141
     7  H    0.149392
     8  H    0.154412
     9  H    0.155893
    10  H    0.159403
    11  C   -0.296826
    12  C   -0.300431
    13  C   -0.479651
    14  H    0.149534
    15  H    0.143610
    16  H    0.152884
    17  H    0.150204
    18  H    0.143300
    19  H    0.150307
    20  H    0.186171
    21  C   -0.170604
    22  C   -0.218807
    23  C   -0.171872
    24  C    0.158355
    25  C   -0.170763
    26  C   -0.218491
    27  H    0.225814
    28  H    0.223574
    29  H    0.277646
    30  H    0.275750
    31  H    0.223672
    32  N    0.489427
    33  O   -0.459656
    34  O   -0.460775
 Sum of Mulliken charges =  -0.00000

 Dipole moment (field-independent basis, Debye):
    X=             -1.0659    Y=              4.9594    Z=              0.6055  Tot=              5.1087
 Quadrupole moment (field-independent basis, Debye-Ang):
   XX=            -85.8137   YY=            -95.0109   ZZ=            -95.4446
   XY=            -16.1833   XZ=             -3.0708   YZ=             -1.5185

 Normal termination of Gaussian 16 at Thu May  6 05:52:58 2021.
