 Gaussian 16, Revision A.03,
 Gaussian 16:  EM64L-G16RevA.03 25-Dec-2016

 -------------
 #p 6-31g* mp2
 -------------

 ------------------------------------------------------
 Input file generated by CHIRIPA (05-May-2021 14:55:23)
 ------------------------------------------------------
 Symbolic Z-matrix:
 Charge =  0 Multiplicity = 1

                         Standard orientation:
 ---------------------------------------------------------------------
 Center     Atomic      Atomic             Coordinates (Angstroms)
 Number     Number       Type             X           Y           Z
 ---------------------------------------------------------------------
      1          6           0        2.222640   -2.101513   -1.104084
      2          6           0        3.517688   -1.910343   -0.611311
      3          6           0        3.919071   -0.658117   -0.136579
      4          6           0        2.995514    0.385554   -0.169496
      5          6           0        1.698229    0.226588   -0.654339
      6          6           0        1.318637   -1.034319   -1.123990
      7          1           0        1.919301   -3.077644   -1.470894
      8          1           0        4.221865   -2.737327   -0.594642
      9          1           0        4.915480   -0.482324    0.250309
     10          1           0        1.018566    1.070070   -0.658204
     11          1           0        0.312239   -1.179870   -1.506118
     12          7           0        3.408904    1.715825    0.330392
     13          8           0        2.576427    2.619172    0.290627
     14          8           0        4.557570    1.829954    0.752504
     15          6           0       -3.389279   -0.501019    0.932663
     16          6           0       -2.118620   -1.275455    0.581014
     17          6           0       -1.414102   -1.845794    1.812340
     18          1           0       -3.134446    0.315472    1.622117
     19          1           0       -4.076718   -1.164926    1.474925
     20          1           0       -1.434357   -0.610677    0.038364
     21          1           0       -2.376478   -2.090080   -0.107835
     22          1           0       -2.076104   -2.530436    2.352356
     23          1           0       -1.128631   -1.042627    2.499386
     24          1           0       -0.508332   -2.395497    1.537991
     25          6           0       -4.104818    0.075267   -0.287840
     26          6           0       -5.375478    0.849704    0.063808
     27          6           0       -6.079996    1.420042   -1.167518
     28          1           0       -3.417378    0.739174   -0.830103
     29          1           0       -4.359651   -0.741223   -0.977295
     30          1           0       -5.117620    1.664329    0.752657
     31          1           0       -6.059740    0.184925    0.606459
     32          1           0       -6.365466    0.616875   -1.854563
     33          1           0       -5.417992    2.104685   -1.707534
     34          1           0       -6.985764    1.969746   -0.893169
 ---------------------------------------------------------------------

 SCF Done:  E(RHF) =  -669.535240999     A.U. after   15 cycles
 E2 =    -0.2092195810D+01 EUMP2 =    -0.67162743680894D+03

 The electronic state is 1-A.
 Alpha  occ. eigenvalues --  -20.60779 -20.60773 -15.85831 -11.31202 -11.27762
 Alpha  occ. eigenvalues --  -11.27758 -11.27499 -11.26786 -11.26739 -11.22316
 Alpha  occ. eigenvalues --  -11.21918 -11.21870 -11.21808 -11.21548 -11.21325
 Alpha  occ. eigenvalues --   -1.59854  -1.39407  -1.19370  -1.08912  -1.08761
 Alpha  occ. eigenvalues --   -1.04779  -1.03978  -0.96396  -0.95599  -0.87414
 Alpha  occ. eigenvalues --   -0.86169  -0.82441  -0.80086  -0.78738  -0.77468
 Alpha  occ. eigenvalues --   -0.72050  -0.71176  -0.70477  -0.65559  -0.65018
 Alpha  occ. eigenvalues --   -0.64775  -0.62179  -0.61337  -0.59776  -0.58025
 Alpha  occ. eigenvalues --   -0.55671  -0.55268  -0.53192  -0.53025  -0.52864
 Alpha  occ. eigenvalues --   -0.52781  -0.50332  -0.48814  -0.48805  -0.48362
 Alpha  occ. eigenvalues --   -0.47111  -0.46254  -0.46177  -0.44812  -0.44231
 Alpha  occ. eigenvalues --   -0.37344  -0.36340
 Alpha virt. eigenvalues --    0.05029   0.11231   0.16437   0.20475   0.22644
 Alpha virt. eigenvalues --    0.24020   0.25371   0.26317   0.27349   0.28252
 Alpha virt. eigenvalues --    0.28848   0.30548   0.31001   0.31354   0.32303

 Mulliken charges:
               1
     1  C   -0.173336
     2  C   -0.218284
     3  C   -0.171103
     4  C    0.158423
     5  C   -0.171726
     6  C   -0.216818
     7  H    0.225846
     8  H    0.223513
     9  H    0.275644
    10  H    0.274888
    11  H    0.228009
    12  N    0.488153
    13  O   -0.460642
    14  O   -0.460294
    15  C   -0.298342
    16  C   -0.302610
    17  C   -0.475971
    18  H    0.153852
    19  H    0.151522
    20  H    0.144767
    21  H    0.147987
    22  H    0.156537
    23  H    0.160155
    24  H    0.159347
    25  C   -0.298452
    26  C   -0.300158
    27  C   -0.476124
    28  H    0.147265
    29  H    0.148351
    30  H    0.154446
    31  H    0.152692
    32  H    0.154586
    33  H    0.155902
    34  H    0.161979
 Sum of Mulliken charges =  -0.00000

 Dipole moment (field-independent basis, Debye):
    X=             -1.5270    Y=             -4.6736    Z=             -1.6866  Tot=              5.1979
 Quadrupole moment (field-independent basis, Debye-Ang):
   XX=            -99.0964   YY=            -97.7980   ZZ=            -95.2166
   XY=            -16.0636   XZ=             -4.6136   YZ=              0.1558

 Normal termination of Gaussian 16 at Thu May  6 09:27:17 2021.
