 Gaussian 16, Revision A.03,
 Gaussian 16:  EM64L-G16RevA.03 25-Dec-2016

 -------------
 #p 6-31g* mp2
 -------------

 ------------------------------------------------------
 Input file generated by CHIRIPA (05-May-2021 14:51:10)
 ------------------------------------------------------
 Symbolic Z-matrix:
 Charge =  0 Multiplicity = 1

                         Standard orientation:
 ---------------------------------------------------------------------
 Center     Atomic      Atomic             Coordinates (Angstroms)
 Number     Number       Type             X           Y           Z
 ---------------------------------------------------------------------
      1          6           0       -2.511882    0.958809    0.108386
      2          6           0       -2.530348    2.487628    0.089553
      3          6           0       -1.166656    3.099312    0.412016
      4          1           0       -2.178570    0.614630    1.097016
      5          1           0       -1.767289    0.599113   -0.615214
      6          1           0       -3.275665    2.844309    0.811978
      7          1           0       -2.863838    2.828206   -0.899086
      8          1           0       -0.416021    2.771814   -0.314546
      9          1           0       -0.830188    2.788008    1.406240
     10          1           0       -1.202632    4.193024    0.393064
     11          6           0       -3.867925    0.332579   -0.212099
     12          6           0       -3.849459   -1.196241   -0.193267
     13          6           0       -5.213150   -1.807924   -0.515730
     14          1           0       -4.612517    0.692275    0.511500
     15          1           0       -4.201237    0.676758   -1.200729
     16          1           0       -3.515968   -1.536818    0.795372
     17          1           0       -3.104142   -1.552921   -0.915692
     18          1           0       -5.549619   -1.496620   -1.509953
     19          1           0       -5.963785   -1.480426    0.210833
     20          1           0       -5.177174   -2.901636   -0.496778
     21          6           0        2.458827   -0.760951   -0.137024
     22          6           0        1.714711   -1.667388    0.844121
     23          6           0        0.253298   -1.888505    0.452749
     24          1           0        1.942877    0.207207   -0.195439
     25          1           0        2.410186   -1.202204   -1.142174
     26          1           0        1.765926   -1.225255    1.847370
     27          1           0        2.232603   -2.633433    0.900351
     28          1           0        0.185362   -2.351504   -0.537007
     29          1           0       -0.283966   -0.935325    0.415394
     30          1           0       -0.259719   -2.539318    1.167674
     31          6           0        3.920979   -0.530438    0.240739
     32          6           0        4.665095    0.376001   -0.740407
     33          6           0        6.126510    0.597118   -0.349036
     34          1           0        3.969621   -0.089184    1.245888
     35          1           0        4.436930   -1.498595    0.299152
     36          1           0        4.147203    1.342046   -0.796637
     37          1           0        4.613881   -0.066132   -1.743657
     38          1           0        6.663773   -0.356063   -0.311681
     39          1           0        6.194444    1.060115    0.640721
     40          1           0        6.639525    1.247931   -1.063960
 ---------------------------------------------------------------------

 SCF Done:  E(RHF) =  -470.732679921     A.U. after   11 cycles
 E2 =    -0.1583637763D+01 EUMP2 =    -0.47231631768449D+03

 The electronic state is 1-A.
 Alpha  occ. eigenvalues --  -11.21641 -11.21572 -11.21550 -11.21511 -11.21418
 Alpha  occ. eigenvalues --  -11.21361 -11.21356 -11.21301 -11.21144 -11.21047
 Alpha  occ. eigenvalues --  -11.21041 -11.20860  -1.08458  -1.08369  -1.03540
 Alpha  occ. eigenvalues --   -1.03461  -0.96016  -0.95895  -0.87026  -0.86922
 Alpha  occ. eigenvalues --   -0.79610  -0.79554  -0.78339  -0.78110  -0.65080
 Alpha  occ. eigenvalues --   -0.65005  -0.60939  -0.60866  -0.59386  -0.59260
 Alpha  occ. eigenvalues --   -0.57714  -0.57451  -0.55296  -0.55199  -0.52729
 Alpha  occ. eigenvalues --   -0.52590  -0.52509  -0.52242  -0.49954  -0.49857
 Alpha  occ. eigenvalues --   -0.48001  -0.47833  -0.46698  -0.46605  -0.45951
 Alpha  occ. eigenvalues --   -0.45742  -0.45666  -0.45257  -0.43798  -0.43713
 Alpha virt. eigenvalues --    0.21572   0.23027   0.23832   0.24416   0.25783
 Alpha virt. eigenvalues --    0.26292   0.26698   0.27416   0.28487   0.29741
 Alpha virt. eigenvalues --    0.30566   0.30843   0.31549   0.31825   0.32211

 Mulliken charges:
               1
     1  C   -0.303742
     2  C   -0.298464
     3  C   -0.477039
     4  H    0.151272
     5  H    0.153158
     6  H    0.152077
     7  H    0.152131
     8  H    0.155179
     9  H    0.154929
    10  H    0.160931
    11  C   -0.297818
    12  C   -0.300833
    13  C   -0.475841
    14  H    0.149295
    15  H    0.149455
    16  H    0.152859
    17  H    0.154282
    18  H    0.154928
    19  H    0.154892
    20  H    0.160347
    21  C   -0.298947
    22  C   -0.299419
    23  C   -0.484307
    24  H    0.149826
    25  H    0.148994
    26  H    0.151170
    27  H    0.151206
    28  H    0.153104
    29  H    0.167574
    30  H    0.158980
    31  C   -0.298108
    32  C   -0.299664
    33  C   -0.475669
    34  H    0.149552
    35  H    0.149592
    36  H    0.151979
    37  H    0.151694
    38  H    0.155103
    39  H    0.155213
    40  H    0.160131
 Sum of Mulliken charges =  -0.00000

 Dipole moment (field-independent basis, Debye):
    X=             -0.0573    Y=              0.0322    Z=             -0.0046  Tot=              0.0659
 Quadrupole moment (field-independent basis, Debye-Ang):
   XX=            -86.7324   YY=            -84.6195   ZZ=            -83.5560
   XY=             -1.0095   XZ=             -0.7507   YZ=              0.3218

 Normal termination of Gaussian 16 at Thu May  6 05:23:09 2021.
