 Gaussian 16, Revision A.03,
 Gaussian 16:  EM64L-G16RevA.03 25-Dec-2016

 -------------
 #p 6-31g* mp2
 -------------

 ------------------------------------------------------
 Input file generated by CHIRIPA (05-May-2021 14:53:13)
 ------------------------------------------------------
 Symbolic Z-matrix:
 Charge =  0 Multiplicity = 1

                         Standard orientation:
 ---------------------------------------------------------------------
 Center     Atomic      Atomic             Coordinates (Angstroms)
 Number     Number       Type             X           Y           Z
 ---------------------------------------------------------------------
      1          6           0        3.348110    0.830273   -0.476543
      2          6           0        3.537774    2.213478    0.146959
      3          6           0        3.306805    3.348522   -0.851101
      4          1           0        4.036987    0.720046   -1.325215
      5          1           0        2.331658    0.757243   -0.887502
      6          1           0        4.553107    2.283386    0.557846
      7          1           0        2.848500    2.320353    0.994364
      8          1           0        2.289248    3.307072   -1.252923
      9          1           0        4.003540    3.269895   -1.691921
     10          1           0        3.447585    4.328405   -0.384335
     11          6           0        3.575603   -0.314761    0.508785
     12          6           0        3.385939   -1.697967   -0.114717
     13          6           0        3.616909   -2.833010    0.883343
     14          1           0        4.592055   -0.241732    0.919744
     15          1           0        2.886726   -0.204534    1.357457
     16          1           0        4.075213   -1.804842   -0.962122
     17          1           0        2.370606   -1.767875   -0.525604
     18          1           0        2.920173   -2.754384    1.724163
     19          1           0        4.634466   -2.791561    1.285165
     20          1           0        3.476129   -3.812893    0.416577
     21          6           0       -4.677006    1.285293    0.502449
     22          6           0       -3.423417    1.569371    1.054116
     23          6           0       -2.323524    0.752535    0.775620
     24          6           0       -2.513889   -0.345097   -0.062387
     25          6           0       -3.750242   -0.654344   -0.627264
     26          6           0       -4.836137    0.176298   -0.335004
     27          1           0       -5.525992    1.925193    0.724138
     28          1           0       -3.296891    2.429957    1.704829
     29          1           0       -1.341895    0.949330    1.189257
     30          1           0       -3.845359   -1.519321   -1.272388
     31          1           0       -5.808522   -0.046746   -0.764845
     32          7           0       -1.356890   -1.217152   -0.364504
     33          8           0       -1.550782   -2.178170   -1.105778
     34          8           0       -0.278051   -0.923139    0.145691
 ---------------------------------------------------------------------

 SCF Done:  E(RHF) =  -669.536621555     A.U. after   15 cycles
 E2 =    -0.2091654622D+01 EUMP2 =    -0.67162827617738D+03

 The electronic state is 1-A.
 Alpha  occ. eigenvalues --  -20.61121 -20.61112 -15.86132 -11.31394 -11.27949
 Alpha  occ. eigenvalues --  -11.27943 -11.27673 -11.26941 -11.26931 -11.20919
 Alpha  occ. eigenvalues --  -11.20596 -11.20297 -11.20096 -11.19895 -11.19698
 Alpha  occ. eigenvalues --   -1.60166  -1.39725  -1.19555  -1.08971  -1.07288
 Alpha  occ. eigenvalues --   -1.04941  -1.02431  -0.95822  -0.94931  -0.86345
 Alpha  occ. eigenvalues --   -0.85962  -0.82658  -0.78545  -0.77719  -0.77030
 Alpha  occ. eigenvalues --   -0.72361  -0.71470  -0.70663  -0.65217  -0.64944
 Alpha  occ. eigenvalues --   -0.63885  -0.62290  -0.59808  -0.58354  -0.56520
 Alpha  occ. eigenvalues --   -0.55448  -0.54219  -0.53276  -0.53032  -0.51681
 Alpha  occ. eigenvalues --   -0.51359  -0.49203  -0.49107  -0.48839  -0.46855
 Alpha  occ. eigenvalues --   -0.45550  -0.45185  -0.44611  -0.44304  -0.42676
 Alpha  occ. eigenvalues --   -0.37529  -0.36539
 Alpha virt. eigenvalues --    0.04790   0.11116   0.16286   0.21162   0.23742
 Alpha virt. eigenvalues --    0.25376   0.27018   0.27469   0.28457   0.28658
 Alpha virt. eigenvalues --    0.29088   0.30975   0.32373   0.32518   0.32726

 Mulliken charges:
               1
     1  C   -0.300675
     2  C   -0.298038
     3  C   -0.474736
     4  H    0.145884
     5  H    0.158657
     6  H    0.149890
     7  H    0.147077
     8  H    0.152646
     9  H    0.155134
    10  H    0.156102
    11  C   -0.294276
    12  C   -0.308634
    13  C   -0.474324
    14  H    0.141832
    15  H    0.150964
    16  H    0.143093
    17  H    0.181738
    18  H    0.156082
    19  H    0.147220
    20  H    0.158295
    21  C   -0.170368
    22  C   -0.218488
    23  C   -0.170762
    24  C    0.157585
    25  C   -0.170441
    26  C   -0.218578
    27  H    0.226435
    28  H    0.224321
    29  H    0.275539
    30  H    0.276093
    31  H    0.224198
    32  N    0.490513
    33  O   -0.457669
    34  O   -0.462308
 Sum of Mulliken charges =  -0.00000

 Dipole moment (field-independent basis, Debye):
    X=             -4.5166    Y=              2.9553    Z=              1.0000  Tot=              5.4894
 Quadrupole moment (field-independent basis, Debye-Ang):
   XX=            -73.3242   YY=            -97.1610   ZZ=            -94.2620
   XY=             -4.5220   XZ=             -1.0640   YZ=              2.1914

 Normal termination of Gaussian 16 at Wed May  5 17:04:03 2021.
