 Gaussian 16, Revision A.03,
 Gaussian 16:  EM64L-G16RevA.03 25-Dec-2016

 -------------
 #p 6-31g* mp2
 -------------

 ------------------------------------------------------
 Input file generated by CHIRIPA (05-May-2021 14:53:12)
 ------------------------------------------------------
 Symbolic Z-matrix:
 Charge =  0 Multiplicity = 1

                         Standard orientation:
 ---------------------------------------------------------------------
 Center     Atomic      Atomic             Coordinates (Angstroms)
 Number     Number       Type             X           Y           Z
 ---------------------------------------------------------------------
      1          6           0        4.652747    0.174977    0.286843
      2          6           0        5.863635   -0.110934   -0.601970
      3          6           0        7.183285    0.315787    0.041636
      4          1           0        4.619939    1.248791    0.516609
      5          1           0        4.779420   -0.346149    1.245893
      6          1           0        5.734064    0.409456   -1.559582
      7          1           0        5.893455   -1.184162   -0.829804
      8          1           0        7.339200   -0.212820    0.987610
      9          1           0        7.178903    1.389853    0.253685
     10          1           0        8.035683    0.102263   -0.610809
     11          6           0        3.326128   -0.246075   -0.342860
     12          6           0        2.115239    0.039836    0.545953
     13          6           0        0.795590   -0.386885   -0.097653
     14          1           0        3.199454    0.275051   -1.301910
     15          1           0        3.358935   -1.319888   -0.572626
     16          1           0        2.085419    1.113064    0.773787
     17          1           0        2.244810   -0.480554    1.503566
     18          1           0        0.799971   -1.460951   -0.309702
     19          1           0        0.639675    0.141722   -1.043626
     20          1           0       -0.056809   -0.173361    0.554792
     21          6           0       -3.009388   -2.492071    0.091063
     22          6           0       -3.371229   -1.839064   -1.091804
     23          6           0       -3.434006   -0.443313   -1.141667
     24          6           0       -3.127127    0.271381    0.015193
     25          6           0       -2.763315   -0.350208    1.208741
     26          6           0       -2.707118   -1.746873    1.235543
     27          1           0       -2.963177   -3.576679    0.120841
     28          1           0       -3.606504   -2.415227   -1.982156
     29          1           0       -3.711218    0.087827   -2.044143
     30          1           0       -2.534356    0.251198    2.080123
     31          1           0       -2.425802   -2.251323    2.155562
     32          7           0       -3.190103    1.749484   -0.025387
     33          8           0       -2.915036    2.356286    1.007456
     34          8           0       -3.513338    2.273231   -1.089270
 ---------------------------------------------------------------------

 SCF Done:  E(RHF) =  -669.534594984     A.U. after   15 cycles
 E2 =    -0.2092622582D+01 EUMP2 =    -0.67162721756634D+03

 The electronic state is 1-A.
 Alpha  occ. eigenvalues --  -20.60774 -20.60769 -15.85827 -11.31183 -11.27766
 Alpha  occ. eigenvalues --  -11.27746 -11.27513 -11.26790 -11.26777 -11.21589
 Alpha  occ. eigenvalues --  -11.21551 -11.21381 -11.21321 -11.21054 -11.20965
 Alpha  occ. eigenvalues --   -1.59849  -1.39403  -1.19378  -1.08764  -1.08404
 Alpha  occ. eigenvalues --   -1.04790  -1.03499  -0.95956  -0.95600  -0.86974
 Alpha  occ. eigenvalues --   -0.86180  -0.82436  -0.79568  -0.78219  -0.77481
 Alpha  occ. eigenvalues --   -0.72048  -0.71174  -0.70489  -0.65036  -0.65028
 Alpha  occ. eigenvalues --   -0.64786  -0.62134  -0.60898  -0.59378  -0.57591
 Alpha  occ. eigenvalues --   -0.55283  -0.55240  -0.53557  -0.52875  -0.52393
 Alpha  occ. eigenvalues --   -0.52153  -0.49896  -0.48806  -0.48802  -0.47888
 Alpha  occ. eigenvalues --   -0.46602  -0.45760  -0.45688  -0.44811  -0.43754
 Alpha  occ. eigenvalues --   -0.37326  -0.36305
 Alpha virt. eigenvalues --    0.05037   0.11202   0.16527   0.21377   0.22892
 Alpha virt. eigenvalues --    0.24333   0.26671   0.27183   0.27527   0.27967
 Alpha virt. eigenvalues --    0.28371   0.30885   0.31410   0.31858   0.31933

 Mulliken charges:
               1
     1  C   -0.298298
     2  C   -0.299571
     3  C   -0.475704
     4  H    0.151343
     5  H    0.148390
     6  H    0.152511
     7  H    0.150760
     8  H    0.154643
     9  H    0.156036
    10  H    0.160054
    11  C   -0.298316
    12  C   -0.299667
    13  C   -0.478581
    14  H    0.150727
    15  H    0.147188
    16  H    0.156113
    17  H    0.148224
    18  H    0.150035
    19  H    0.156206
    20  H    0.163907
    21  C   -0.170774
    22  C   -0.217284
    23  C   -0.171141
    24  C    0.165832
    25  C   -0.180214
    26  C   -0.212987
    27  H    0.225572
    28  H    0.223551
    29  H    0.275610
    30  H    0.275640
    31  H    0.223629
    32  N    0.488050
    33  O   -0.460939
    34  O   -0.460545
 Sum of Mulliken charges =  -0.00000

 Dipole moment (field-independent basis, Debye):
    X=              0.1444    Y=             -5.1944    Z=              0.1239  Tot=              5.1978
 Quadrupole moment (field-independent basis, Debye-Ang):
   XX=            -97.7245   YY=            -97.4065   ZZ=            -90.1358
   XY=             16.4799   XZ=              0.8126   YZ=             -0.3165

 Normal termination of Gaussian 16 at Thu May  6 02:30:59 2021.
