 Gaussian 16, Revision A.03,
 Gaussian 16:  EM64L-G16RevA.03 25-Dec-2016

 -------------
 #p 6-31g* mp2
 -------------

 ------------------------------------------------------
 Input file generated by CHIRIPA (05-May-2021 14:55:21)
 ------------------------------------------------------
 Symbolic Z-matrix:
 Charge =  0 Multiplicity = 1

                         Standard orientation:
 ---------------------------------------------------------------------
 Center     Atomic      Atomic             Coordinates (Angstroms)
 Number     Number       Type             X           Y           Z
 ---------------------------------------------------------------------
      1          6           0        1.172409    0.935151   -0.338546
      2          6           0        2.221252    1.834164   -0.118946
      3          6           0        3.541430    1.380275   -0.043692
      4          6           0        3.777735    0.014587   -0.193187
      5          6           0        2.754218   -0.905955   -0.412970
      6          6           0        1.441765   -0.429633   -0.484600
      7          1           0        0.149863    1.296457   -0.395597
      8          1           0        2.015032    2.894621   -0.005150
      9          1           0        4.372355    2.054348    0.125441
     10          1           0        2.991034   -1.957304   -0.522531
     11          1           0        0.629205   -1.130115   -0.655236
     12          7           0        5.171259   -0.477800   -0.115438
     13          8           0        5.353064   -1.685841   -0.250414
     14          8           0        6.055311    0.353633    0.079007
     15          6           0       -5.125508    0.267922   -0.036200
     16          6           0       -6.304794   -0.618434   -0.438248
     17          6           0       -7.465296    0.177202   -1.036569
     18          1           0       -5.469525    1.018501    0.688525
     19          1           0       -4.775179    0.822290   -0.917870
     20          1           0       -6.651910   -1.172006    0.443617
     21          1           0       -5.957887   -1.367113   -1.161956
     22          1           0       -7.141016    0.717049   -1.932119
     23          1           0       -7.838981    0.913265   -0.317422
     24          1           0       -8.297519   -0.475994   -1.316929
     25          6           0       -3.957538   -0.513013    0.563562
     26          6           0       -2.778252    0.373344    0.965610
     27          6           0       -1.617750   -0.422294    1.563931
     28          1           0       -4.307867   -1.067380    1.445232
     29          1           0       -3.613520   -1.263592   -0.161164
     30          1           0       -3.125159    1.122021    1.689318
     31          1           0       -2.431137    0.926914    0.083744
     32          1           0       -1.244065   -1.158356    0.844784
     33          1           0       -1.942031   -0.962141    2.459480
     34          1           0       -0.785528    0.230902    1.844290
 ---------------------------------------------------------------------

 SCF Done:  E(RHF) =  -669.534099852     A.U. after   15 cycles
 E2 =    -0.2092691362D+01 EUMP2 =    -0.67162679121361D+03

 The electronic state is 1-A.
 Alpha  occ. eigenvalues --  -20.60719 -20.60714 -15.85772 -11.31128 -11.27702
 Alpha  occ. eigenvalues --  -11.27683 -11.27401 -11.26714 -11.26674 -11.22758
 Alpha  occ. eigenvalues --  -11.22292 -11.22213 -11.22138 -11.22112 -11.21584
 Alpha  occ. eigenvalues --   -1.59795  -1.39349  -1.19303  -1.09293  -1.08699
 Alpha  occ. eigenvalues --   -1.04712  -1.04384  -0.96829  -0.95527  -0.87842
 Alpha  occ. eigenvalues --   -0.86098  -0.82370  -0.80470  -0.79065  -0.77418
 Alpha  occ. eigenvalues --   -0.71992  -0.71118  -0.70442  -0.65955  -0.64954
 Alpha  occ. eigenvalues --   -0.64738  -0.62156  -0.61680  -0.60218  -0.58444
 Alpha  occ. eigenvalues --   -0.56109  -0.55181  -0.53608  -0.53275  -0.52894
 Alpha  occ. eigenvalues --   -0.52768  -0.50733  -0.48792  -0.48746  -0.48724
 Alpha  occ. eigenvalues --   -0.47508  -0.46606  -0.46515  -0.44757  -0.44620
 Alpha  occ. eigenvalues --   -0.37232  -0.36299
 Alpha virt. eigenvalues --    0.05094   0.11308   0.16505   0.19285   0.22560
 Alpha virt. eigenvalues --    0.24074   0.24948   0.25537   0.26811   0.27792
 Alpha virt. eigenvalues --    0.29006   0.29484   0.30847   0.31606   0.31763

 Mulliken charges:
               1
     1  C   -0.173925
     2  C   -0.220992
     3  C   -0.170796
     4  C    0.158380
     5  C   -0.172072
     6  C   -0.217364
     7  H    0.232071
     8  H    0.223427
     9  H    0.275316
    10  H    0.275384
    11  H    0.224696
    12  N    0.488041
    13  O   -0.460561
    14  O   -0.460665
    15  C   -0.298812
    16  C   -0.300266
    17  C   -0.476147
    18  H    0.151240
    19  H    0.148657
    20  H    0.153455
    21  H    0.152404
    22  H    0.155397
    23  H    0.156033
    24  H    0.162243
    25  C   -0.297785
    26  C   -0.304590
    27  C   -0.480796
    28  H    0.153474
    29  H    0.148592
    30  H    0.156944
    31  H    0.143387
    32  H    0.148331
    33  H    0.162436
    34  H    0.164862
 Sum of Mulliken charges =  -0.00000

 Dipole moment (field-independent basis, Debye):
    X=             -5.1282    Y=              1.7120    Z=             -0.1853  Tot=              5.4096
 Quadrupole moment (field-independent basis, Debye-Ang):
   XX=           -131.8622   YY=            -90.6198   ZZ=            -94.5251
   XY=              8.6867   XZ=             -0.7815   YZ=              0.7693

 Normal termination of Gaussian 16 at Thu May  6 06:10:52 2021.
