 Gaussian 16, Revision A.03,
 Gaussian 16:  EM64L-G16RevA.03 25-Dec-2016

 -------------
 #p 6-31g* mp2
 -------------

 ------------------------------------------------------
 Input file generated by CHIRIPA (05-May-2021 14:57:21)
 ------------------------------------------------------
 Symbolic Z-matrix:
 Charge =  0 Multiplicity = 1

                         Standard orientation:
 ---------------------------------------------------------------------
 Center     Atomic      Atomic             Coordinates (Angstroms)
 Number     Number       Type             X           Y           Z
 ---------------------------------------------------------------------
      1          6           0        4.285194    1.384780   -0.600317
      2          6           0        3.207328    1.747078    0.214217
      3          6           0        2.311750    0.779288    0.678834
      4          6           0        2.525022   -0.547417    0.307811
      5          6           0        3.589437   -0.939796   -0.502343
      6          6           0        4.472479    0.044862   -0.955371
      7          1           0        4.976032    2.143135   -0.956741
      8          1           0        3.059413    2.786910    0.491554
      9          1           0        1.468928    1.032049    1.310642
     10          1           0        3.710888   -1.984430   -0.761972
     11          1           0        5.308686   -0.239409   -1.587821
     12          7           0        1.583550   -1.580902    0.793546
     13          8           0        1.793393   -2.742911    0.452461
     14          8           0        0.653608   -1.209370    1.506153
     15          6           0       -1.529341    2.601928    0.074823
     16          6           0       -0.865627    1.552313   -0.568847
     17          6           0       -1.493554    0.315277   -0.742048
     18          6           0       -2.791448    0.161997   -0.257008
     19          6           0       -3.479043    1.188560    0.388492
     20          6           0       -2.831636    2.417028    0.550600
     21          1           0       -1.033986    3.559559    0.205062
     22          1           0        0.145788    1.693048   -0.939360
     23          1           0       -1.002952   -0.514235   -1.236657
     24          1           0       -4.486895    1.018116    0.747104
     25          1           0       -3.349520    3.230397    1.050871
     26          7           0       -3.466518   -1.143062   -0.434497
     27          8           0       -4.610283   -1.252645    0.001885
     28          8           0       -2.839089   -2.031673   -1.006635
 ---------------------------------------------------------------------

 SCF Done:  E(RHF) =  -868.335308668     A.U. after   16 cycles
 E2 =    -0.2603794549D+01 EUMP2 =    -0.87093910321656D+03

 The electronic state is 1-A.
 Alpha  occ. eigenvalues --  -20.61184 -20.61170 -20.60121 -20.60081 -15.86221
 Alpha  occ. eigenvalues --  -15.85164 -11.31823 -11.30700 -11.28430 -11.28397
 Alpha  occ. eigenvalues --  -11.28201 -11.27518 -11.27406 -11.27341 -11.27333
 Alpha  occ. eigenvalues --  -11.27229 -11.26422 -11.26378  -1.60251  -1.59167
 Alpha  occ. eigenvalues --   -1.39794  -1.38718  -1.20046  -1.18925  -1.09376
 Alpha  occ. eigenvalues --   -1.08318  -1.05482  -1.04374  -0.96168  -0.95115
 Alpha  occ. eigenvalues --   -0.86849  -0.85784  -0.82990  -0.81958  -0.78013
 Alpha  occ. eigenvalues --   -0.76942  -0.72431  -0.71638  -0.71388  -0.71105
 Alpha  occ. eigenvalues --   -0.70471  -0.70105  -0.65672  -0.65458  -0.64607
 Alpha  occ. eigenvalues --   -0.64450  -0.62791  -0.61725  -0.55925  -0.54977
 Alpha  occ. eigenvalues --   -0.53865  -0.53560  -0.52638  -0.52407  -0.49210
 Alpha  occ. eigenvalues --   -0.49172  -0.48168  -0.48127  -0.45145  -0.44084
 Alpha  occ. eigenvalues --   -0.38046  -0.37245  -0.36831  -0.35819
 Alpha virt. eigenvalues --    0.04466   0.05643   0.10385   0.11780   0.15896
 Alpha virt. eigenvalues --    0.17059   0.20661   0.21759   0.26460   0.27540
 Alpha virt. eigenvalues --    0.27738   0.28601   0.30401   0.31278   0.32042

 Mulliken charges:
               1
     1  C   -0.170295
     2  C   -0.223705
     3  C   -0.179803
     4  C    0.154637
     5  C   -0.169972
     6  C   -0.218771
     7  H    0.227590
     8  H    0.221740
     9  H    0.280783
    10  H    0.279464
    11  H    0.226528
    12  N    0.485903
    13  O   -0.454037
    14  O   -0.456405
    15  C   -0.175135
    16  C   -0.227566
    17  C   -0.156604
    18  C    0.161111
    19  C   -0.169712
    20  C   -0.217859
    21  H    0.218158
    22  H    0.221992
    23  H    0.275161
    24  H    0.275376
    25  H    0.221092
    26  N    0.488892
    27  O   -0.462932
    28  O   -0.455634
 Sum of Mulliken charges =  -0.00000

 Dipole moment (field-independent basis, Debye):
    X=              5.7829    Y=              7.8257    Z=             -1.0492  Tot=              9.7870
 Quadrupole moment (field-independent basis, Debye-Ang):
   XX=            -96.7658   YY=           -105.4620   ZZ=           -105.2410
   XY=             -8.7662   XZ=             -9.5130   YZ=              3.9347

 Normal termination of Gaussian 16 at Thu May  6 17:52:17 2021.
