 Gaussian 16, Revision A.03,
 Gaussian 16:  EM64L-G16RevA.03 25-Dec-2016

 -------------
 #p 6-31g* mp2
 -------------

 ------------------------------------------------------
 Input file generated by CHIRIPA (05-May-2021 14:51:11)
 ------------------------------------------------------
 Symbolic Z-matrix:
 Charge =  0 Multiplicity = 1

                         Standard orientation:
 ---------------------------------------------------------------------
 Center     Atomic      Atomic             Coordinates (Angstroms)
 Number     Number       Type             X           Y           Z
 ---------------------------------------------------------------------
      1          6           0        3.856448   -0.606849   -0.544675
      2          6           0        3.669300   -1.857700    0.314588
      3          6           0        3.928582   -3.150679   -0.459215
      4          1           0        3.181443   -0.659710   -1.409844
      5          1           0        4.879159   -0.596063   -0.946347
      6          1           0        2.647679   -1.865415    0.715645
      7          1           0        4.344692   -1.801763    1.177915
      8          1           0        4.952544   -3.169298   -0.846200
      9          1           0        3.245888   -3.233311   -1.311096
     10          1           0        3.789149   -4.032374    0.174056
     11          6           0        3.600768    0.693712    0.214862
     12          6           0        3.787916    1.944563   -0.644401
     13          6           0        3.528634    3.237542    0.129403
     14          1           0        2.578057    0.682926    0.616535
     15          1           0        4.275773    0.746574    1.080032
     16          1           0        3.112524    1.888627   -1.507727
     17          1           0        4.809537    1.952278   -1.045457
     18          1           0        4.211328    3.320175    0.981284
     19          1           0        2.504672    3.256162    0.516387
     20          1           0        3.668068    4.119237   -0.503868
     21          6           0       -3.177244   -0.268646    0.643141
     22          6           0       -1.785726    0.217107    0.236071
     23          6           0       -0.693321   -0.241504    1.202569
     24          1           0       -3.404259    0.095079    1.654631
     25          1           0       -3.173046   -1.366023    0.699204
     26          1           0       -1.792920    1.313171    0.179448
     27          1           0       -1.562077   -0.147658   -0.774643
     28          1           0       -0.657110   -1.334575    1.252409
     29          1           0       -0.889265    0.134554    2.211920
     30          1           0        0.293273    0.116844    0.892601
     31          6           0       -4.279972    0.181783   -0.313328
     32          6           0       -5.671490   -0.303971    0.093741
     33          6           0       -6.763895    0.154641   -0.872757
     34          1           0       -4.284170    1.279160   -0.369391
     35          1           0       -4.052958   -0.181942   -1.324819
     36          1           0       -5.895139    0.060794    1.104455
     37          1           0       -5.664296   -1.400035    0.150366
     38          1           0       -6.567951   -0.221418   -1.882107
     39          1           0       -6.800106    1.247712   -0.922595
     40          1           0       -7.750489   -0.203708   -0.562788
 ---------------------------------------------------------------------

 SCF Done:  E(RHF) =  -470.733344258     A.U. after   11 cycles
 E2 =    -0.1582774334D+01 EUMP2 =    -0.47231611859178D+03

 The electronic state is 1-A.
 Alpha  occ. eigenvalues --  -11.21670 -11.21628 -11.21595 -11.21557 -11.21447
 Alpha  occ. eigenvalues --  -11.21387 -11.21386 -11.21328 -11.21146 -11.21092
 Alpha  occ. eigenvalues --  -11.21067 -11.21047  -1.08476  -1.08415  -1.03579
 Alpha  occ. eigenvalues --   -1.03510  -0.96035  -0.95959  -0.87051  -0.86977
 Alpha  occ. eigenvalues --   -0.79644  -0.79571  -0.78288  -0.78226  -0.65107
 Alpha  occ. eigenvalues --   -0.65067  -0.60984  -0.60898  -0.59414  -0.59330
 Alpha  occ. eigenvalues --   -0.57683  -0.57539  -0.55312  -0.55258  -0.52778
 Alpha  occ. eigenvalues --   -0.52640  -0.52477  -0.52351  -0.49977  -0.49895
 Alpha  occ. eigenvalues --   -0.47988  -0.47874  -0.46688  -0.46586  -0.45829
 Alpha  occ. eigenvalues --   -0.45770  -0.45750  -0.45694  -0.43797  -0.43736
 Alpha virt. eigenvalues --    0.20763   0.23042   0.24197   0.24435   0.25865
 Alpha virt. eigenvalues --    0.26613   0.27136   0.27435   0.27909   0.28949
 Alpha virt. eigenvalues --    0.30683   0.31522   0.31717   0.31912   0.32161

 Mulliken charges:
               1
     1  C   -0.297625
     2  C   -0.301856
     3  C   -0.475656
     4  H    0.149309
     5  H    0.149526
     6  H    0.154566
     7  H    0.151836
     8  H    0.155052
     9  H    0.154953
    10  H    0.160157
    11  C   -0.307438
    12  C   -0.299161
    13  C   -0.475716
    14  H    0.157246
    15  H    0.150050
    16  H    0.151809
    17  H    0.152028
    18  H    0.155277
    19  H    0.154973
    20  H    0.160242
    21  C   -0.298723
    22  C   -0.298877
    23  C   -0.485256
    24  H    0.149864
    25  H    0.149689
    26  H    0.151980
    27  H    0.151802
    28  H    0.155759
    29  H    0.156001
    30  H    0.167759
    31  C   -0.298265
    32  C   -0.299683
    33  C   -0.475733
    34  H    0.149616
    35  H    0.149667
    36  H    0.152027
    37  H    0.151995
    38  H    0.155207
    39  H    0.155235
    40  H    0.160359
 Sum of Mulliken charges =  -0.00000

 Dipole moment (field-independent basis, Debye):
    X=             -0.0228    Y=              0.0021    Z=              0.0116  Tot=              0.0257
 Quadrupole moment (field-independent basis, Debye-Ang):
   XX=            -84.6090   YY=            -85.1861   ZZ=            -84.9483
   XY=              0.3186   XZ=             -0.2664   YZ=              0.2140

 Normal termination of Gaussian 16 at Wed May  5 15:13:56 2021.
