 Gaussian 16, Revision A.03,
 Gaussian 16:  EM64L-G16RevA.03 25-Dec-2016

 -------------
 #p 6-31g* mp2
 -------------

 ------------------------------------------------------
 Input file generated by CHIRIPA (05-May-2021 14:53:17)
 ------------------------------------------------------
 Symbolic Z-matrix:
 Charge =  0 Multiplicity = 1

                         Standard orientation:
 ---------------------------------------------------------------------
 Center     Atomic      Atomic             Coordinates (Angstroms)
 Number     Number       Type             X           Y           Z
 ---------------------------------------------------------------------
      1          6           0       -5.645624   -0.363305    0.205030
      2          6           0       -6.504417    0.898072    0.108153
      3          6           0       -7.988070    0.623542    0.355541
      4          1           0       -6.009097   -1.103329   -0.521053
      5          1           0       -5.775641   -0.811480    1.199832
      6          1           0       -6.371751    1.344497   -0.885688
      7          1           0       -6.138736    1.635251    0.834418
      8          1           0       -8.140235    0.199501    1.353356
      9          1           0       -8.374574   -0.092906   -0.376523
     10          1           0       -8.583518    1.538866    0.281484
     11          6           0       -4.160013   -0.105024   -0.039877
     12          6           0       -3.301219   -1.366401    0.057001
     13          6           0       -1.817566   -1.091871   -0.190387
     14          1           0       -4.029996    0.343151   -1.034678
     15          1           0       -3.796539    0.635000    0.686207
     16          1           0       -3.666900   -2.103580   -0.669264
     17          1           0       -3.433886   -1.812826    1.050842
     18          1           0       -1.431063   -0.375423    0.541677
     19          1           0       -1.665401   -0.667829   -1.188203
     20          1           0       -1.222118   -2.007195   -0.116330
     21          6           0        6.212135   -0.313248    0.603848
     22          6           0        5.757790    1.009003    0.562096
     23          6           0        4.440112    1.295673    0.193191
     24          6           0        3.600063    0.230911   -0.129128
     25          6           0        4.023097   -1.096983   -0.097011
     26          6           0        5.344867   -1.360175    0.274742
     27          1           0        7.237329   -0.526822    0.891530
     28          1           0        6.429100    1.824065    0.817170
     29          1           0        4.062220    2.310049    0.152500
     30          1           0        3.330483   -1.888346   -0.356718
     31          1           0        5.694976   -2.388025    0.306291
     32          7           0        2.202929    0.521968   -0.521179
     33          8           0        1.482617   -0.433929   -0.800553
     34          8           0        1.854623    1.700484   -0.541672
 ---------------------------------------------------------------------

 SCF Done:  E(RHF) =  -669.535649064     A.U. after   15 cycles
 E2 =    -0.2090934738D+01 EUMP2 =    -0.67162658380271D+03

 The electronic state is 1-A.
 Alpha  occ. eigenvalues --  -20.60859 -20.60832 -15.85881 -11.31245 -11.27813
 Alpha  occ. eigenvalues --  -11.27810 -11.27557 -11.26829 -11.26819 -11.20921
 Alpha  occ. eigenvalues --  -11.20577 -11.20519 -11.20364 -11.20305 -11.19281
 Alpha  occ. eigenvalues --   -1.59910  -1.39464  -1.19417  -1.08813  -1.07486
 Alpha  occ. eigenvalues --   -1.04819  -1.02499  -0.95651  -0.94905  -0.86219
 Alpha  occ. eigenvalues --   -0.85906  -0.82479  -0.78584  -0.77528  -0.77255
 Alpha  occ. eigenvalues --   -0.72089  -0.71228  -0.70525  -0.65070  -0.64822
 Alpha  occ. eigenvalues --   -0.64131  -0.62166  -0.59907  -0.58358  -0.56524
 Alpha  occ. eigenvalues --   -0.55322  -0.54202  -0.53150  -0.52912  -0.51594
 Alpha  occ. eigenvalues --   -0.51335  -0.48879  -0.48855  -0.48815  -0.46848
 Alpha  occ. eigenvalues --   -0.45655  -0.44910  -0.44736  -0.44703  -0.42740
 Alpha  occ. eigenvalues --   -0.37398  -0.36423
 Alpha virt. eigenvalues --    0.04994   0.11232   0.16482   0.21363   0.23733
 Alpha virt. eigenvalues --    0.25339   0.27275   0.27555   0.28196   0.28384
 Alpha virt. eigenvalues --    0.29123   0.30929   0.32375   0.32449   0.32649

 Mulliken charges:
               1
     1  C   -0.297241
     2  C   -0.298975
     3  C   -0.475153
     4  H    0.147740
     5  H    0.147197
     6  H    0.151815
     7  H    0.151453
     8  H    0.153898
     9  H    0.154138
    10  H    0.158461
    11  C   -0.297113
    12  C   -0.303126
    13  C   -0.463285
    14  H    0.150283
    15  H    0.149586
    16  H    0.146692
    17  H    0.145481
    18  H    0.156119
    19  H    0.162858
    20  H    0.155616
    21  C   -0.170740
    22  C   -0.218570
    23  C   -0.170792
    24  C    0.157991
    25  C   -0.170884
    26  C   -0.218540
    27  H    0.225779
    28  H    0.223616
    29  H    0.275740
    30  H    0.275695
    31  H    0.223628
    32  N    0.489411
    33  O   -0.458695
    34  O   -0.460084
 Sum of Mulliken charges =  -0.00000

 Dipole moment (field-independent basis, Debye):
    X=              5.2667    Y=             -0.9647    Z=              1.3119  Tot=              5.5127
 Quadrupole moment (field-independent basis, Debye-Ang):
   XX=            -62.5346   YY=            -90.6629   ZZ=            -94.9855
   XY=             -1.9529   XZ=              5.1056   YZ=              1.3654

 Normal termination of Gaussian 16 at Thu May  6 12:17:32 2021.
