 Gaussian 16, Revision A.03,
 Gaussian 16:  EM64L-G16RevA.03 25-Dec-2016

 -------------
 #p 6-31g* mp2
 -------------

 ------------------------------------------------------
 Input file generated by CHIRIPA (05-May-2021 14:57:22)
 ------------------------------------------------------
 Symbolic Z-matrix:
 Charge =  0 Multiplicity = 1

                         Standard orientation:
 ---------------------------------------------------------------------
 Center     Atomic      Atomic             Coordinates (Angstroms)
 Number     Number       Type             X           Y           Z
 ---------------------------------------------------------------------
      1          6           0       -2.443500    2.046911   -1.010387
      2          6           0       -1.861547    0.920092   -0.420361
      3          6           0       -2.661049   -0.083646    0.134484
      4          6           0       -4.045281    0.072559    0.081638
      5          6           0       -4.654962    1.183474   -0.499263
      6          6           0       -3.835895    2.174780   -1.047889
      7          1           0       -1.814829    2.821810   -1.438989
      8          1           0       -0.780477    0.818123   -0.389804
      9          1           0       -2.236874   -0.966370    0.597401
     10          1           0       -5.735595    1.257049   -0.514635
     11          1           0       -4.290610    3.048794   -1.505468
     12          7           0       -4.902034   -0.983474    0.665736
     13          8           0       -6.119038   -0.822155    0.606441
     14          8           0       -4.340331   -1.952514    1.171787
     15          6           0        5.577785    1.352389    1.018543
     16          6           0        5.983771    0.434674    0.044122
     17          6           0        5.065019   -0.456002   -0.519028
     18          6           0        3.742270   -0.401190   -0.082427
     19          6           0        3.307096    0.501576    0.886555
     20          6           0        4.243096    1.382857    1.435914
     21          1           0        6.298192    2.040639    1.450654
     22          1           0        7.019657    0.408750   -0.281934
     23          1           0        5.352248   -1.176680   -1.275031
     24          1           0        2.267617    0.503584    1.191347
     25          1           0        3.924964    2.094496    2.192490
     26          7           0        2.760498   -1.339137   -0.671309
     27          8           0        1.600943   -1.270725   -0.269578
     28          8           0        3.169132   -2.124951   -1.523454
 ---------------------------------------------------------------------

 SCF Done:  E(RHF) =  -868.339068384     A.U. after   16 cycles
 E2 =    -0.2598768273D+01 EUMP2 =    -0.87093783665719D+03

 The electronic state is 1-A.
 Alpha  occ. eigenvalues --  -20.61627 -20.61559 -20.60198 -20.60182 -15.86632
 Alpha  occ. eigenvalues --  -15.85241 -11.31865 -11.30543 -11.28455 -11.28377
 Alpha  occ. eigenvalues --  -11.28102 -11.27402 -11.27362 -11.27155 -11.27005
 Alpha  occ. eigenvalues --  -11.26882 -11.26191 -11.26003  -1.60649  -1.59270
 Alpha  occ. eigenvalues --   -1.40213  -1.38823  -1.20017  -1.18714  -1.09429
 Alpha  occ. eigenvalues --   -1.08138  -1.05401  -1.04085  -0.96290  -0.94977
 Alpha  occ. eigenvalues --   -0.86804  -0.85502  -0.83132  -0.81790  -0.78204
 Alpha  occ. eigenvalues --   -0.76834  -0.72856  -0.71959  -0.71462  -0.71119
 Alpha  occ. eigenvalues --   -0.70592  -0.69847  -0.65672  -0.65396  -0.64363
 Alpha  occ. eigenvalues --   -0.64079  -0.62755  -0.61410  -0.55889  -0.54646
 Alpha  occ. eigenvalues --   -0.53734  -0.53489  -0.52453  -0.52164  -0.49616
 Alpha  occ. eigenvalues --   -0.49579  -0.48223  -0.48212  -0.45638  -0.44242
 Alpha  occ. eigenvalues --   -0.37978  -0.36999  -0.36734  -0.35689
 Alpha virt. eigenvalues --    0.04300   0.05667   0.10649   0.11947   0.15811
 Alpha virt. eigenvalues --    0.17161   0.20408   0.22044   0.25767   0.27106
 Alpha virt. eigenvalues --    0.28643   0.28910   0.30236   0.31164   0.32661

 Mulliken charges:
               1
     1  C   -0.171963
     2  C   -0.223655
     3  C   -0.171641
     4  C    0.157960
     5  C   -0.172238
     6  C   -0.218742
     7  H    0.221835
     8  H    0.233920
     9  H    0.282421
    10  H    0.273412
    11  H    0.220346
    12  N    0.487956
    13  O   -0.463168
    14  O   -0.459038
    15  C   -0.170255
    16  C   -0.218234
    17  C   -0.170441
    18  C    0.158721
    19  C   -0.172597
    20  C   -0.218312
    21  H    0.227859
    22  H    0.225830
    23  H    0.277339
    24  H    0.271380
    25  H    0.224936
    26  N    0.490248
    27  O   -0.469957
    28  O   -0.453921
 Sum of Mulliken charges =  -0.00000

 Dipole moment (field-independent basis, Debye):
    X=              6.9345    Y=              6.8985    Z=              0.0124  Tot=              9.7815
 Quadrupole moment (field-independent basis, Debye-Ang):
   XX=            -97.4664   YY=           -106.0404   ZZ=           -104.7744
   XY=             -7.4540   XZ=             14.9042   YZ=             -0.1741

 Normal termination of Gaussian 16 at Fri May  7 03:15:34 2021.
