 Gaussian 16, Revision A.03,
 Gaussian 16:  EM64L-G16RevA.03 25-Dec-2016

 -------------
 #p 6-31g* mp2
 -------------

 ------------------------------------------------------
 Input file generated by CHIRIPA (05-May-2021 14:53:13)
 ------------------------------------------------------
 Symbolic Z-matrix:
 Charge =  0 Multiplicity = 1

                         Standard orientation:
 ---------------------------------------------------------------------
 Center     Atomic      Atomic             Coordinates (Angstroms)
 Number     Number       Type             X           Y           Z
 ---------------------------------------------------------------------
      1          6           0       -3.618341    0.636360    0.363554
      2          6           0       -4.070011    1.733142   -0.601355
      3          6           0       -4.599322    2.973373    0.119374
      4          1           0       -4.461363    0.355043    1.009401
      5          1           0       -2.838285    1.038047    1.025033
      6          1           0       -4.848004    1.329104   -1.261731
      7          1           0       -3.225869    2.011746   -1.245109
      8          1           0       -3.826500    3.402949    0.764983
      9          1           0       -5.457852    2.716429    0.748267
     10          1           0       -4.916657    3.744700   -0.589296
     11          6           0       -3.086633   -0.609939   -0.341962
     12          6           0       -2.634963   -1.706720    0.622946
     13          6           0       -2.105652   -2.946952   -0.097783
     14          1           0       -3.866689   -1.011626   -1.003442
     15          1           0       -2.243611   -0.328621   -0.987810
     16          1           0       -3.479105   -1.985325    1.266700
     17          1           0       -1.856970   -1.302683    1.283322
     18          1           0       -1.247122   -2.690007   -0.726676
     19          1           0       -2.878474   -3.376528   -0.743392
     20          1           0       -1.788317   -3.718279    0.610887
     21          6           0        3.964121    2.121305    0.105991
     22          6           0        3.669647    1.545129   -1.134100
     23          6           0        2.925187    0.364178   -1.209475
     24          6           0        2.489102   -0.216399   -0.019497
     25          6           0        2.766272    0.333435    1.231163
     26          6           0        3.512291    1.514689    1.282591
     27          1           0        4.543041    3.038813    0.155243
     28          1           0        4.019242    2.014034   -2.049500
     29          1           0        2.682900   -0.103251   -2.156167
     30          1           0        2.404050   -0.157196    2.126426
     31          1           0        3.739483    1.959914    2.247062
     32          7           0        1.700150   -1.466779   -0.086617
     33          8           0        1.327547   -1.958677    0.976323
     34          8           0        1.469311   -1.931252   -1.200894
 ---------------------------------------------------------------------

 SCF Done:  E(RHF) =  -669.536658513     A.U. after   15 cycles
 E2 =    -0.2092093508D+01 EUMP2 =    -0.67162875202031D+03

 The electronic state is 1-A.
 Alpha  occ. eigenvalues --  -20.61098 -20.61093 -15.86093 -11.31380 -11.27933
 Alpha  occ. eigenvalues --  -11.27930 -11.27662 -11.26928 -11.26919 -11.21182
 Alpha  occ. eigenvalues --  -11.20790 -11.20777 -11.20477 -11.20287 -11.19215
 Alpha  occ. eigenvalues --   -1.60131  -1.39689  -1.19540  -1.08951  -1.07639
 Alpha  occ. eigenvalues --   -1.04928  -1.02602  -0.95801  -0.95033  -0.86330
 Alpha  occ. eigenvalues --   -0.86056  -0.82633  -0.78744  -0.77695  -0.77369
 Alpha  occ. eigenvalues --   -0.72302  -0.71448  -0.70647  -0.65194  -0.64931
 Alpha  occ. eigenvalues --   -0.64282  -0.62275  -0.59996  -0.58521  -0.56625
 Alpha  occ. eigenvalues --   -0.55441  -0.54334  -0.53257  -0.53018  -0.51712
 Alpha  occ. eigenvalues --   -0.51471  -0.49357  -0.49069  -0.48688  -0.47007
 Alpha  occ. eigenvalues --   -0.45818  -0.45205  -0.44900  -0.44632  -0.42873
 Alpha  occ. eigenvalues --   -0.37514  -0.36527
 Alpha virt. eigenvalues --    0.04790   0.11128   0.16282   0.21262   0.23528
 Alpha virt. eigenvalues --    0.25302   0.27188   0.27354   0.28155   0.28249
 Alpha virt. eigenvalues --    0.29104   0.30838   0.32218   0.32424   0.32528

 Mulliken charges:
               1
     1  C   -0.296944
     2  C   -0.298601
     3  C   -0.474964
     4  H    0.148613
     5  H    0.146094
     6  H    0.151837
     7  H    0.149621
     8  H    0.152849
     9  H    0.155052
    10  H    0.158157
    11  C   -0.297731
    12  C   -0.301251
    13  C   -0.479394
    14  H    0.147545
    15  H    0.148146
    16  H    0.145231
    17  H    0.155209
    18  H    0.177364
    19  H    0.143466
    20  H    0.161741
    21  C   -0.170384
    22  C   -0.218569
    23  C   -0.170803
    24  C    0.159329
    25  C   -0.170904
    26  C   -0.218594
    27  H    0.226385
    28  H    0.224196
    29  H    0.276044
    30  H    0.276025
    31  H    0.224201
    32  N    0.487914
    33  O   -0.457703
    34  O   -0.459178
 Sum of Mulliken charges =  -0.00000

 Dipole moment (field-independent basis, Debye):
    X=              3.1552    Y=              4.3300    Z=              0.2301  Tot=              5.3626
 Quadrupole moment (field-independent basis, Debye-Ang):
   XX=            -81.7601   YY=            -98.2886   ZZ=            -89.9296
   XY=             11.4128   XZ=              0.3514   YZ=             -0.5591

 Normal termination of Gaussian 16 at Wed May  5 18:35:44 2021.
