 Gaussian 16, Revision A.03,
 Gaussian 16:  EM64L-G16RevA.03 25-Dec-2016

 -------------
 #p 6-31g* mp2
 -------------

 ------------------------------------------------------
 Input file generated by CHIRIPA (05-May-2021 14:51:10)
 ------------------------------------------------------
 Symbolic Z-matrix:
 Charge =  0 Multiplicity = 1

                         Standard orientation:
 ---------------------------------------------------------------------
 Center     Atomic      Atomic             Coordinates (Angstroms)
 Number     Number       Type             X           Y           Z
 ---------------------------------------------------------------------
      1          6           0        3.401090    0.845862   -0.558508
      2          6           0        2.730994    1.931193    0.284706
      3          6           0        2.935210    3.334418   -0.287177
      4          1           0        4.476026    1.060014   -0.633312
      5          1           0        3.002146    0.887539   -1.581495
      6          1           0        3.130076    1.886581    1.306156
      7          1           0        1.657559    1.714327    0.357671
      8          1           0        2.520684    3.402472   -1.298185
      9          1           0        4.001568    3.575703   -0.344311
     10          1           0        2.447983    4.094771    0.331154
     11          6           0        3.205823   -0.562408    0.000396
     12          6           0        3.875920   -1.647740   -0.842818
     13          6           0        3.671703   -3.050965   -0.270935
     14          1           0        3.604767   -0.604085    1.023383
     15          1           0        2.130887   -0.776561    0.075200
     16          1           0        4.949354   -1.430874   -0.915783
     17          1           0        3.476837   -1.603127   -1.864268
     18          1           0        2.605346   -3.292250   -0.213801
     19          1           0        4.086229   -3.119018    0.740073
     20          1           0        4.158930   -3.811318   -0.889266
     21          6           0       -2.878846   -0.279883    0.898774
     22          6           0       -1.380988   -0.081599    0.664065
     23          6           0       -0.544727   -0.361758    1.913053
     24          1           0       -3.205725    0.377843    1.715776
     25          1           0       -3.056709   -1.310189    1.236753
     26          1           0       -1.206158    0.947619    0.325302
     27          1           0       -1.057676   -0.739734   -0.152602
     28          1           0       -0.689721   -1.393159    2.250380
     29          1           0       -0.839048    0.303781    2.730998
     30          1           0        0.522901   -0.213937    1.722845
     31          6           0       -3.728067   -0.003571   -0.340662
     32          6           0       -5.225925   -0.201854   -0.105953
     33          6           0       -6.062186    0.078304   -1.354941
     34          1           0       -3.550205    1.026736   -0.678640
     35          1           0       -3.401188   -0.661296   -1.157665
     36          1           0       -5.549238    0.456280    0.710714
     37          1           0       -5.400755   -1.231073    0.232810
     38          1           0       -5.767866   -0.587235   -2.172887
     39          1           0       -5.917193    1.109706   -1.692267
     40          1           0       -7.129814   -0.069517   -1.164733
 ---------------------------------------------------------------------

 SCF Done:  E(RHF) =  -470.732895021     A.U. after   11 cycles
 E2 =    -0.1583571993D+01 EUMP2 =    -0.47231646701496D+03

 The electronic state is 1-A.
 Alpha  occ. eigenvalues --  -11.21648 -11.21618 -11.21607 -11.21597 -11.21430
 Alpha  occ. eigenvalues --  -11.21405 -11.21370 -11.21345 -11.21085 -11.21077
 Alpha  occ. eigenvalues --  -11.21073 -11.20989  -1.08472  -1.08424  -1.03553
 Alpha  occ. eigenvalues --   -1.03527  -0.96014  -0.95960  -0.87013  -0.86992
 Alpha  occ. eigenvalues --   -0.79620  -0.79592  -0.78297  -0.78244  -0.65092
 Alpha  occ. eigenvalues --   -0.65084  -0.61015  -0.60864  -0.59427  -0.59305
 Alpha  occ. eigenvalues --   -0.57707  -0.57508  -0.55312  -0.55227  -0.52802
 Alpha  occ. eigenvalues --   -0.52608  -0.52448  -0.52350  -0.49931  -0.49919
 Alpha  occ. eigenvalues --   -0.47949  -0.47911  -0.46708  -0.46575  -0.45815
 Alpha  occ. eigenvalues --   -0.45765  -0.45732  -0.45656  -0.43814  -0.43720
 Alpha virt. eigenvalues --    0.20894   0.23153   0.23774   0.24151   0.26375
 Alpha virt. eigenvalues --    0.26520   0.26595   0.27592   0.27876   0.29619
 Alpha virt. eigenvalues --    0.29963   0.31395   0.31503   0.31760   0.31900

 Mulliken charges:
               1
     1  C   -0.297584
     2  C   -0.305573
     3  C   -0.475561
     4  H    0.149643
     5  H    0.149448
     6  H    0.151824
     7  H    0.157967
     8  H    0.155180
     9  H    0.155255
    10  H    0.160163
    11  C   -0.305040
    12  C   -0.299181
    13  C   -0.475686
    14  H    0.149303
    15  H    0.156487
    16  H    0.152007
    17  H    0.151839
    18  H    0.155076
    19  H    0.155342
    20  H    0.160220
    21  C   -0.298139
    22  C   -0.301891
    23  C   -0.483968
    24  H    0.150033
    25  H    0.149812
    26  H    0.152392
    27  H    0.151201
    28  H    0.154757
    29  H    0.155010
    30  H    0.169712
    31  C   -0.298344
    32  C   -0.299684
    33  C   -0.475724
    34  H    0.149499
    35  H    0.149484
    36  H    0.152034
    37  H    0.151996
    38  H    0.155153
    39  H    0.155200
    40  H    0.160338
 Sum of Mulliken charges =  -0.00000

 Dipole moment (field-independent basis, Debye):
    X=              0.0084    Y=              0.0011    Z=              0.0019  Tot=              0.0087
 Quadrupole moment (field-independent basis, Debye-Ang):
   XX=            -84.5946   YY=            -84.9977   ZZ=            -85.1770
   XY=              0.0414   XZ=             -0.1128   YZ=              0.7868

 Normal termination of Gaussian 16 at Thu May  6 03:47:43 2021.
