 Gaussian 16, Revision A.03,
 Gaussian 16:  EM64L-G16RevA.03 25-Dec-2016

 -------------
 #p 6-31g* mp2
 -------------

 ------------------------------------------------------
 Input file generated by CHIRIPA (05-May-2021 14:53:13)
 ------------------------------------------------------
 Symbolic Z-matrix:
 Charge =  0 Multiplicity = 1

                         Standard orientation:
 ---------------------------------------------------------------------
 Center     Atomic      Atomic             Coordinates (Angstroms)
 Number     Number       Type             X           Y           Z
 ---------------------------------------------------------------------
      1          6           0       -4.685708   -0.115964   -0.176093
      2          6           0       -4.697549   -1.587628    0.238694
      3          6           0       -5.851245   -2.369714   -0.389892
      4          1           0       -5.641250    0.346040    0.107521
      5          1           0       -4.620093   -0.051354   -1.271043
      6          1           0       -4.761727   -1.649429    1.332622
      7          1           0       -3.741793   -2.046134   -0.045769
      8          1           0       -5.788168   -2.337809   -1.482414
      9          1           0       -6.813897   -1.938851   -0.096191
     10          1           0       -5.840639   -3.419328   -0.079961
     11          6           0       -3.538161    0.679071    0.444216
     12          6           0       -3.526320    2.150736    0.029428
     13          6           0       -2.372623    2.932821    0.658014
     14          1           0       -3.603776    0.614461    1.539165
     15          1           0       -2.582619    0.217068    0.160601
     16          1           0       -4.482076    2.609241    0.313891
     17          1           0       -3.462142    2.212537   -1.064500
     18          1           0       -1.409972    2.501958    0.364314
     19          1           0       -2.435701    2.900917    1.750536
     20          1           0       -2.383230    3.982436    0.348083
     21          6           0        0.723495   -0.102616   -0.501297
     22          6           0        1.287234   -1.245142    0.076071
     23          6           0        2.665069   -1.321161    0.300431
     24          6           0        3.453072   -0.231309   -0.066397
     25          6           0        2.921170    0.920774   -0.643524
     26          6           0        1.540822    0.974796   -0.858623
     27          1           0       -0.347817   -0.052107   -0.671989
     28          1           0        0.654921   -2.083391    0.354575
     29          1           0        3.127760   -2.193529    0.745752
     30          1           0        3.577141    1.740400   -0.910609
     31          1           0        1.105767    1.863369   -1.307189
     32          7           0        4.913055   -0.300143    0.166221
     33          8           0        5.585629    0.673513   -0.165856
     34          8           0        5.357170   -1.326448    0.676218
 ---------------------------------------------------------------------

 SCF Done:  E(RHF) =  -669.535422524     A.U. after   15 cycles
 E2 =    -0.2091728922D+01 EUMP2 =    -0.67162715144666D+03

 The electronic state is 1-A.
 Alpha  occ. eigenvalues --  -20.60755 -20.60750 -15.85809 -11.31182 -11.27751
 Alpha  occ. eigenvalues --  -11.27747 -11.27481 -11.26771 -11.26757 -11.22592
 Alpha  occ. eigenvalues --  -11.22502 -11.22465 -11.22283 -11.22036 -11.21765
 Alpha  occ. eigenvalues --   -1.59830  -1.39383  -1.19355  -1.09405  -1.08749
 Alpha  occ. eigenvalues --   -1.04758  -1.04434  -0.96880  -0.95584  -0.87890
 Alpha  occ. eigenvalues --   -0.86155  -0.82417  -0.80497  -0.79226  -0.77459
 Alpha  occ. eigenvalues --   -0.72026  -0.71153  -0.70494  -0.66050  -0.65008
 Alpha  occ. eigenvalues --   -0.64758  -0.62113  -0.61827  -0.60246  -0.58487
 Alpha  occ. eigenvalues --   -0.56204  -0.55273  -0.53540  -0.53297  -0.53078
 Alpha  occ. eigenvalues --   -0.52848  -0.50825  -0.48806  -0.48784  -0.48779
 Alpha  occ. eigenvalues --   -0.47541  -0.46753  -0.46669  -0.44787  -0.44706
 Alpha  occ. eigenvalues --   -0.37324  -0.36359
 Alpha virt. eigenvalues --    0.05057   0.11214   0.16476   0.18690   0.22652
 Alpha virt. eigenvalues --    0.23554   0.24947   0.25899   0.26402   0.27863
 Alpha virt. eigenvalues --    0.29625   0.30451   0.30892   0.31118   0.31298

 Mulliken charges:
               1
     1  C   -0.298608
     2  C   -0.299088
     3  C   -0.476206
     4  H    0.153708
     5  H    0.149790
     6  H    0.154135
     7  H    0.146246
     8  H    0.156035
     9  H    0.157457
    10  H    0.162207
    11  C   -0.302189
    12  C   -0.301114
    13  C   -0.477318
    14  H    0.154526
    15  H    0.139975
    16  H    0.156960
    17  H    0.150796
    18  H    0.148169
    19  H    0.160120
    20  H    0.163628
    21  C   -0.175743
    22  C   -0.221201
    23  C   -0.170759
    24  C    0.158472
    25  C   -0.170670
    26  C   -0.221605
    27  H    0.235332
    28  H    0.223592
    29  H    0.275678
    30  H    0.275726
    31  H    0.224717
    32  N    0.488000
    33  O   -0.460360
    34  O   -0.460408
 Sum of Mulliken charges =  -0.00000

 Dipole moment (field-independent basis, Debye):
    X=             -5.3655    Y=              0.2789    Z=             -0.7575  Tot=              5.4259
 Quadrupole moment (field-independent basis, Debye-Ang):
   XX=           -129.9574   YY=            -90.9193   ZZ=            -94.0780
   XY=              1.7942   XZ=             -3.7240   YZ=             -1.8824

 Normal termination of Gaussian 16 at Thu May  6 08:55:47 2021.
