 Gaussian 16, Revision A.03,
 Gaussian 16:  EM64L-G16RevA.03 25-Dec-2016

 -------------
 #p 6-31g* mp2
 -------------

 ------------------------------------------------------
 Input file generated by CHIRIPA (05-May-2021 14:51:10)
 ------------------------------------------------------
 Symbolic Z-matrix:
 Charge =  0 Multiplicity = 1

                         Standard orientation:
 ---------------------------------------------------------------------
 Center     Atomic      Atomic             Coordinates (Angstroms)
 Number     Number       Type             X           Y           Z
 ---------------------------------------------------------------------
      1          6           0        3.539869    0.547528   -0.535015
      2          6           0        3.261189    1.900285    0.121010
      3          6           0        2.154604    2.683414   -0.586078
      4          1           0        3.815898    0.706961   -1.586363
      5          1           0        2.615495   -0.046517   -0.541173
      6          1           0        4.186152    2.491066    0.127175
      7          1           0        2.985977    1.737626    1.170971
      8          1           0        1.217637    2.117149   -0.579918
      9          1           0        2.424630    2.874869   -1.629644
     10          1           0        1.971759    3.647156   -0.100661
     11          6           0        4.643683   -0.247153    0.160547
     12          6           0        4.922363   -1.599911   -0.495478
     13          6           0        6.028948   -2.383039    0.211610
     14          1           0        5.568057    0.346892    0.166705
     15          1           0        4.367653   -0.406587    1.211896
     16          1           0        5.197575   -1.437252   -1.545438
     17          1           0        3.997400   -2.190691   -0.501642
     18          1           0        5.758922   -2.574495    1.255177
     19          1           0        6.965915   -1.816774    0.205450
     20          1           0        6.211793   -3.346781   -0.273807
     21          6           0       -4.637627   -0.672616    0.075218
     22          6           0       -5.961700   -0.073756   -0.400365
     23          6           0       -7.043814   -1.131382   -0.620030
     24          1           0       -4.289100   -1.408081   -0.662728
     25          1           0       -4.807568   -1.224341    1.010160
     26          1           0       -5.789048    0.477837   -1.333400
     27          1           0       -6.307019    0.660508    0.338706
     28          1           0       -7.245065   -1.675265    0.308565
     29          1           0       -6.724152   -1.858975   -1.373042
     30          1           0       -7.981881   -0.681419   -0.959774
     31          6           0       -3.545925    0.372241    0.299249
     32          6           0       -2.221851   -0.226618    0.774833
     33          6           0       -1.139737    0.831007    0.994499
     34          1           0       -3.375983    0.923966   -0.635692
     35          1           0       -3.894452    1.107707    1.037196
     36          1           0       -1.876533   -0.960883    0.035761
     37          1           0       -2.394504   -0.778211    1.707868
     38          1           0       -1.459400    1.558600    1.747509
     39          1           0       -0.938487    1.374890    0.065903
     40          1           0       -0.201671    0.381045    1.334242
 ---------------------------------------------------------------------

 SCF Done:  E(RHF) =  -470.733117156     A.U. after   11 cycles
 E2 =    -0.1582566846D+01 EUMP2 =    -0.47231568400279D+03

 The electronic state is 1-A.
 Alpha  occ. eigenvalues --  -11.21651 -11.21619 -11.21584 -11.21533 -11.21435
 Alpha  occ. eigenvalues --  -11.21375 -11.21371 -11.21310 -11.21137 -11.21084
 Alpha  occ. eigenvalues --  -11.21058 -11.20928  -1.08464  -1.08388  -1.03575
 Alpha  occ. eigenvalues --   -1.03472  -0.96040  -0.95910  -0.87071  -0.86916
 Alpha  occ. eigenvalues --   -0.79662  -0.79518  -0.78276  -0.78201  -0.65111
 Alpha  occ. eigenvalues --   -0.65009  -0.61061  -0.60808  -0.59385  -0.59291
 Alpha  occ. eigenvalues --   -0.57646  -0.57532  -0.55480  -0.55078  -0.52725
 Alpha  occ. eigenvalues --   -0.52624  -0.52495  -0.52292  -0.50139  -0.49693
 Alpha  occ. eigenvalues --   -0.47977  -0.47825  -0.46754  -0.46460  -0.45823
 Alpha  occ. eigenvalues --   -0.45764  -0.45721  -0.45619  -0.43815  -0.43737
 Alpha virt. eigenvalues --    0.21408   0.22998   0.23693   0.24894   0.26176
 Alpha virt. eigenvalues --    0.26568   0.26951   0.27520   0.27856   0.29006
 Alpha virt. eigenvalues --    0.30464   0.31074   0.31732   0.31812   0.32307

 Mulliken charges:
               1
     1  C   -0.299039
     2  C   -0.299056
     3  C   -0.482293
     4  H    0.149471
     5  H    0.149786
     6  H    0.151520
     7  H    0.151911
     8  H    0.163319
     9  H    0.153907
    10  H    0.159757
    11  C   -0.298213
    12  C   -0.299607
    13  C   -0.475673
    14  H    0.149532
    15  H    0.149414
    16  H    0.151889
    17  H    0.151777
    18  H    0.155128
    19  H    0.155182
    20  H    0.160163
    21  C   -0.298328
    22  C   -0.299699
    23  C   -0.475732
    24  H    0.149708
    25  H    0.149561
    26  H    0.152047
    27  H    0.151998
    28  H    0.155189
    29  H    0.155215
    30  H    0.160342
    31  C   -0.298636
    32  C   -0.299630
    33  C   -0.479953
    34  H    0.149941
    35  H    0.149824
    36  H    0.151899
    37  H    0.152022
    38  H    0.156082
    39  H    0.158915
    40  H    0.160358
 Sum of Mulliken charges =  -0.00000

 Dipole moment (field-independent basis, Debye):
    X=             -0.0506    Y=             -0.0001    Z=              0.0085  Tot=              0.0513
 Quadrupole moment (field-independent basis, Debye-Ang):
   XX=            -85.6729   YY=            -85.5473   ZZ=            -83.6624
   XY=              0.1710   XZ=             -1.2096   YZ=              0.0153

 Normal termination of Gaussian 16 at Wed May  5 18:12:32 2021.
