 Gaussian 16, Revision A.03,
 Gaussian 16:  EM64L-G16RevA.03 25-Dec-2016

 -------------
 #p 6-31g* mp2
 -------------

 ------------------------------------------------------
 Input file generated by CHIRIPA (05-May-2021 14:53:13)
 ------------------------------------------------------
 Symbolic Z-matrix:
 Charge =  0 Multiplicity = 1

                         Standard orientation:
 ---------------------------------------------------------------------
 Center     Atomic      Atomic             Coordinates (Angstroms)
 Number     Number       Type             X           Y           Z
 ---------------------------------------------------------------------
      1          6           0       -3.231084   -0.271946   -0.450197
      2          6           0       -4.283155   -0.915603    0.453592
      3          6           0       -4.751343   -2.277159   -0.060956
      4          1           0       -3.644556   -0.160771   -1.461941
      5          1           0       -2.369363   -0.948150   -0.537259
      6          1           0       -5.142049   -0.237779    0.540037
      7          1           0       -3.867197   -1.025084    1.463349
      8          1           0       -3.909097   -2.973150   -0.130375
      9          1           0       -5.191192   -2.181372   -1.058933
     10          1           0       -5.503207   -2.719298    0.600160
     11          6           0       -2.753144    1.089717    0.050976
     12          6           0       -1.701072    1.733374   -0.852813
     13          6           0       -1.232884    3.094930   -0.338265
     14          1           0       -3.614865    1.765921    0.138038
     15          1           0       -2.339671    0.978542    1.062720
     16          1           0       -2.117030    1.842854   -1.862570
     17          1           0       -0.842179    1.055550   -0.939258
     18          1           0       -0.793036    2.999143    0.659712
     19          1           0       -2.075131    3.790921   -0.268846
     20          1           0       -0.481021    3.537069   -0.999381
     21          6           0        2.149538    2.159033    0.589215
     22          6           0        2.875855    1.694059   -0.512050
     23          6           0        2.986732    0.322980   -0.761839
     24          6           0        2.355769   -0.559051    0.114059
     25          6           0        1.625082   -0.126737    1.219721
     26          6           0        1.527565    1.248757    1.450067
     27          1           0        2.068595    3.225835    0.775705
     28          1           0        3.359930    2.398689   -1.182284
     29          1           0        3.542811   -0.064296   -1.606949
     30          1           0        1.153522   -0.853413    1.870097
     31          1           0        0.962847    1.606998    2.306105
     32          7           0        2.466077   -2.012888   -0.140090
     33          8           0        1.900920   -2.769471    0.646558
     34          8           0        3.115605   -2.368293   -1.121129
 ---------------------------------------------------------------------

 SCF Done:  E(RHF) =  -669.534905865     A.U. after   15 cycles
 E2 =    -0.2093592114D+01 EUMP2 =    -0.67162849797867D+03

 The electronic state is 1-A.
 Alpha  occ. eigenvalues --  -20.60832 -20.60827 -15.85889 -11.31263 -11.27855
 Alpha  occ. eigenvalues --  -11.27846 -11.27563 -11.26846 -11.26832 -11.21878
 Alpha  occ. eigenvalues --  -11.21664 -11.21648 -11.21630 -11.21459 -11.20987
 Alpha  occ. eigenvalues --   -1.59909  -1.39462  -1.19450  -1.08847  -1.08608
 Alpha  occ. eigenvalues --   -1.04856  -1.03723  -0.96212  -0.95655  -0.87224
 Alpha  occ. eigenvalues --   -0.86248  -0.82496  -0.79800  -0.78414  -0.77545
 Alpha  occ. eigenvalues --   -0.72105  -0.71235  -0.70544  -0.65283  -0.65096
 Alpha  occ. eigenvalues --   -0.64847  -0.62209  -0.61147  -0.59590  -0.57797
 Alpha  occ. eigenvalues --   -0.55586  -0.55313  -0.53135  -0.52945  -0.52841
 Alpha  occ. eigenvalues --   -0.52616  -0.50141  -0.48865  -0.48859  -0.48109
 Alpha  occ. eigenvalues --   -0.46820  -0.45968  -0.45857  -0.44866  -0.43987
 Alpha  occ. eigenvalues --   -0.37349  -0.36441
 Alpha virt. eigenvalues --    0.04983   0.11082   0.16429   0.20415   0.22884
 Alpha virt. eigenvalues --    0.24246   0.25737   0.26734   0.27020   0.28083
 Alpha virt. eigenvalues --    0.29040   0.30236   0.31299   0.31488   0.31981

 Mulliken charges:
               1
     1  C   -0.299666
     2  C   -0.299327
     3  C   -0.476607
     4  H    0.150567
     5  H    0.153418
     6  H    0.150941
     7  H    0.150590
     8  H    0.159532
     9  H    0.155157
    10  H    0.160271
    11  C   -0.297137
    12  C   -0.301597
    13  C   -0.472391
    14  H    0.149437
    15  H    0.143591
    16  H    0.153175
    17  H    0.158070
    18  H    0.145702
    19  H    0.155434
    20  H    0.155611
    21  C   -0.164994
    22  C   -0.220254
    23  C   -0.170622
    24  C    0.157825
    25  C   -0.172899
    26  C   -0.217835
    27  H    0.227463
    28  H    0.223860
    29  H    0.276049
    30  H    0.275690
    31  H    0.223558
    32  N    0.488122
    33  O   -0.460660
    34  O   -0.460076
 Sum of Mulliken charges =  -0.00000

 Dipole moment (field-independent basis, Debye):
    X=             -0.3453    Y=              5.0444    Z=              0.8386  Tot=              5.1252
 Quadrupole moment (field-independent basis, Debye-Ang):
   XX=            -95.1561   YY=           -101.9342   ZZ=            -91.3489
   XY=             12.5896   XZ=             -0.1130   YZ=             -1.2605

 Normal termination of Gaussian 16 at Thu May  6 15:25:57 2021.
