 Gaussian 16, Revision A.03,
 Gaussian 16:  EM64L-G16RevA.03 25-Dec-2016

 -------------
 #p 6-31g* mp2
 -------------

 ------------------------------------------------------
 Input file generated by CHIRIPA (05-May-2021 14:53:15)
 ------------------------------------------------------
 Symbolic Z-matrix:
 Charge =  0 Multiplicity = 1

                         Standard orientation:
 ---------------------------------------------------------------------
 Center     Atomic      Atomic             Coordinates (Angstroms)
 Number     Number       Type             X           Y           Z
 ---------------------------------------------------------------------
      1          6           0       -3.304653    0.839888    0.490244
      2          6           0       -3.699758    2.240947    0.022365
      3          6           0       -3.288415    3.332283    1.011091
      4          1           0       -3.765241    0.643298    1.468076
      5          1           0       -2.217242    0.805419    0.644341
      6          1           0       -4.785925    2.272368   -0.132132
      7          1           0       -3.238331    2.434151   -0.954555
      8          1           0       -2.203536    3.329850    1.158167
      9          1           0       -3.759923    3.167147    1.985263
     10          1           0       -3.580527    4.325783    0.656847
     11          6           0       -3.709132   -0.261885   -0.487621
     12          6           0       -3.314027   -1.662945   -0.019743
     13          6           0       -3.725370   -2.754280   -1.008468
     14          1           0       -4.796543   -0.227416   -0.641718
     15          1           0       -3.248544   -0.065296   -1.465453
     16          1           0       -3.775454   -1.856148    0.957178
     17          1           0       -2.227860   -1.694365    0.134755
     18          1           0       -3.253862   -2.589145   -1.982641
     19          1           0       -4.810249   -2.751847   -1.155545
     20          1           0       -3.433258   -3.747780   -0.654224
     21          6           0        1.273275   -2.093306    0.852028
     22          6           0        0.899421   -1.374981   -0.288483
     23          6           0        1.704243   -0.338231   -0.770103
     24          6           0        2.881534   -0.045237   -0.083494
     25          6           0        3.281141   -0.742600    1.055491
     26          6           0        2.460847   -1.775384    1.519198
     27          1           0        0.642060   -2.897138    1.219204
     28          1           0       -0.022316   -1.619687   -0.808641
     29          1           0        1.438756    0.234040   -1.650695
     30          1           0        4.205741   -0.475509    1.552678
     31          1           0        2.753696   -2.331550    2.405181
     32          7           0        3.741753    1.050225   -0.583882
     33          8           0        4.774078    1.288802    0.039031
     34          8           0        3.367377    1.649528   -1.589525
 ---------------------------------------------------------------------

 SCF Done:  E(RHF) =  -669.535539199     A.U. after   15 cycles
 E2 =    -0.2091575220D+01 EUMP2 =    -0.67162711441830D+03

 The electronic state is 1-A.
 Alpha  occ. eigenvalues --  -20.60793 -20.60788 -15.85847 -11.31222 -11.27799
 Alpha  occ. eigenvalues --  -11.27794 -11.27535 -11.26803 -11.26789 -11.22542
 Alpha  occ. eigenvalues --  -11.22085 -11.21958 -11.21951 -11.21866 -11.21281
 Alpha  occ. eigenvalues --   -1.59868  -1.39421  -1.19398  -1.09061  -1.08787
 Alpha  occ. eigenvalues --   -1.04804  -1.04135  -0.96560  -0.95621  -0.87576
 Alpha  occ. eigenvalues --   -0.86203  -0.82453  -0.80229  -0.78831  -0.77500
 Alpha  occ. eigenvalues --   -0.72065  -0.71192  -0.70499  -0.65780  -0.65049
 Alpha  occ. eigenvalues --   -0.64772  -0.62199  -0.61482  -0.59957  -0.58163
 Alpha  occ. eigenvalues --   -0.55844  -0.55294  -0.53267  -0.53125  -0.52991
 Alpha  occ. eigenvalues --   -0.52884  -0.50504  -0.48834  -0.48819  -0.48511
 Alpha  occ. eigenvalues --   -0.47273  -0.46366  -0.46275  -0.44825  -0.44377
 Alpha  occ. eigenvalues --   -0.37367  -0.36398
 Alpha virt. eigenvalues --    0.05033   0.11124   0.16494   0.19385   0.22791
 Alpha virt. eigenvalues --    0.23733   0.25689   0.26506   0.27369   0.28110
 Alpha virt. eigenvalues --    0.28700   0.30156   0.31054   0.31520   0.31898

 Mulliken charges:
               1
     1  C   -0.299861
     2  C   -0.300154
     3  C   -0.476323
     4  H    0.150488
     5  H    0.150112
     6  H    0.152561
     7  H    0.152951
     8  H    0.157465
     9  H    0.154950
    10  H    0.162455
    11  C   -0.298410
    12  C   -0.304370
    13  C   -0.476695
    14  H    0.153108
    15  H    0.148015
    16  H    0.155592
    17  H    0.142835
    18  H    0.154024
    19  H    0.160491
    20  H    0.159069
    21  C   -0.171593
    22  C   -0.221481
    23  C   -0.172079
    24  C    0.158590
    25  C   -0.170767
    26  C   -0.218589
    27  H    0.226484
    28  H    0.228581
    29  H    0.275658
    30  H    0.275820
    31  H    0.223700
    32  N    0.488052
    33  O   -0.460245
    34  O   -0.460436
 Sum of Mulliken charges =  -0.00000

 Dipole moment (field-independent basis, Debye):
    X=             -3.1366    Y=             -3.7939    Z=              1.7973  Tot=              5.2404
 Quadrupole moment (field-independent basis, Debye-Ang):
   XX=           -109.1951   YY=            -95.6086   ZZ=            -92.7541
   XY=            -11.8944   XZ=              7.6292   YZ=             -1.1430

 Normal termination of Gaussian 16 at Thu May  6 02:42:17 2021.
