 Gaussian 16, Revision A.03,
 Gaussian 16:  EM64L-G16RevA.03 25-Dec-2016

 -------------
 #p 6-31g* mp2
 -------------

 ------------------------------------------------------
 Input file generated by CHIRIPA (05-May-2021 14:51:09)
 ------------------------------------------------------
 Symbolic Z-matrix:
 Charge =  0 Multiplicity = 1

                         Standard orientation:
 ---------------------------------------------------------------------
 Center     Atomic      Atomic             Coordinates (Angstroms)
 Number     Number       Type             X           Y           Z
 ---------------------------------------------------------------------
      1          6           0        2.957567   -0.085228   -0.686453
      2          6           0        2.307535   -1.468146   -0.741054
      3          6           0        3.049287   -2.433914   -1.665656
      4          1           0        2.997871    0.334288   -1.701010
      5          1           0        3.998333   -0.189985   -0.349961
      6          1           0        1.267889   -1.360667   -1.076016
      7          1           0        2.268600   -1.884338    0.273779
      8          1           0        4.082638   -2.570673   -1.330867
      9          1           0        3.076241   -2.044027   -2.688331
     10          1           0        2.567622   -3.416400   -1.689728
     11          6           0        2.227460    0.891450    0.233749
     12          6           0        2.877492    2.274368    0.288350
     13          6           0        2.135739    3.240135    1.212953
     14          1           0        1.186694    0.996207   -0.102743
     15          1           0        2.187156    0.471933    1.248307
     16          1           0        2.916427    2.690560   -0.726482
     17          1           0        3.917138    2.166889    0.623313
     18          1           0        2.108786    2.850248    2.235627
     19          1           0        1.102389    3.376894    0.878163
     20          1           0        2.617405    4.222622    1.237025
     21          6           0       -1.993301   -0.577119    0.666917
     22          6           0       -1.930826   -2.056343    1.048984
     23          6           0       -0.726567   -2.388871    1.930449
     24          1           0       -1.067245   -0.300452    0.144594
     25          1           0       -2.029076    0.029647    1.582313
     26          1           0       -1.896575   -2.660200    0.133125
     27          1           0       -2.857221   -2.329567    1.570289
     28          1           0       -0.758482   -1.811504    2.860089
     29          1           0        0.207621   -2.144015    1.414759
     30          1           0       -0.701454   -3.451409    2.191683
     31          6           0       -3.191726   -0.229103   -0.214212
     32          6           0       -3.254201    1.250122   -0.596282
     33          6           0       -4.458460    1.582649   -1.477747
     34          1           0       -3.155950   -0.835868   -1.129609
     35          1           0       -4.117783   -0.505769    0.308110
     36          1           0       -2.327807    1.523346   -1.117586
     37          1           0       -3.288452    1.853978    0.319578
     38          1           0       -5.392648    1.337793   -0.962055
     39          1           0       -4.426545    1.005281   -2.407386
     40          1           0       -4.483572    2.645188   -1.738979
 ---------------------------------------------------------------------

 SCF Done:  E(RHF) =  -470.732784351     A.U. after   11 cycles
 E2 =    -0.1584338910D+01 EUMP2 =    -0.47231712326104D+03

 The electronic state is 1-A.
 Alpha  occ. eigenvalues --  -11.21691 -11.21620 -11.21618 -11.21538 -11.21451
 Alpha  occ. eigenvalues --  -11.21382 -11.21376 -11.21300 -11.21136 -11.21082
 Alpha  occ. eigenvalues --  -11.21067 -11.20918  -1.08497  -1.08389  -1.03588
 Alpha  occ. eigenvalues --   -1.03483  -0.96022  -0.95935  -0.87047  -0.86947
 Alpha  occ. eigenvalues --   -0.79701  -0.79529  -0.78436  -0.78081  -0.65172
 Alpha  occ. eigenvalues --   -0.64986  -0.60987  -0.60903  -0.59404  -0.59291
 Alpha  occ. eigenvalues --   -0.57667  -0.57523  -0.55306  -0.55231  -0.52722
 Alpha  occ. eigenvalues --   -0.52632  -0.52492  -0.52320  -0.50001  -0.49888
 Alpha  occ. eigenvalues --   -0.48090  -0.47778  -0.46766  -0.46589  -0.46271
 Alpha  occ. eigenvalues --   -0.45732  -0.45674  -0.45114  -0.43824  -0.43747
 Alpha virt. eigenvalues --    0.20484   0.23276   0.23401   0.24416   0.24910
 Alpha virt. eigenvalues --    0.25720   0.27088   0.27842   0.28702   0.30201
 Alpha virt. eigenvalues --    0.30748   0.30977   0.31754   0.31818   0.32150

 Mulliken charges:
               1
     1  C   -0.297723
     2  C   -0.306954
     3  C   -0.475140
     4  H    0.149525
     5  H    0.149842
     6  H    0.153528
     7  H    0.156640
     8  H    0.155622
     9  H    0.155276
    10  H    0.160649
    11  C   -0.303459
    12  C   -0.299422
    13  C   -0.475801
    14  H    0.153647
    15  H    0.150745
    16  H    0.151784
    17  H    0.152009
    18  H    0.155341
    19  H    0.155738
    20  H    0.160170
    21  C   -0.306114
    22  C   -0.298355
    23  C   -0.484285
    24  H    0.156979
    25  H    0.149603
    26  H    0.151126
    27  H    0.151557
    28  H    0.154120
    29  H    0.165082
    30  H    0.159075
    31  C   -0.297935
    32  C   -0.299577
    33  C   -0.475638
    34  H    0.149063
    35  H    0.149809
    36  H    0.150561
    37  H    0.152192
    38  H    0.155410
    39  H    0.155122
    40  H    0.160188
 Sum of Mulliken charges =  -0.00000

 Dipole moment (field-independent basis, Debye):
    X=              0.0576    Y=              0.0112    Z=             -0.0095  Tot=              0.0594
 Quadrupole moment (field-independent basis, Debye-Ang):
   XX=            -84.9531   YY=            -85.5293   ZZ=            -84.3262
   XY=              0.2817   XZ=             -0.2374   YZ=             -0.2551

 Normal termination of Gaussian 16 at Thu May  6 00:32:36 2021.
