 Gaussian 16, Revision A.03,
 Gaussian 16:  EM64L-G16RevA.03 25-Dec-2016

 -------------
 #p 6-31g* mp2
 -------------

 ------------------------------------------------------
 Input file generated by CHIRIPA (05-May-2021 14:57:21)
 ------------------------------------------------------
 Symbolic Z-matrix:
 Charge =  0 Multiplicity = 1

                         Standard orientation:
 ---------------------------------------------------------------------
 Center     Atomic      Atomic             Coordinates (Angstroms)
 Number     Number       Type             X           Y           Z
 ---------------------------------------------------------------------
      1          6           0       -3.999288    1.211305   -1.051791
      2          6           0       -3.998744   -0.172050   -1.258788
      3          6           0       -3.156221   -1.001313   -0.512446
      4          6           0       -2.323416   -0.410935    0.436859
      5          6           0       -2.300989    0.963887    0.666317
      6          6           0       -3.151903    1.773867   -0.091591
      7          1           0       -4.657039    1.848007   -1.636060
      8          1           0       -4.655774   -0.611707   -2.003811
      9          1           0       -3.135532   -2.075304   -0.652206
     10          1           0       -1.634854    1.373036    1.416171
     11          1           0       -3.150201    2.847880    0.071313
     12          7           0       -1.427033   -1.278631    1.233101
     13          8           0       -0.702764   -0.733919    2.063378
     14          8           0       -1.465690   -2.487012    1.011841
     15          6           0        2.005405    2.679437    0.271974
     16          6           0        1.014332    1.901010   -0.334941
     17          6           0        1.261294    0.563744   -0.659409
     18          6           0        2.516177    0.034792   -0.361469
     19          6           0        3.524073    0.784674    0.242776
     20          6           0        3.254909    2.119773    0.558391
     21          1           0        1.804935    3.717415    0.520589
     22          1           0        0.043028    2.333002   -0.558539
     23          1           0        0.512098   -0.061552   -1.129651
     24          1           0        4.482599    0.326116    0.453414
     25          1           0        4.026482    2.721934    1.029688
     26          7           0        2.789377   -1.379764   -0.700282
     27          8           0        3.903134   -1.822193   -0.427450
     28          8           0        1.884579   -2.019278   -1.232260
 ---------------------------------------------------------------------

 SCF Done:  E(RHF) =  -868.335649671     A.U. after   16 cycles
 E2 =    -0.2604202875D+01 EUMP2 =    -0.87093985254576D+03

 The electronic state is 1-A.
 Alpha  occ. eigenvalues --  -20.60944 -20.60902 -20.60175 -20.60152 -15.85972
 Alpha  occ. eigenvalues --  -15.85224 -11.31660 -11.30727 -11.28314 -11.28217
 Alpha  occ. eigenvalues --  -11.28048 -11.27391 -11.27383 -11.27315 -11.27249
 Alpha  occ. eigenvalues --  -11.27171 -11.26427 -11.26387  -1.59990  -1.59227
 Alpha  occ. eigenvalues --   -1.39531  -1.38783  -1.19889  -1.18927  -1.09200
 Alpha  occ. eigenvalues --   -1.08314  -1.05332  -1.04378  -0.95978  -0.95127
 Alpha  occ. eigenvalues --   -0.86685  -0.85796  -0.82802  -0.81974  -0.77807
 Alpha  occ. eigenvalues --   -0.76986  -0.72185  -0.71504  -0.71336  -0.70936
 Alpha  occ. eigenvalues --   -0.70515  -0.70083  -0.65511  -0.65298  -0.64612
 Alpha  occ. eigenvalues --   -0.64443  -0.62645  -0.61754  -0.55767  -0.54949
 Alpha  occ. eigenvalues --   -0.53634  -0.53396  -0.52638  -0.52495  -0.48978
 Alpha  occ. eigenvalues --   -0.48922  -0.48220  -0.48198  -0.44854  -0.44156
 Alpha  occ. eigenvalues --   -0.37893  -0.37070  -0.36848  -0.35828
 Alpha virt. eigenvalues --    0.04689   0.05579   0.10643   0.11652   0.16033
 Alpha virt. eigenvalues --    0.17051   0.20696   0.21809   0.26333   0.27647
 Alpha virt. eigenvalues --    0.27906   0.28643   0.30123   0.31660   0.32102

 Mulliken charges:
               1
     1  C   -0.170606
     2  C   -0.218638
     3  C   -0.169898
     4  C    0.152612
     5  C   -0.177196
     6  C   -0.224347
     7  H    0.227335
     8  H    0.226924
     9  H    0.281805
    10  H    0.277466
    11  H    0.221506
    12  N    0.488553
    13  O   -0.460279
    14  O   -0.449986
    15  C   -0.171308
    16  C   -0.221770
    17  C   -0.168409
    18  C    0.165747
    19  C   -0.168797
    20  C   -0.217208
    21  H    0.220934
    22  H    0.216621
    23  H    0.271637
    24  H    0.275743
    25  H    0.222002
    26  N    0.489405
    27  O   -0.461042
    28  O   -0.458806
 Sum of Mulliken charges =  -0.00000

 Dipole moment (field-independent basis, Debye):
    X=             -4.1926    Y=              7.6235    Z=             -1.5542  Tot=              8.8381
 Quadrupole moment (field-independent basis, Debye-Ang):
   XX=            -90.0739   YY=           -104.7456   ZZ=           -107.6237
   XY=              9.0646   XZ=             11.8762   YZ=              3.1865

 Normal termination of Gaussian 16 at Thu May  6 03:17:21 2021.
