 Gaussian 16, Revision A.03,
 Gaussian 16:  EM64L-G16RevA.03 25-Dec-2016

 -------------
 #p 6-31g* mp2
 -------------

 ------------------------------------------------------
 Input file generated by CHIRIPA (05-May-2021 14:51:10)
 ------------------------------------------------------
 Symbolic Z-matrix:
 Charge =  0 Multiplicity = 1

                         Standard orientation:
 ---------------------------------------------------------------------
 Center     Atomic      Atomic             Coordinates (Angstroms)
 Number     Number       Type             X           Y           Z
 ---------------------------------------------------------------------
      1          6           0        2.876865   -0.526662    0.071962
      2          6           0        2.675076    0.988354    0.116610
      3          6           0        3.984713    1.753762    0.308432
      4          1           0        3.361190   -0.853240    1.002404
      5          1           0        3.569776   -0.773368   -0.744375
      6          1           0        1.981671    1.232009    0.931740
      7          1           0        2.191002    1.311337   -0.813965
      8          1           0        4.679418    1.539818   -0.510233
      9          1           0        4.468899    1.460040    1.245391
     10          1           0        3.817267    2.834955    0.337484
     11          6           0        1.576726   -1.305617   -0.119337
     12          6           0        1.778516   -2.820633   -0.163985
     13          6           0        0.468879   -3.586041   -0.355807
     14          1           0        0.883815   -1.058912    0.697000
     15          1           0        1.092402   -0.979039   -1.049779
     16          1           0        2.262590   -3.143617    0.766590
     17          1           0        2.471920   -3.064289   -0.979115
     18          1           0       -0.015307   -3.292319   -1.292766
     19          1           0       -0.225827   -3.372098    0.462858
     20          1           0        0.636324   -4.667234   -0.384859
     21          6           0       -2.234155    0.190067    0.260743
     22          6           0       -3.543689   -0.535818   -0.049414
     23          6           0       -3.543088   -1.987387    0.430942
     24          1           0       -1.401710   -0.352417   -0.207969
     25          1           0       -2.055021    0.161580    1.344484
     26          1           0       -3.720998   -0.504770   -1.132102
     27          1           0       -4.373134    0.008564    0.419931
     28          1           0       -3.390945   -2.034667    1.514095
     29          1           0       -2.735104   -2.550916   -0.046758
     30          1           0       -4.488634   -2.487402    0.199020
     31          6           0       -2.219437    1.642213   -0.213368
     32          6           0       -0.909902    2.368098    0.096789
     33          6           0       -0.910503    3.819667   -0.383567
     34          1           0       -2.398570    1.670700   -1.297110
     35          1           0       -3.051881    2.184697    0.255345
     36          1           0       -0.080457    1.823717   -0.372556
     37          1           0       -0.732594    2.337049    1.179478
     38          1           0       -1.718488    4.383196    0.094133
     39          1           0       -1.062646    3.866946   -1.466719
     40          1           0        0.035042    4.319681   -0.151645
 ---------------------------------------------------------------------

 SCF Done:  E(RHF) =  -470.731432741     A.U. after   11 cycles
 E2 =    -0.1585973492D+01 EUMP2 =    -0.47231740623346D+03

 The electronic state is 1-A.
 Alpha  occ. eigenvalues --  -11.21650 -11.21584 -11.21510 -11.21435 -11.21405
 Alpha  occ. eigenvalues --  -11.21375 -11.21276 -11.21208 -11.21122 -11.21082
 Alpha  occ. eigenvalues --  -11.20998 -11.20972  -1.08506  -1.08296  -1.03600
 Alpha  occ. eigenvalues --   -1.03403  -0.96039  -0.95870  -0.87076  -0.86870
 Alpha  occ. eigenvalues --   -0.79849  -0.79321  -0.78648  -0.77815  -0.65118
 Alpha  occ. eigenvalues --   -0.64949  -0.60982  -0.60850  -0.59515  -0.59131
 Alpha  occ. eigenvalues --   -0.57827  -0.57333  -0.55310  -0.55179  -0.52735
 Alpha  occ. eigenvalues --   -0.52633  -0.52562  -0.52125  -0.49962  -0.49805
 Alpha  occ. eigenvalues --   -0.48450  -0.47467  -0.46803  -0.46596  -0.46389
 Alpha  occ. eigenvalues --   -0.45882  -0.45476  -0.44672  -0.43814  -0.43654
 Alpha virt. eigenvalues --    0.21398   0.22323   0.23439   0.24776   0.25392
 Alpha virt. eigenvalues --    0.25581   0.26163   0.27718   0.28729   0.30321
 Alpha virt. eigenvalues --    0.30710   0.31053   0.31382   0.31849   0.32214

 Mulliken charges:
               1
     1  C   -0.297401
     2  C   -0.304628
     3  C   -0.474936
     4  H    0.149623
     5  H    0.149124
     6  H    0.157555
     7  H    0.152550
     8  H    0.154940
     9  H    0.155090
    10  H    0.160112
    11  C   -0.303393
    12  C   -0.299344
    13  C   -0.479981
    14  H    0.155373
    15  H    0.148678
    16  H    0.152223
    17  H    0.151863
    18  H    0.154510
    19  H    0.159729
    20  H    0.160924
    21  C   -0.305980
    22  C   -0.298771
    23  C   -0.480632
    24  H    0.159588
    25  H    0.147242
    26  H    0.151204
    27  H    0.151377
    28  H    0.153908
    29  H    0.161015
    30  H    0.159830
    31  C   -0.297137
    32  C   -0.307517
    33  C   -0.475563
    34  H    0.148292
    35  H    0.148642
    36  H    0.163636
    37  H    0.149510
    38  H    0.154838
    39  H    0.154357
    40  H    0.159550
 Sum of Mulliken charges =  -0.00000

 Dipole moment (field-independent basis, Debye):
    X=              0.0880    Y=             -0.0499    Z=              0.0060  Tot=              0.1013
 Quadrupole moment (field-independent basis, Debye-Ang):
   XX=            -85.7075   YY=            -86.4108   ZZ=            -83.0365
   XY=             -0.8004   XZ=             -0.4559   YZ=              0.4150

 Normal termination of Gaussian 16 at Wed May  5 15:12:28 2021.
