 Gaussian 16, Revision A.03,
 Gaussian 16:  EM64L-G16RevA.03 25-Dec-2016

 -------------
 #p 6-31g* mp2
 -------------

 ------------------------------------------------------
 Input file generated by CHIRIPA (05-May-2021 14:51:10)
 ------------------------------------------------------
 Symbolic Z-matrix:
 Charge =  0 Multiplicity = 1

                         Standard orientation:
 ---------------------------------------------------------------------
 Center     Atomic      Atomic             Coordinates (Angstroms)
 Number     Number       Type             X           Y           Z
 ---------------------------------------------------------------------
      1          6           0        3.366318   -0.485159   -0.615928
      2          6           0        2.660268   -1.619172    0.128042
      3          6           0        1.999265   -2.624020   -0.815965
      4          1           0        2.639248    0.033821   -1.255439
      5          1           0        4.124131   -0.912347   -1.287213
      6          1           0        1.904961   -1.189891    0.798747
      7          1           0        3.389062   -2.135392    0.766002
      8          1           0        2.744047   -3.079477   -1.476616
      9          1           0        1.251513   -2.128604   -1.443684
     10          1           0        1.500444   -3.426139   -0.263114
     11          6           0        4.031976    0.527475    0.314233
     12          6           0        4.738026    1.661489   -0.429737
     13          6           0        5.399029    2.666336    0.514270
     14          1           0        3.274163    0.954663    0.985519
     15          1           0        4.759046    0.008495    0.953744
     16          1           0        4.009232    2.177708   -1.067697
     17          1           0        5.493333    1.232207   -1.100442
     18          1           0        6.146781    2.170920    1.141989
     19          1           0        4.654247    3.121793    1.174921
     20          1           0        5.897850    3.468455   -0.038581
     21          6           0       -3.266962   -0.616437   -0.054802
     22          6           0       -2.248828   -1.023466    1.010896
     23          6           0       -1.391693   -2.215761    0.584810
     24          1           0       -3.915427   -1.474209   -0.279889
     25          1           0       -2.735839   -0.373401   -0.985521
     26          1           0       -2.781609   -1.264329    1.939736
     27          1           0       -1.602834   -0.164569    1.233610
     28          1           0       -0.834621   -1.982935   -0.328461
     29          1           0       -2.020095   -3.088944    0.381677
     30          1           0       -0.670792   -2.489856    1.361362
     31          6           0       -4.131332    0.574120    0.356498
     32          6           0       -5.149467    0.981151   -0.709201
     33          6           0       -6.006600    2.173445   -0.283115
     34          1           0       -4.662455    0.331085    1.287216
     35          1           0       -3.482867    1.431893    0.581585
     36          1           0       -5.795460    0.122252   -0.931916
     37          1           0       -4.616685    1.222013   -1.638042
     38          1           0       -5.378199    3.046629   -0.079982
     39          1           0       -6.563672    1.940619    0.630155
     40          1           0       -6.727502    2.447540   -1.059666
 ---------------------------------------------------------------------

 SCF Done:  E(RHF) =  -470.732375653     A.U. after   11 cycles
 E2 =    -0.1583154259D+01 EUMP2 =    -0.47231552991167D+03

 The electronic state is 1-A.
 Alpha  occ. eigenvalues --  -11.21610 -11.21606 -11.21585 -11.21567 -11.21412
 Alpha  occ. eigenvalues --  -11.21402 -11.21352 -11.21342 -11.21079 -11.21076
 Alpha  occ. eigenvalues --  -11.20990 -11.20970  -1.08443  -1.08410  -1.03576
 Alpha  occ. eigenvalues --   -1.03463  -0.96071  -0.95867  -0.87104  -0.86869
 Alpha  occ. eigenvalues --   -0.79646  -0.79522  -0.78251  -0.78231  -0.65145
 Alpha  occ. eigenvalues --   -0.64990  -0.61177  -0.60705  -0.59483  -0.59200
 Alpha  occ. eigenvalues --   -0.57656  -0.57500  -0.55589  -0.54949  -0.52826
 Alpha  occ. eigenvalues --   -0.52566  -0.52358  -0.52323  -0.50151  -0.49639
 Alpha  occ. eigenvalues --   -0.47922  -0.47871  -0.46717  -0.46478  -0.45804
 Alpha  occ. eigenvalues --   -0.45760  -0.45725  -0.45657  -0.43833  -0.43700
 Alpha virt. eigenvalues --    0.21326   0.23158   0.23517   0.25142   0.26282
 Alpha virt. eigenvalues --    0.26622   0.26903   0.27210   0.27880   0.29180
 Alpha virt. eigenvalues --    0.29433   0.31159   0.31492   0.32163   0.32497

 Mulliken charges:
               1
     1  C   -0.298069
     2  C   -0.302592
     3  C   -0.476023
     4  H    0.148986
     5  H    0.149639
     6  H    0.154257
     7  H    0.151819
     8  H    0.154497
     9  H    0.154362
    10  H    0.163453
    11  C   -0.298251
    12  C   -0.299615
    13  C   -0.475694
    14  H    0.149286
    15  H    0.149716
    16  H    0.151750
    17  H    0.151990
    18  H    0.155228
    19  H    0.155114
    20  H    0.160244
    21  C   -0.298286
    22  C   -0.300383
    23  C   -0.479552
    24  H    0.149853
    25  H    0.148997
    26  H    0.151658
    27  H    0.150972
    28  H    0.161857
    29  H    0.154437
    30  H    0.160407
    31  C   -0.298213
    32  C   -0.299639
    33  C   -0.475698
    34  H    0.149629
    35  H    0.149409
    36  H    0.152014
    37  H    0.151824
    38  H    0.155113
    39  H    0.155222
    40  H    0.160282
 Sum of Mulliken charges =  -0.00000

 Dipole moment (field-independent basis, Debye):
    X=              0.0041    Y=             -0.0277    Z=             -0.0039  Tot=              0.0282
 Quadrupole moment (field-independent basis, Debye-Ang):
   XX=            -84.4251   YY=            -85.4032   ZZ=            -85.0078
   XY=              0.1247   XZ=             -0.4221   YZ=             -0.8474

 Normal termination of Gaussian 16 at Wed May  5 18:11:46 2021.
