 Gaussian 16, Revision A.03,
 Gaussian 16:  EM64L-G16RevA.03 25-Dec-2016

 -------------
 #p 6-31g* mp2
 -------------

 ------------------------------------------------------
 Input file generated by CHIRIPA (05-May-2021 14:53:15)
 ------------------------------------------------------
 Symbolic Z-matrix:
 Charge =  0 Multiplicity = 1

                         Standard orientation:
 ---------------------------------------------------------------------
 Center     Atomic      Atomic             Coordinates (Angstroms)
 Number     Number       Type             X           Y           Z
 ---------------------------------------------------------------------
      1          6           0        3.982072   -0.354123    0.251511
      2          6           0        3.365465   -1.640584   -0.298759
      3          6           0        4.105955   -2.895872    0.163540
      4          1           0        5.033985   -0.296726   -0.060146
      5          1           0        3.983264   -0.396790    1.349497
      6          1           0        3.364173   -1.594906   -1.395357
      7          1           0        2.314845   -1.694831    0.014085
      8          1           0        4.095718   -2.968860    1.255863
      9          1           0        5.151009   -2.868367   -0.161587
     10          1           0        3.648445   -3.803906   -0.241453
     11          6           0        3.252829    0.909369   -0.201832
     12          6           0        3.869436    2.195831    0.348438
     13          6           0        3.128946    3.451119   -0.113861
     14          1           0        3.251638    0.952037   -1.299818
     15          1           0        2.200916    0.851973    0.109825
     16          1           0        4.920056    2.250078    0.035595
     17          1           0        3.870728    2.150153    1.445036
     18          1           0        2.083892    3.423614    0.211266
     19          1           0        3.139183    3.524107   -1.206184
     20          1           0        3.586456    4.359153    0.291132
     21          6           0       -4.875490    1.249469    0.106444
     22          6           0       -3.611165    1.825812   -0.054276
     23          6           0       -2.468752    1.023065   -0.125254
     24          6           0       -2.628009   -0.358656   -0.031573
     25          6           0       -3.874050   -0.962757    0.128848
     26          6           0       -5.002673   -0.140525    0.197334
     27          1           0       -5.757589    1.880631    0.160613
     28          1           0       -3.509384    2.905007   -0.125151
     29          1           0       -1.477919    1.442888   -0.249422
     30          1           0       -3.943796   -2.041638    0.196453
     31          1           0       -5.983304   -0.590883    0.322178
     32          7           0       -1.425887   -1.218803   -0.105395
     33          8           0       -1.592967   -2.433495   -0.020287
     34          8           0       -0.339345   -0.662006   -0.246965
 ---------------------------------------------------------------------

 SCF Done:  E(RHF) =  -669.536381665     A.U. after   15 cycles
 E2 =    -0.2091792432D+01 EUMP2 =    -0.67162817409769D+03

 The electronic state is 1-A.
 Alpha  occ. eigenvalues --  -20.61076 -20.61064 -15.86089 -11.31363 -11.27919
 Alpha  occ. eigenvalues --  -11.27916 -11.27648 -11.26915 -11.26905 -11.20870
 Alpha  occ. eigenvalues --  -11.20651 -11.20223 -11.20146 -11.19882 -11.19759
 Alpha  occ. eigenvalues --   -1.60123  -1.39682  -1.19526  -1.08940  -1.07289
 Alpha  occ. eigenvalues --   -1.04914  -1.02455  -0.95789  -0.94964  -0.86317
 Alpha  occ. eigenvalues --   -0.85996  -0.82628  -0.78531  -0.77694  -0.76997
 Alpha  occ. eigenvalues --   -0.72308  -0.71430  -0.70634  -0.65185  -0.64916
 Alpha  occ. eigenvalues --   -0.63918  -0.62262  -0.59861  -0.58368  -0.56531
 Alpha  occ. eigenvalues --   -0.55421  -0.54277  -0.53249  -0.53005  -0.51702
 Alpha  occ. eigenvalues --   -0.51388  -0.49179  -0.49070  -0.48889  -0.46826
 Alpha  occ. eigenvalues --   -0.45529  -0.45123  -0.44589  -0.44315  -0.42683
 Alpha  occ. eigenvalues --   -0.37502  -0.36513
 Alpha virt. eigenvalues --    0.04838   0.11143   0.16341   0.21077   0.23722
 Alpha virt. eigenvalues --    0.25177   0.26677   0.27445   0.28065   0.28839
 Alpha virt. eigenvalues --    0.29246   0.31053   0.31981   0.32533   0.32872

 Mulliken charges:
               1
     1  C   -0.296956
     2  C   -0.309704
     3  C   -0.474969
     4  H    0.143196
     5  H    0.145521
     6  H    0.147095
     7  H    0.183126
     8  H    0.151524
     9  H    0.148345
    10  H    0.160331
    11  C   -0.303098
    12  C   -0.298695
    13  C   -0.473449
    14  H    0.146479
    15  H    0.165231
    16  H    0.149715
    17  H    0.149730
    18  H    0.148889
    19  H    0.154050
    20  H    0.157213
    21  C   -0.170424
    22  C   -0.218585
    23  C   -0.170697
    24  C    0.157123
    25  C   -0.170488
    26  C   -0.218607
    27  H    0.226305
    28  H    0.224345
    29  H    0.275962
    30  H    0.275992
    31  H    0.224059
    32  N    0.494208
    33  O   -0.458181
    34  O   -0.464587
 Sum of Mulliken charges =  -0.00000

 Dipole moment (field-independent basis, Debye):
    X=             -4.6762    Y=              2.9129    Z=              0.2491  Tot=              5.5149
 Quadrupole moment (field-independent basis, Debye-Ang):
   XX=            -72.5373   YY=            -95.4584   ZZ=            -95.1578
   XY=             -3.4947   XZ=             -1.5842   YZ=             -0.4976

 Normal termination of Gaussian 16 at Thu May  6 15:31:29 2021.
