 Gaussian 16, Revision A.03,
 Gaussian 16:  EM64L-G16RevA.03 25-Dec-2016

 -------------
 #p 6-31g* mp2
 -------------

 ------------------------------------------------------
 Input file generated by CHIRIPA (05-May-2021 14:57:25)
 ------------------------------------------------------
 Symbolic Z-matrix:
 Charge =  0 Multiplicity = 1

                         Standard orientation:
 ---------------------------------------------------------------------
 Center     Atomic      Atomic             Coordinates (Angstroms)
 Number     Number       Type             X           Y           Z
 ---------------------------------------------------------------------
      1          6           0       -4.173459    1.928622   -0.675954
      2          6           0       -3.035263    1.959418    0.136500
      3          6           0       -2.443790    0.771079    0.575314
      4          6           0       -3.019380   -0.435741    0.180888
      5          6           0       -4.153032   -0.499258   -0.627870
      6          6           0       -4.727733    0.701546   -1.054878
      7          1           0       -4.626415    2.856594   -1.012250
      8          1           0       -2.602646    2.910926    0.432341
      9          1           0       -1.562318    0.765948    1.204917
     10          1           0       -4.561527   -1.463115   -0.906313
     11          1           0       -5.611638    0.674592   -1.685776
     12          7           0       -2.402092   -1.700380    0.639191
     13          8           0       -2.928401   -2.750634    0.277800
     14          8           0       -1.403640   -1.617405    1.351123
     15          6           0        3.982991   -2.090081   -0.608125
     16          6           0        2.605800   -1.854456   -0.542182
     17          6           0        2.116971   -0.574459   -0.264333
     18          6           0        3.037794    0.451350   -0.056748
     19          6           0        4.415671    0.248235   -0.115785
     20          6           0        4.881947   -1.039836   -0.395091
     21          1           0        4.353965   -3.087550   -0.824531
     22          1           0        1.905332   -2.668189   -0.707196
     23          1           0        1.055870   -0.364125   -0.207402
     24          1           0        5.089403    1.079456    0.053256
     25          1           0        5.952023   -1.219897   -0.445687
     26          7           0        2.532231    1.810699    0.238170
     27          8           0        3.364187    2.697508    0.417214
     28          8           0        1.313588    1.963608    0.284699
 ---------------------------------------------------------------------

 SCF Done:  E(RHF) =  -868.341475525     A.U. after   16 cycles
 E2 =    -0.2598836140D+01 EUMP2 =    -0.87094031166496D+03

 The electronic state is 1-A.
 Alpha  occ. eigenvalues --  -20.61023 -20.60985 -20.60828 -20.60782 -15.86015
 Alpha  occ. eigenvalues --  -15.85843 -11.30975 -11.30829 -11.27556 -11.27410
 Alpha  occ. eigenvalues --  -11.27371 -11.27273 -11.27180 -11.27059 -11.26502
 Alpha  occ. eigenvalues --  -11.26366 -11.26309 -11.26204  -1.60077  -1.59871
 Alpha  occ. eigenvalues --   -1.39639  -1.39439  -1.19116  -1.18975  -1.08598
 Alpha  occ. eigenvalues --   -1.08448  -1.04427  -1.04307  -0.95492  -0.95339
 Alpha  occ. eigenvalues --   -0.85861  -0.85734  -0.82330  -0.82175  -0.77438
 Alpha  occ. eigenvalues --   -0.77230  -0.72250  -0.72085  -0.71394  -0.71171
 Alpha  occ. eigenvalues --   -0.70212  -0.70086  -0.64761  -0.64632  -0.64420
 Alpha  occ. eigenvalues --   -0.64295  -0.61778  -0.61626  -0.54977  -0.54855
 Alpha  occ. eigenvalues --   -0.52816  -0.52676  -0.52507  -0.52380  -0.49018
 Alpha  occ. eigenvalues --   -0.48965  -0.48837  -0.48791  -0.45121  -0.44924
 Alpha  occ. eigenvalues --   -0.37108  -0.36959  -0.36007  -0.35887
 Alpha virt. eigenvalues --    0.05014   0.05236   0.11563   0.11755   0.16603
 Alpha virt. eigenvalues --    0.16792   0.21450   0.22160   0.26878   0.27951
 Alpha virt. eigenvalues --    0.28303   0.29269   0.31012   0.31599   0.32081

 Mulliken charges:
               1
     1  C   -0.170641
     2  C   -0.218291
     3  C   -0.172642
     4  C    0.154154
     5  C   -0.172155
     6  C   -0.219104
     7  H    0.226153
     8  H    0.233451
     9  H    0.286220
    10  H    0.272924
    11  H    0.222098
    12  N    0.487214
    13  O   -0.460645
    14  O   -0.466366
    15  C   -0.170477
    16  C   -0.219222
    17  C   -0.168340
    18  C    0.156466
    19  C   -0.171518
    20  C   -0.219212
    21  H    0.225751
    22  H    0.231981
    23  H    0.278411
    24  H    0.273228
    25  H    0.221867
    26  N    0.490704
    27  O   -0.459987
    28  O   -0.472021
 Sum of Mulliken charges =  -0.00000

 Dipole moment (field-independent basis, Debye):
    X=             -0.4349    Y=             -0.2829    Z=             -2.6286  Tot=              2.6793
 Quadrupole moment (field-independent basis, Debye-Ang):
   XX=            -74.8150   YY=           -111.7576   ZZ=           -105.6058
   XY=            -23.5462   XZ=              3.5007   YZ=              3.0376

 Normal termination of Gaussian 16 at Wed May  5 17:58:38 2021.
