 Gaussian 16, Revision A.03,
 Gaussian 16:  EM64L-G16RevA.03 25-Dec-2016

 -------------
 #p 6-31g* mp2
 -------------

 ------------------------------------------------------
 Input file generated by CHIRIPA (05-May-2021 14:55:19)
 ------------------------------------------------------
 Symbolic Z-matrix:
 Charge =  0 Multiplicity = 1

                         Standard orientation:
 ---------------------------------------------------------------------
 Center     Atomic      Atomic             Coordinates (Angstroms)
 Number     Number       Type             X           Y           Z
 ---------------------------------------------------------------------
      1          6           0        3.229453   -2.361566   -0.198702
      2          6           0        4.425931   -1.834552    0.298509
      3          6           0        4.619473   -0.451524    0.364254
      4          6           0        3.590849    0.379063   -0.077728
      5          6           0        2.387470   -0.115598   -0.578208
      6          6           0        2.215829   -1.501922   -0.634705
      7          1           0        3.087612   -3.437216   -0.246182
      8          1           0        5.214857   -2.499768    0.637817
      9          1           0        5.535776   -0.016690    0.744682
     10          1           0        1.619278    0.572760   -0.909058
     11          1           0        1.285584   -1.908395   -1.021318
     12          7           0        3.784150    1.844958   -0.013023
     13          8           0        2.862525    2.555398   -0.408647
     14          8           0        4.853625    2.255729    0.432093
     15          6           0       -5.214394   -0.095147   -0.264708
     16          6           0       -6.216802    0.810721    0.451230
     17          6           0       -7.530007    0.962574   -0.317032
     18          1           0       -5.010925    0.312030   -1.264585
     19          1           0       -5.668015   -1.084390   -0.416429
     20          1           0       -5.760920    1.797543    0.602790
     21          1           0       -6.417761    0.401445    1.449590
     22          1           0       -8.009914   -0.011587   -0.455961
     23          1           0       -7.349341    1.392442   -1.307574
     24          1           0       -8.231981    1.614125    0.212659
     25          6           0       -3.896622   -0.256767    0.490994
     26          6           0       -2.894214   -1.162634   -0.224944
     27          6           0       -1.581008   -1.314487    0.543317
     28          1           0       -3.443000    0.732478    0.642715
     29          1           0       -4.100090   -0.663942    1.490870
     30          1           0       -2.693254   -0.753359   -1.223306
     31          1           0       -3.350095   -2.149456   -0.376504
     32          1           0       -1.761675   -1.744356    1.533860
     33          1           0       -1.101102   -0.340326    0.682247
     34          1           0       -0.879034   -1.966038    0.013625
 ---------------------------------------------------------------------

 SCF Done:  E(RHF) =  -669.535299389     A.U. after   15 cycles
 E2 =    -0.2091078822D+01 EUMP2 =    -0.67162637821082D+03

 The electronic state is 1-A.
 Alpha  occ. eigenvalues --  -20.60742 -20.60737 -15.85795 -11.31148 -11.27715
 Alpha  occ. eigenvalues --  -11.27706 -11.27451 -11.26733 -11.26697 -11.22153
 Alpha  occ. eigenvalues --  -11.21819 -11.21773 -11.21737 -11.21625 -11.21202
 Alpha  occ. eigenvalues --   -1.59818  -1.39372  -1.19318  -1.08776  -1.08716
 Alpha  occ. eigenvalues --   -1.04720  -1.03915  -0.96375  -0.95553  -0.87400
 Alpha  occ. eigenvalues --   -0.86118  -0.82386  -0.79980  -0.78555  -0.77435
 Alpha  occ. eigenvalues --   -0.72014  -0.71140  -0.70429  -0.65400  -0.64970
 Alpha  occ. eigenvalues --   -0.64757  -0.62118  -0.61296  -0.59762  -0.57976
 Alpha  occ. eigenvalues --   -0.55649  -0.55224  -0.53302  -0.53020  -0.52847
 Alpha  occ. eigenvalues --   -0.52565  -0.50298  -0.48772  -0.48769  -0.48290
 Alpha  occ. eigenvalues --   -0.46998  -0.46106  -0.46006  -0.44780  -0.44160
 Alpha  occ. eigenvalues --   -0.37298  -0.36301
 Alpha virt. eigenvalues --    0.05089   0.11285   0.16539   0.20234   0.22729
 Alpha virt. eigenvalues --    0.23912   0.26213   0.26237   0.26950   0.27832
 Alpha virt. eigenvalues --    0.29321   0.29397   0.31176   0.31685   0.32190

 Mulliken charges:
               1
     1  C   -0.171874
     2  C   -0.218439
     3  C   -0.171082
     4  C    0.158517
     5  C   -0.172239
     6  C   -0.217741
     7  H    0.225399
     8  H    0.223229
     9  H    0.275416
    10  H    0.275460
    11  H    0.226783
    12  N    0.488154
    13  O   -0.460808
    14  O   -0.460512
    15  C   -0.298641
    16  C   -0.300179
    17  C   -0.475954
    18  H    0.150338
    19  H    0.149234
    20  H    0.153712
    21  H    0.152193
    22  H    0.154879
    23  H    0.155738
    24  H    0.161316
    25  C   -0.299300
    26  C   -0.299903
    27  C   -0.478552
    28  H    0.152626
    29  H    0.150664
    30  H    0.151007
    31  H    0.152384
    32  H    0.159711
    33  H    0.158808
    34  H    0.149657
 Sum of Mulliken charges =  -0.00000

 Dipole moment (field-independent basis, Debye):
    X=             -0.8114    Y=             -5.1337    Z=             -0.1738  Tot=              5.2003
 Quadrupole moment (field-independent basis, Debye-Ang):
   XX=            -95.9755   YY=            -98.6968   ZZ=            -94.6752
   XY=            -19.3432   XZ=              0.5606   YZ=             -0.3570

 Normal termination of Gaussian 16 at Wed May  5 17:19:48 2021.
