 Gaussian 16, Revision A.03,
 Gaussian 16:  EM64L-G16RevA.03 25-Dec-2016

 -------------
 #p 6-31g* mp2
 -------------

 ------------------------------------------------------
 Input file generated by CHIRIPA (05-May-2021 14:51:08)
 ------------------------------------------------------
 Symbolic Z-matrix:
 Charge =  0 Multiplicity = 1

                         Standard orientation:
 ---------------------------------------------------------------------
 Center     Atomic      Atomic             Coordinates (Angstroms)
 Number     Number       Type             X           Y           Z
 ---------------------------------------------------------------------
      1          6           0        3.281675   -0.293236   -0.446412
      2          6           0        3.170846   -1.484195    0.506121
      3          6           0        4.493242   -2.233562    0.671988
      4          1           0        3.629778   -0.646928   -1.426550
      5          1           0        4.050620    0.396587   -0.071895
      6          1           0        2.401366   -2.170884    0.130656
      7          1           0        2.822782   -1.127653    1.484050
      8          1           0        5.266287   -1.567572    1.068801
      9          1           0        4.842476   -2.616732   -0.292282
     10          1           0        4.391261   -3.081039    1.357000
     11          6           0        1.967782    0.465976   -0.622515
     12          6           0        2.078611    1.656935   -1.575048
     13          6           0        0.756215    2.406302   -1.740915
     14          1           0        1.198837   -0.223847   -0.997032
     15          1           0        1.619679    0.819668    0.357623
     16          1           0        2.426675    1.300393   -2.552977
     17          1           0        2.848091    2.343625   -1.199583
     18          1           0        0.406981    2.789472   -0.776644
     19          1           0       -0.016830    1.740313   -2.137728
     20          1           0        0.858196    3.253779   -2.425927
     21          6           0       -2.135528   -0.033382    1.118678
     22          6           0       -1.754688    1.407151    1.461909
     23          6           0       -0.775405    1.496767    2.632707
     24          1           0       -2.576443   -0.510390    2.004683
     25          1           0       -1.224360   -0.599208    0.879914
     26          1           0       -2.666438    1.970447    1.698610
     27          1           0       -1.314804    1.880845    0.574930
     28          1           0        0.150180    0.959160    2.402768
     29          1           0       -1.209133    1.049272    3.532833
     30          1           0       -0.516683    2.535404    2.861092
     31          6           0       -3.113928   -0.139357   -0.049752
     32          6           0       -3.494769   -1.579892   -0.392982
     33          6           0       -4.474052   -1.669508   -1.563779
     34          1           0       -4.025096    0.426468    0.189013
     35          1           0       -2.673014    0.337650   -0.935756
     36          1           0       -3.934653   -2.053585    0.493997
     37          1           0       -2.583019   -2.143187   -0.629683
     38          1           0       -4.040324   -1.222011   -2.463906
     39          1           0       -5.399637   -1.131900   -1.333841
     40          1           0       -4.732774   -2.708143   -1.792165
 ---------------------------------------------------------------------

 SCF Done:  E(RHF) =  -470.732864520     A.U. after   11 cycles
 E2 =    -0.1584543204D+01 EUMP2 =    -0.47231740772417D+03

 The electronic state is 1-A.
 Alpha  occ. eigenvalues --  -11.21685 -11.21664 -11.21578 -11.21483 -11.21480
 Alpha  occ. eigenvalues --  -11.21419 -11.21345 -11.21273 -11.21158 -11.21111
 Alpha  occ. eigenvalues --  -11.21058 -11.21051  -1.08518  -1.08365  -1.03615
 Alpha  occ. eigenvalues --   -1.03479  -0.96056  -0.95947  -0.87080  -0.86956
 Alpha  occ. eigenvalues --   -0.79694  -0.79533  -0.78335  -0.78183  -0.65187
 Alpha  occ. eigenvalues --   -0.64977  -0.61113  -0.60805  -0.59413  -0.59310
 Alpha  occ. eigenvalues --   -0.57701  -0.57534  -0.55357  -0.55236  -0.52742
 Alpha  occ. eigenvalues --   -0.52656  -0.52503  -0.52372  -0.50123  -0.49776
 Alpha  occ. eigenvalues --   -0.48134  -0.47798  -0.46748  -0.46475  -0.46049
 Alpha  occ. eigenvalues --   -0.45764  -0.45594  -0.45458  -0.43856  -0.43736
 Alpha virt. eigenvalues --    0.19970   0.22617   0.23423   0.24237   0.25460
 Alpha virt. eigenvalues --    0.26000   0.26100   0.28450   0.28892   0.29798
 Alpha virt. eigenvalues --    0.30354   0.31477   0.31682   0.31723   0.32235

 Mulliken charges:
               1
     1  C   -0.297993
     2  C   -0.300267
     3  C   -0.475714
     4  H    0.149943
     5  H    0.149884
     6  H    0.151790
     7  H    0.151981
     8  H    0.155413
     9  H    0.155329
    10  H    0.160592
    11  C   -0.306254
    12  C   -0.299336
    13  C   -0.481040
    14  H    0.149698
    15  H    0.157001
    16  H    0.152260
    17  H    0.152390
    18  H    0.160123
    19  H    0.155311
    20  H    0.161148
    21  C   -0.299490
    22  C   -0.307163
    23  C   -0.479695
    24  H    0.149031
    25  H    0.151967
    26  H    0.151454
    27  H    0.160565
    28  H    0.157492
    29  H    0.155511
    30  H    0.159285
    31  C   -0.299440
    32  C   -0.299509
    33  C   -0.475616
    34  H    0.149472
    35  H    0.150274
    36  H    0.152009
    37  H    0.151341
    38  H    0.154872
    39  H    0.155280
    40  H    0.160101
 Sum of Mulliken charges =  -0.00000

 Dipole moment (field-independent basis, Debye):
    X=              0.0506    Y=              0.0178    Z=             -0.0236  Tot=              0.0586
 Quadrupole moment (field-independent basis, Debye-Ang):
   XX=            -85.3507   YY=            -84.8406   ZZ=            -84.5484
   XY=              0.5240   XZ=             -1.0943   YZ=              0.3982

 Normal termination of Gaussian 16 at Wed May  5 15:05:15 2021.
