 Gaussian 16, Revision A.03,
 Gaussian 16:  EM64L-G16RevA.03 25-Dec-2016

 -------------
 #p 6-31g* mp2
 -------------

 ------------------------------------------------------
 Input file generated by CHIRIPA (05-May-2021 14:57:21)
 ------------------------------------------------------
 Symbolic Z-matrix:
 Charge =  0 Multiplicity = 1

                         Standard orientation:
 ---------------------------------------------------------------------
 Center     Atomic      Atomic             Coordinates (Angstroms)
 Number     Number       Type             X           Y           Z
 ---------------------------------------------------------------------
      1          6           0        3.254074    2.076655    1.535708
      2          6           0        3.889859    2.118043    0.290483
      3          6           0        3.865348    1.006065   -0.556543
      4          6           0        3.192786   -0.136024   -0.124589
      5          6           0        2.549861   -0.208158    1.110212
      6          6           0        2.587279    0.915734    1.940884
      7          1           0        3.278128    2.945093    2.187346
      8          1           0        4.408461    3.018282   -0.026796
      9          1           0        4.349190    1.010842   -1.525714
     10          1           0        2.040902   -1.119757    1.398944
     11          1           0        2.092644    0.880734    2.907401
     12          7           0        3.160005   -1.319531   -1.012641
     13          8           0        2.560716   -2.313728   -0.608830
     14          8           0        3.734221   -1.230557   -2.095690
     15          6           0       -2.217148   -2.147707    0.998484
     16          6           0       -1.380181   -1.205179    0.392145
     17          6           0       -1.912770   -0.044278   -0.176368
     18          6           0       -3.293033    0.142892   -0.120408
     19          6           0       -4.153045   -0.777570    0.476599
     20          6           0       -3.598474   -1.931275    1.038705
     21          1           0       -1.794882   -3.046728    1.437629
     22          1           0       -0.307053   -1.370630    0.359439
     23          1           0       -1.287865    0.701808   -0.652043
     24          1           0       -5.218879   -0.584899    0.493719
     25          1           0       -4.250891   -2.661535    1.508939
     26          7           0       -3.868496    1.368078   -0.718875
     27          8           0       -5.087811    1.509555   -0.656502
     28          8           0       -3.089333    2.163701   -1.238994
 ---------------------------------------------------------------------

 SCF Done:  E(RHF) =  -868.338659204     A.U. after   16 cycles
 E2 =    -0.2600063001D+01 EUMP2 =    -0.87093872220492D+03

 The electronic state is 1-A.
 Alpha  occ. eigenvalues --  -20.61652 -20.61595 -20.60705 -20.60699 -15.86649
 Alpha  occ. eigenvalues --  -15.85755 -11.31934 -11.31060 -11.28539 -11.28391
 Alpha  occ. eigenvalues --  -11.28099 -11.27626 -11.27602 -11.27458 -11.27378
 Alpha  occ. eigenvalues --  -11.27320 -11.26626 -11.26541  -1.60681  -1.59781
 Alpha  occ. eigenvalues --   -1.40243  -1.39336  -1.20067  -1.19219  -1.09460
 Alpha  occ. eigenvalues --   -1.08621  -1.05451  -1.04609  -0.96320  -0.95468
 Alpha  occ. eigenvalues --   -0.86853  -0.86005  -0.83151  -0.82302  -0.78245
 Alpha  occ. eigenvalues --   -0.77358  -0.72864  -0.72000  -0.71973  -0.71153
 Alpha  occ. eigenvalues --   -0.71104  -0.70317  -0.65708  -0.65456  -0.64866
 Alpha  occ. eigenvalues --   -0.64593  -0.62820  -0.61925  -0.55906  -0.55098
 Alpha  occ. eigenvalues --   -0.53784  -0.53543  -0.52947  -0.52658  -0.49642
 Alpha  occ. eigenvalues --   -0.49602  -0.48733  -0.48725  -0.45648  -0.44755
 Alpha  occ. eigenvalues --   -0.38006  -0.37201  -0.37049  -0.36203
 Alpha virt. eigenvalues --    0.04247   0.05166   0.10473   0.11429   0.15816
 Alpha virt. eigenvalues --    0.16679   0.20216   0.21862   0.25719   0.27221
 Alpha virt. eigenvalues --    0.28254   0.28711   0.30189   0.31139   0.32067

 Mulliken charges:
               1
     1  C   -0.169862
     2  C   -0.216835
     3  C   -0.170290
     4  C    0.158934
     5  C   -0.178735
     6  C   -0.217122
     7  H    0.229751
     8  H    0.227659
     9  H    0.278301
    10  H    0.268922
    11  H    0.226074
    12  N    0.488975
    13  O   -0.467809
    14  O   -0.453343
    15  C   -0.172491
    16  C   -0.226365
    17  C   -0.172883
    18  C    0.158466
    19  C   -0.171665
    20  C   -0.218598
    21  H    0.227531
    22  H    0.232918
    23  H    0.274888
    24  H    0.274888
    25  H    0.223028
    26  N    0.488108
    27  O   -0.460915
    28  O   -0.461529
 Sum of Mulliken charges =  -0.00000

 Dipole moment (field-independent basis, Debye):
    X=              2.4444    Y=              0.0082    Z=              5.2006  Tot=              5.7465
 Quadrupole moment (field-independent basis, Debye-Ang):
   XX=           -111.6939   YY=           -106.2718   ZZ=           -104.3155
   XY=             31.9187   XZ=             -0.8514   YZ=             -2.2976

 Normal termination of Gaussian 16 at Thu May  6 03:16:42 2021.
