 Gaussian 16, Revision A.03,
 Gaussian 16:  EM64L-G16RevA.03 25-Dec-2016

 -------------
 #p 6-31g* mp2
 -------------

 ------------------------------------------------------
 Input file generated by CHIRIPA (05-May-2021 14:53:13)
 ------------------------------------------------------
 Symbolic Z-matrix:
 Charge =  0 Multiplicity = 1

                         Standard orientation:
 ---------------------------------------------------------------------
 Center     Atomic      Atomic             Coordinates (Angstroms)
 Number     Number       Type             X           Y           Z
 ---------------------------------------------------------------------
      1          6           0        3.245031    1.036136   -0.130840
      2          6           0        2.146762    1.980348    0.359319
      3          6           0        2.451549    3.448192    0.058765
      4          1           0        4.197920    1.317670    0.337868
      5          1           0        3.377650    1.169838   -1.213397
      6          1           0        2.015298    1.843914    1.440392
      7          1           0        1.196340    1.696414   -0.110463
      8          1           0        2.562133    3.605836   -1.018973
      9          1           0        3.385744    3.754175    0.540694
     10          1           0        1.653494    4.105578    0.417670
     11          6           0        2.954750   -0.434751    0.162343
     12          6           0        4.053019   -1.378962   -0.327815
     13          6           0        3.748233   -2.846807   -0.027262
     14          1           0        2.822132   -0.568453    1.244901
     15          1           0        2.001862   -0.716284   -0.306365
     16          1           0        5.003441   -1.095028    0.141967
     17          1           0        4.184484   -1.242529   -1.408888
     18          1           0        2.814037   -3.152789   -0.509190
     19          1           0        3.637648   -3.004451    1.050477
     20          1           0        4.546287   -3.504193   -0.386166
     21          6           0       -2.357449   -0.367865    2.506445
     22          6           0       -3.523855    0.049674    1.857077
     23          6           0       -3.570887    0.127111    0.461965
     24          6           0       -2.428009   -0.222063   -0.255810
     25          6           0       -1.251013   -0.641741    0.362122
     26          6           0       -1.226744   -0.711634    1.758214
     27          1           0       -2.329756   -0.425089    3.590583
     28          1           0       -4.403486    0.317267    2.435601
     29          1           0       -4.460752    0.447115   -0.066388
     30          1           0       -0.390066   -0.901991   -0.241581
     31          1           0       -0.319522   -1.036240    2.259834
     32          7           0       -2.465751   -0.144077   -1.733271
     33          8           0       -1.445441   -0.457188   -2.342835
     34          8           0       -3.514927    0.228681   -2.253768
 ---------------------------------------------------------------------

 SCF Done:  E(RHF) =  -669.535710753     A.U. after   15 cycles
 E2 =    -0.2092255603D+01 EUMP2 =    -0.67162796635532D+03

 The electronic state is 1-A.
 Alpha  occ. eigenvalues --  -20.60783 -20.60775 -15.85832 -11.31164 -11.27732
 Alpha  occ. eigenvalues --  -11.27705 -11.27467 -11.26749 -11.26721 -11.21949
 Alpha  occ. eigenvalues --  -11.21886 -11.21804 -11.21619 -11.21391 -11.21161
 Alpha  occ. eigenvalues --   -1.59856  -1.39411  -1.19335  -1.08757  -1.08737
 Alpha  occ. eigenvalues --   -1.04730  -1.03780  -0.96246  -0.95578  -0.87257
 Alpha  occ. eigenvalues --   -0.86134  -0.82408  -0.79858  -0.78631  -0.77443
 Alpha  occ. eigenvalues --   -0.72052  -0.71178  -0.70455  -0.65412  -0.64986
 Alpha  occ. eigenvalues --   -0.64704  -0.62087  -0.61161  -0.59615  -0.57862
 Alpha  occ. eigenvalues --   -0.55541  -0.55234  -0.53078  -0.52905  -0.52835
 Alpha  occ. eigenvalues --   -0.52659  -0.50175  -0.48810  -0.48806  -0.48175
 Alpha  occ. eigenvalues --   -0.46887  -0.46120  -0.46031  -0.44820  -0.44068
 Alpha  occ. eigenvalues --   -0.37317  -0.36311
 Alpha virt. eigenvalues --    0.05047   0.11255   0.16546   0.19944   0.22971
 Alpha virt. eigenvalues --    0.24022   0.24678   0.25556   0.27698   0.28270
 Alpha virt. eigenvalues --    0.30273   0.30679   0.31255   0.31585   0.31831

 Mulliken charges:
               1
     1  C   -0.297815
     2  C   -0.302215
     3  C   -0.476042
     4  H    0.150236
     5  H    0.155645
     6  H    0.146843
     7  H    0.155799
     8  H    0.159134
     9  H    0.154427
    10  H    0.160724
    11  C   -0.305125
    12  C   -0.299090
    13  C   -0.476937
    14  H    0.143064
    15  H    0.149692
    16  H    0.153142
    17  H    0.157478
    18  H    0.156151
    19  H    0.151620
    20  H    0.163298
    21  C   -0.170874
    22  C   -0.218650
    23  C   -0.170466
    24  C    0.158818
    25  C   -0.177897
    26  C   -0.221472
    27  H    0.225493
    28  H    0.223332
    29  H    0.275450
    30  H    0.285118
    31  H    0.225327
    32  N    0.487402
    33  O   -0.461497
    34  O   -0.460112
 Sum of Mulliken charges =  -0.00000

 Dipole moment (field-independent basis, Debye):
    X=              0.2323    Y=             -0.2314    Z=              5.1096  Tot=              5.1201
 Quadrupole moment (field-independent basis, Debye-Ang):
   XX=            -90.2665   YY=            -95.9790   ZZ=            -97.2604
   XY=             -1.1358   XZ=            -13.0401   YZ=             -0.8322

 Normal termination of Gaussian 16 at Thu May  6 01:01:20 2021.
