 Gaussian 16, Revision A.03,
 Gaussian 16:  EM64L-G16RevA.03 25-Dec-2016

 -------------
 #p 6-31g* mp2
 -------------

 ------------------------------------------------------
 Input file generated by CHIRIPA (05-May-2021 14:55:21)
 ------------------------------------------------------
 Symbolic Z-matrix:
 Charge =  0 Multiplicity = 1

                         Standard orientation:
 ---------------------------------------------------------------------
 Center     Atomic      Atomic             Coordinates (Angstroms)
 Number     Number       Type             X           Y           Z
 ---------------------------------------------------------------------
      1          6           0       -3.494456    2.121574   -1.109119
      2          6           0       -3.657690    0.809596   -1.565833
      3          6           0       -3.190420   -0.268990   -0.808958
      4          6           0       -2.561780    0.001991    0.405402
      5          6           0       -2.384141    1.297910    0.887406
      6          6           0       -2.859322    2.361122    0.113887
      7          1           0       -3.860515    2.953474   -1.703542
      8          1           0       -4.150559    0.620571   -2.515251
      9          1           0       -3.303551   -1.294596   -1.138735
     10          1           0       -1.888771    1.454847    1.837879
     11          1           0       -2.731164    3.378982    0.471071
     12          7           0       -2.062915   -1.131722    1.215481
     13          8           0       -1.512504   -0.866399    2.281919
     14          8           0       -2.231761   -2.264181    0.768645
     15          6           0        4.103018   -0.066442   -0.157803
     16          6           0        4.296751    1.411422    0.183331
     17          6           0        5.739748    1.746515    0.561838
     18          1           0        4.409516   -0.677881    0.701933
     19          1           0        4.772337   -0.335001   -0.986829
     20          1           0        3.626267    1.677455    1.010550
     21          1           0        3.989576    2.019422   -0.677247
     22          1           0        6.419451    1.508866   -0.262860
     23          1           0        6.054077    1.164956    1.434528
     24          1           0        5.855671    2.808027    0.801866
     25          6           0        2.665620   -0.416991   -0.538237
     26          6           0        2.471887   -1.894854   -0.879371
     27          6           0        1.028890   -2.229947   -1.257879
     28          1           0        1.996302   -0.148432    0.290788
     29          1           0        2.359123    0.194448   -1.397974
     30          1           0        2.779062   -2.502854   -0.018793
     31          1           0        3.142372   -2.160888   -1.706592
     32          1           0        0.714561   -1.648388   -2.130568
     33          1           0        0.349187   -1.992299   -0.433180
     34          1           0        0.912967   -3.291460   -1.497906
 ---------------------------------------------------------------------

 SCF Done:  E(RHF) =  -669.535929502     A.U. after   15 cycles
 E2 =    -0.2091558268D+01 EUMP2 =    -0.67162748777027D+03

 The electronic state is 1-A.
 Alpha  occ. eigenvalues --  -20.60904 -20.60890 -15.85917 -11.31228 -11.27799
 Alpha  occ. eigenvalues --  -11.27787 -11.27536 -11.26802 -11.26791 -11.21385
 Alpha  occ. eigenvalues --  -11.21058 -11.21037 -11.20944 -11.20891 -11.20360
 Alpha  occ. eigenvalues --   -1.59967  -1.39519  -1.19399  -1.08810  -1.08046
 Alpha  occ. eigenvalues --   -1.04794  -1.03121  -0.95655  -0.95563  -0.86583
 Alpha  occ. eigenvalues --   -0.86196  -0.82487  -0.79201  -0.77863  -0.77540
 Alpha  occ. eigenvalues --   -0.72146  -0.71302  -0.70512  -0.65056  -0.64800
 Alpha  occ. eigenvalues --   -0.64668  -0.62143  -0.60507  -0.58951  -0.57182
 Alpha  occ. eigenvalues --   -0.55305  -0.54845  -0.53124  -0.52888  -0.52250
 Alpha  occ. eigenvalues --   -0.52005  -0.49521  -0.48911  -0.48898  -0.47526
 Alpha  occ. eigenvalues --   -0.46252  -0.45418  -0.45326  -0.44825  -0.43377
 Alpha  occ. eigenvalues --   -0.37379  -0.36391
 Alpha virt. eigenvalues --    0.04973   0.11250   0.16456   0.21378   0.23231
 Alpha virt. eigenvalues --    0.24668   0.26936   0.27287   0.27727   0.28170
 Alpha virt. eigenvalues --    0.28515   0.30835   0.31750   0.32122   0.32459

 Mulliken charges:
               1
     1  C   -0.170507
     2  C   -0.218769
     3  C   -0.170206
     4  C    0.157735
     5  C   -0.170663
     6  C   -0.218519
     7  H    0.225759
     8  H    0.223652
     9  H    0.276332
    10  H    0.275418
    11  H    0.223607
    12  N    0.486641
    13  O   -0.459830
    14  O   -0.457022
    15  C   -0.297968
    16  C   -0.299308
    17  C   -0.475467
    18  H    0.151688
    19  H    0.148254
    20  H    0.151836
    21  H    0.149370
    22  H    0.154658
    23  H    0.156205
    24  H    0.158501
    25  C   -0.299118
    26  C   -0.299329
    27  C   -0.478668
    28  H    0.152182
    29  H    0.145516
    30  H    0.155684
    31  H    0.148462
    32  H    0.146663
    33  H    0.165079
    34  H    0.162133
 Sum of Mulliken charges =  -0.00000

 Dipole moment (field-independent basis, Debye):
    X=             -1.8879    Y=              3.9298    Z=             -2.7713  Tot=              5.1660
 Quadrupole moment (field-independent basis, Debye-Ang):
   XX=            -87.1046   YY=            -93.0349   ZZ=            -94.3579
   XY=             -9.6933   XZ=              7.8439   YZ=              3.7098

 Normal termination of Gaussian 16 at Thu May  6 14:10:07 2021.
