 Gaussian 16, Revision A.03,
 Gaussian 16:  EM64L-G16RevA.03 25-Dec-2016

 -------------
 #p 6-31g* mp2
 -------------

 ------------------------------------------------------
 Input file generated by CHIRIPA (05-May-2021 14:55:23)
 ------------------------------------------------------
 Symbolic Z-matrix:
 Charge =  0 Multiplicity = 1

                         Standard orientation:
 ---------------------------------------------------------------------
 Center     Atomic      Atomic             Coordinates (Angstroms)
 Number     Number       Type             X           Y           Z
 ---------------------------------------------------------------------
      1          6           0       -0.478537   -1.271672    0.553246
      2          6           0       -1.541262   -2.041650    0.069232
      3          6           0       -2.784969   -1.455567   -0.184240
      4          6           0       -2.931479   -0.090703    0.058598
      5          6           0       -1.891853    0.703096    0.540626
      6          6           0       -0.656909    0.095833    0.786986
      7          1           0        0.484201   -1.735183    0.747386
      8          1           0       -1.405622   -3.103893   -0.113214
      9          1           0       -3.624632   -2.028142   -0.559129
     10          1           0       -2.057479    1.759668    0.712794
     11          1           0        0.166642    0.696273    1.162857
     12          7           0       -4.243497    0.540968   -0.205977
     13          8           0       -4.346894    1.745378    0.016156
     14          8           0       -5.143616   -0.180298   -0.630473
     15          6           0        3.162610   -0.447009   -0.106314
     16          6           0        4.191547   -1.576524   -0.165211
     17          6           0        3.550216   -2.963605   -0.115238
     18          1           0        2.571066   -0.546088    0.814122
     19          1           0        2.459233   -0.557146   -0.943288
     20          1           0        4.893600   -1.463493    0.670827
     21          1           0        4.780836   -1.474633   -1.085522
     22          1           0        2.864057   -3.101332   -0.957150
     23          1           0        2.977461   -3.090129    0.809177
     24          1           0        4.303799   -3.756129   -0.158594
     25          6           0        3.788410    0.945722   -0.155326
     26          6           0        2.759474    2.075238   -0.096430
     27          6           0        3.400803    3.462319   -0.146402
     28          1           0        4.491787    1.055860    0.681647
     29          1           0        4.379954    1.044802   -1.075764
     30          1           0        2.170183    1.973347    0.823881
     31          1           0        2.057419    1.962207   -0.932467
     32          1           0        3.973559    3.588843   -1.070818
     33          1           0        4.086963    3.600046    0.695510
     34          1           0        2.647222    4.254843   -0.103047
 ---------------------------------------------------------------------

 SCF Done:  E(RHF) =  -669.534502592     A.U. after   15 cycles
 E2 =    -0.2093498704D+01 EUMP2 =    -0.67162800129578D+03

 The electronic state is 1-A.
 Alpha  occ. eigenvalues --  -20.60661 -20.60656 -15.85713 -11.31038 -11.27611
 Alpha  occ. eigenvalues --  -11.27597 -11.27251 -11.26600 -11.26537 -11.22706
 Alpha  occ. eigenvalues --  -11.22658 -11.22636 -11.22402 -11.22284 -11.21837
 Alpha  occ. eigenvalues --   -1.59738  -1.39292  -1.19203  -1.09564  -1.08592
 Alpha  occ. eigenvalues --   -1.04618  -1.04575  -0.97035  -0.95443  -0.88049
 Alpha  occ. eigenvalues --   -0.86006  -0.82292  -0.80666  -0.79448  -0.77327
 Alpha  occ. eigenvalues --   -0.71931  -0.71061  -0.70302  -0.66202  -0.64848
 Alpha  occ. eigenvalues --   -0.64592  -0.62052  -0.61893  -0.60414  -0.58658
 Alpha  occ. eigenvalues --   -0.56323  -0.55105  -0.53700  -0.53473  -0.52932
 Alpha  occ. eigenvalues --   -0.52699  -0.50969  -0.48969  -0.48690  -0.48665
 Alpha  occ. eigenvalues --   -0.47690  -0.46875  -0.46806  -0.44848  -0.44707
 Alpha  occ. eigenvalues --   -0.37149  -0.36206
 Alpha virt. eigenvalues --    0.05183   0.11391   0.16634   0.19496   0.22019
 Alpha virt. eigenvalues --    0.22631   0.24920   0.25990   0.26253   0.28131
 Alpha virt. eigenvalues --    0.29274   0.30383   0.30874   0.31534   0.31764

 Mulliken charges:
               1
     1  C   -0.176854
     2  C   -0.220911
     3  C   -0.171090
     4  C    0.158128
     5  C   -0.173454
     6  C   -0.224002
     7  H    0.234537
     8  H    0.222992
     9  H    0.274848
    10  H    0.275045
    11  H    0.231105
    12  N    0.488072
    13  O   -0.460939
    14  O   -0.460989
    15  C   -0.304879
    16  C   -0.299427
    17  C   -0.480351
    18  H    0.139287
    19  H    0.155254
    20  H    0.155331
    21  H    0.157145
    22  H    0.155860
    23  H    0.149702
    24  H    0.167093
    25  C   -0.298091
    26  C   -0.305042
    27  C   -0.475881
    28  H    0.152219
    29  H    0.154733
    30  H    0.144323
    31  H    0.157193
    32  H    0.158736
    33  H    0.156973
    34  H    0.163336
 Sum of Mulliken charges =  -0.00000

 Dipole moment (field-independent basis, Debye):
    X=              4.9812    Y=             -2.1608    Z=              0.7975  Tot=              5.4880
 Quadrupole moment (field-independent basis, Debye-Ang):
   XX=           -120.8443   YY=            -91.2801   ZZ=            -93.9559
   XY=              7.7274   XZ=             -2.1626   YZ=              1.3149

 Normal termination of Gaussian 16 at Thu May  6 15:58:41 2021.
