 Gaussian 16, Revision A.03,
 Gaussian 16:  EM64L-G16RevA.03 25-Dec-2016

 -------------
 #p 6-31g* mp2
 -------------

 ------------------------------------------------------
 Input file generated by CHIRIPA (05-May-2021 14:51:08)
 ------------------------------------------------------
 Symbolic Z-matrix:
 Charge =  0 Multiplicity = 1

                         Standard orientation:
 ---------------------------------------------------------------------
 Center     Atomic      Atomic             Coordinates (Angstroms)
 Number     Number       Type             X           Y           Z
 ---------------------------------------------------------------------
      1          6           0       -2.803396   -0.431946    0.272893
      2          6           0       -3.637597    0.240635   -0.817853
      3          6           0       -4.517780    1.368316   -0.278033
      4          1           0       -3.474619   -0.827543    1.047430
      5          1           0       -2.173466    0.324171    0.761636
      6          1           0       -4.264751   -0.516774   -1.305322
      7          1           0       -2.964321    0.634508   -1.589979
      8          1           0       -3.904673    2.144673    0.190979
      9          1           0       -5.212492    0.986849    0.477254
     10          1           0       -5.105491    1.835223   -1.074558
     11          6           0       -1.918254   -1.561348   -0.251229
     12          6           0       -1.084053   -2.233929    0.839517
     13          6           0       -0.203871   -3.361611    0.299696
     14          1           0       -2.548184   -2.317465   -0.739973
     15          1           0       -1.247031   -1.165751   -1.025766
     16          1           0       -1.757330   -2.627803    1.611643
     17          1           0       -0.456899   -1.476520    1.326986
     18          1           0        0.490842   -2.980144   -0.455590
     19          1           0       -0.816977   -4.137968   -0.169315
     20          1           0        0.383841   -3.828517    1.096222
     21          6           0        1.804409    1.370721    0.355094
     22          6           0        1.616065    2.807144   -0.133988
     23          6           0        0.499349    3.542500    0.607626
     24          1           0        0.859905    0.822532    0.235322
     25          1           0        2.024237    1.383170    1.431624
     26          1           0        1.398025    2.792071   -1.209557
     27          1           0        2.561181    3.351924   -0.013216
     28          1           0        0.713675    3.587152    1.680319
     29          1           0       -0.456090    3.024119    0.477181
     30          1           0        0.381899    4.567445    0.242174
     31          6           0        2.917241    0.622574   -0.376758
     32          6           0        3.105586   -0.813849    0.112325
     33          6           0        4.222301   -1.549206   -0.629290
     34          1           0        2.697414    0.610124   -1.453287
     35          1           0        3.861745    1.170762   -0.256985
     36          1           0        2.160469   -1.358629   -0.008448
     37          1           0        3.323626   -0.798777    1.187893
     38          1           0        5.177741   -1.030824   -0.498845
     39          1           0        4.007976   -1.593858   -1.701984
     40          1           0        4.339751   -2.574150   -0.263839
 ---------------------------------------------------------------------

 SCF Done:  E(RHF) =  -470.733156138     A.U. after   11 cycles
 E2 =    -0.1584317081D+01 EUMP2 =    -0.47231747321839D+03

 The electronic state is 1-A.
 Alpha  occ. eigenvalues --  -11.21664 -11.21638 -11.21615 -11.21579 -11.21461
 Alpha  occ. eigenvalues --  -11.21452 -11.21393 -11.21392 -11.21143 -11.21093
 Alpha  occ. eigenvalues --  -11.21089 -11.21075  -1.08508  -1.08441  -1.03599
 Alpha  occ. eigenvalues --   -1.03531  -0.96039  -0.95996  -0.87057  -0.87009
 Alpha  occ. eigenvalues --   -0.79660  -0.79593  -0.78323  -0.78257  -0.65366
 Alpha  occ. eigenvalues --   -0.64872  -0.61199  -0.60763  -0.59398  -0.59360
 Alpha  occ. eigenvalues --   -0.57644  -0.57611  -0.55441  -0.55188  -0.52713
 Alpha  occ. eigenvalues --   -0.52694  -0.52448  -0.52430  -0.50099  -0.49843
 Alpha  occ. eigenvalues --   -0.48024  -0.47867  -0.46753  -0.46551  -0.46084
 Alpha  occ. eigenvalues --   -0.45808  -0.45719  -0.45460  -0.43821  -0.43818
 Alpha virt. eigenvalues --    0.18812   0.21641   0.23805   0.24767   0.25679
 Alpha virt. eigenvalues --    0.26661   0.26872   0.27420   0.28302   0.29832
 Alpha virt. eigenvalues --    0.31041   0.31606   0.31648   0.31787   0.32500

 Mulliken charges:
               1
     1  C   -0.301261
     2  C   -0.299518
     3  C   -0.476121
     4  H    0.150203
     5  H    0.151453
     6  H    0.152141
     7  H    0.151541
     8  H    0.155566
     9  H    0.155397
    10  H    0.160453
    11  C   -0.298484
    12  C   -0.304108
    13  C   -0.478188
    14  H    0.150016
    15  H    0.148786
    16  H    0.152465
    17  H    0.155849
    18  H    0.156778
    19  H    0.155631
    20  H    0.160867
    21  C   -0.303377
    22  C   -0.299522
    23  C   -0.477040
    24  H    0.153450
    25  H    0.149763
    26  H    0.151932
    27  H    0.152520
    28  H    0.155584
    29  H    0.155211
    30  H    0.160812
    31  C   -0.297667
    32  C   -0.308852
    33  C   -0.475472
    34  H    0.149009
    35  H    0.149950
    36  H    0.161769
    37  H    0.151738
    38  H    0.155248
    39  H    0.154727
    40  H    0.160751
 Sum of Mulliken charges =  -0.00000

 Dipole moment (field-independent basis, Debye):
    X=             -0.0006    Y=             -0.0113    Z=              0.0174  Tot=              0.0208
 Quadrupole moment (field-independent basis, Debye-Ang):
   XX=            -84.7718   YY=            -85.3037   ZZ=            -84.5244
   XY=              1.8415   XZ=              0.8578   YZ=             -0.3974

 Normal termination of Gaussian 16 at Thu May  6 10:01:05 2021.
