 Gaussian 16, Revision A.03,
 Gaussian 16:  EM64L-G16RevA.03 25-Dec-2016

 -------------
 #p 6-31g* mp2
 -------------

 ------------------------------------------------------
 Input file generated by CHIRIPA (05-May-2021 14:51:09)
 ------------------------------------------------------
 Symbolic Z-matrix:
 Charge =  0 Multiplicity = 1

                         Standard orientation:
 ---------------------------------------------------------------------
 Center     Atomic      Atomic             Coordinates (Angstroms)
 Number     Number       Type             X           Y           Z
 ---------------------------------------------------------------------
      1          6           0       -3.738234   -0.441959   -0.557036
      2          6           0       -4.430415   -1.464599    0.344672
      3          6           0       -4.820808   -2.741332   -0.400539
      4          1           0       -4.403944   -0.190654   -1.394067
      5          1           0       -2.841425   -0.899379   -0.997372
      6          1           0       -5.324893   -1.004940    0.784263
      7          1           0       -3.763057   -1.713355    1.179758
      8          1           0       -3.935499   -3.225402   -0.825398
      9          1           0       -5.506209   -2.512963   -1.223141
     10          1           0       -5.314109   -3.458520    0.262904
     11          6           0       -3.341873    0.839776    0.173568
     12          6           0       -2.649692    1.862416   -0.728140
     13          6           0       -2.259299    3.139150    0.017071
     14          1           0       -4.238682    1.297197    0.613904
     15          1           0       -2.676164    0.588471    1.010599
     16          1           0       -3.317050    2.111172   -1.563226
     17          1           0       -1.755214    1.402758   -1.167731
     18          1           0       -1.573898    2.910780    0.839673
     19          1           0       -3.144608    3.623220    0.441930
     20          1           0       -1.765998    3.856338   -0.646372
     21          6           0        4.196944   -0.588651    0.196991
     22          6           0        5.311435    0.090653   -0.599527
     23          6           0        6.619310   -0.701091   -0.579591
     24          1           0        4.528362   -0.725876    1.235392
     25          1           0        4.024292   -1.594015   -0.211456
     26          1           0        5.480984    1.094960   -0.190581
     27          1           0        4.977252    0.226450   -1.636107
     28          1           0        6.472466   -1.698370   -1.006760
     29          1           0        6.979060   -0.824925    0.446979
     30          1           0        7.402300   -0.197460   -1.155039
     31          6           0        2.883163    0.190834    0.186477
     32          6           0        1.768672   -0.488471    0.982995
     33          6           0        0.460797    0.303274    0.963059
     34          1           0        3.055816    1.196198    0.594924
     35          1           0        2.551745    0.328058   -0.851923
     36          1           0        2.102855   -0.624268    2.019575
     37          1           0        1.599123   -1.492778    0.574050
     38          1           0        0.101047    0.427107   -0.063511
     39          1           0        0.607641    1.300552    1.390228
     40          1           0       -0.322193   -0.200358    1.538507
 ---------------------------------------------------------------------

 SCF Done:  E(RHF) =  -470.732410098     A.U. after   11 cycles
 E2 =    -0.1583932418D+01 EUMP2 =    -0.47231634251607D+03

 The electronic state is 1-A.
 Alpha  occ. eigenvalues --  -11.21670 -11.21631 -11.21567 -11.21486 -11.21454
 Alpha  occ. eigenvalues --  -11.21392 -11.21323 -11.21230 -11.21159 -11.21094
 Alpha  occ. eigenvalues --  -11.21047 -11.20951  -1.08488  -1.08346  -1.03608
 Alpha  occ. eigenvalues --   -1.03439  -0.96047  -0.95903  -0.87079  -0.86914
 Alpha  occ. eigenvalues --   -0.79664  -0.79526  -0.78294  -0.78170  -0.65160
 Alpha  occ. eigenvalues --   -0.64961  -0.61060  -0.60817  -0.59432  -0.59262
 Alpha  occ. eigenvalues --   -0.57670  -0.57511  -0.55364  -0.55171  -0.52757
 Alpha  occ. eigenvalues --   -0.52603  -0.52497  -0.52270  -0.50154  -0.49694
 Alpha  occ. eigenvalues --   -0.48047  -0.47762  -0.46817  -0.46426  -0.45877
 Alpha  occ. eigenvalues --   -0.45773  -0.45676  -0.45537  -0.43790  -0.43704
 Alpha virt. eigenvalues --    0.20828   0.22983   0.23910   0.24638   0.25525
 Alpha virt. eigenvalues --    0.26165   0.26705   0.27577   0.27905   0.29287
 Alpha virt. eigenvalues --    0.30496   0.30808   0.31693   0.31958   0.32356

 Mulliken charges:
               1
     1  C   -0.298368
     2  C   -0.299460
     3  C   -0.475621
     4  H    0.149373
     5  H    0.149060
     6  H    0.151943
     7  H    0.151233
     8  H    0.154976
     9  H    0.155151
    10  H    0.160076
    11  C   -0.302375
    12  C   -0.300803
    13  C   -0.478497
    14  H    0.148876
    15  H    0.155430
    16  H    0.151433
    17  H    0.153399
    18  H    0.159028
    19  H    0.154502
    20  H    0.159360
    21  C   -0.298309
    22  C   -0.299680
    23  C   -0.475736
    24  H    0.149777
    25  H    0.149565
    26  H    0.152044
    27  H    0.152007
    28  H    0.155217
    29  H    0.155229
    30  H    0.160383
    31  C   -0.298599
    32  C   -0.300451
    33  C   -0.481117
    34  H    0.149822
    35  H    0.149580
    36  H    0.152126
    37  H    0.151882
    38  H    0.159995
    39  H    0.156390
    40  H    0.161161
 Sum of Mulliken charges =  -0.00000

 Dipole moment (field-independent basis, Debye):
    X=              0.0521    Y=             -0.0005    Z=              0.0205  Tot=              0.0560
 Quadrupole moment (field-independent basis, Debye-Ang):
   XX=            -85.1681   YY=            -85.6415   ZZ=            -84.1955
   XY=             -0.0546   XZ=              0.3565   YZ=             -0.0437

 Normal termination of Gaussian 16 at Wed May  5 18:10:26 2021.
