 Gaussian 16, Revision A.03,
 Gaussian 16:  EM64L-G16RevA.03 25-Dec-2016

 -------------
 #p 6-31g* mp2
 -------------

 ------------------------------------------------------
 Input file generated by CHIRIPA (05-May-2021 14:53:13)
 ------------------------------------------------------
 Symbolic Z-matrix:
 Charge =  0 Multiplicity = 1

                         Standard orientation:
 ---------------------------------------------------------------------
 Center     Atomic      Atomic             Coordinates (Angstroms)
 Number     Number       Type             X           Y           Z
 ---------------------------------------------------------------------
      1          6           0        3.066815    0.700064   -0.123492
      2          6           0        3.530534    2.119112    0.207043
      3          6           0        2.367312    3.097214    0.374450
      4          1           0        2.468711    0.721843   -1.044764
      5          1           0        2.399624    0.344727    0.673995
      6          1           0        4.197753    2.471147   -0.590144
      7          1           0        4.127765    2.093924    1.127531
      8          1           0        1.704332    2.772584    1.182951
      9          1           0        1.774718    3.151950   -0.544483
     10          1           0        2.721450    4.105582    0.610330
     11          6           0        4.218274   -0.289303   -0.293852
     12          6           0        3.754555   -1.708351   -0.624388
     13          6           0        4.917777   -2.686453   -0.791795
     14          1           0        4.885466    0.066035   -1.091339
     15          1           0        4.816379   -0.311082    0.627419
     16          1           0        3.157325   -1.683163   -1.544875
     17          1           0        3.087336   -2.060386    0.172799
     18          1           0        5.510371   -2.741189    0.127138
     19          1           0        5.580757   -2.361823   -1.600296
     20          1           0        4.563639   -3.694821   -1.027675
     21          6           0       -0.997020   -0.460783    1.853578
     22          6           0       -0.833314    0.430676    0.788205
     23          6           0       -1.850956    0.605092   -0.154415
     24          6           0       -3.024465   -0.131419   -0.000412
     25          6           0       -3.217591   -1.027196    1.050101
     26          6           0       -2.186540   -1.185596    1.980902
     27          1           0       -0.201283   -0.590053    2.581237
     28          1           0        0.089406    0.994904    0.686812
     29          1           0       -1.750709    1.288529   -0.988851
     30          1           0       -4.148746   -1.575649    1.124716
     31          1           0       -2.316453   -1.878618    2.807273
     32          7           0       -4.108895    0.044751   -0.992065
     33          8           0       -5.133183   -0.615934   -0.834049
     34          8           0       -3.914050    0.840179   -1.908560
 ---------------------------------------------------------------------

 SCF Done:  E(RHF) =  -669.534912418     A.U. after   15 cycles
 E2 =    -0.2092377575D+01 EUMP2 =    -0.67162728999282D+03

 The electronic state is 1-A.
 Alpha  occ. eigenvalues --  -20.60696 -20.60691 -15.85746 -11.31093 -11.27656
 Alpha  occ. eigenvalues --  -11.27627 -11.27391 -11.26684 -11.26554 -11.22563
 Alpha  occ. eigenvalues --  -11.22443 -11.22251 -11.22189 -11.22152 -11.21589
 Alpha  occ. eigenvalues --   -1.59771  -1.39325  -1.19254  -1.09324  -1.08657
 Alpha  occ. eigenvalues --   -1.04654  -1.04362  -0.96834  -0.95499  -0.87847
 Alpha  occ. eigenvalues --   -0.86062  -0.82333  -0.80443  -0.79153  -0.77362
 Alpha  occ. eigenvalues --   -0.71967  -0.71093  -0.70379  -0.65984  -0.64903
 Alpha  occ. eigenvalues --   -0.64657  -0.62071  -0.61706  -0.60181  -0.58444
 Alpha  occ. eigenvalues --   -0.56140  -0.55167  -0.53487  -0.53296  -0.52966
 Alpha  occ. eigenvalues --   -0.52772  -0.50781  -0.48812  -0.48723  -0.48628
 Alpha  occ. eigenvalues --   -0.47460  -0.46609  -0.46566  -0.44735  -0.44623
 Alpha  occ. eigenvalues --   -0.37239  -0.36241
 Alpha virt. eigenvalues --    0.05144   0.11330   0.16626   0.19691   0.22470
 Alpha virt. eigenvalues --    0.23599   0.25044   0.26062   0.26665   0.28583
 Alpha virt. eigenvalues --    0.29502   0.30221   0.30747   0.31250   0.31897

 Mulliken charges:
               1
     1  C   -0.302299
     2  C   -0.299631
     3  C   -0.481916
     4  H    0.152013
     5  H    0.140264
     6  H    0.157263
     7  H    0.154198
     8  H    0.149149
     9  H    0.156161
    10  H    0.168294
    11  C   -0.298400
    12  C   -0.299898
    13  C   -0.476343
    14  H    0.153204
    15  H    0.150565
    16  H    0.154876
    17  H    0.149505
    18  H    0.155226
    19  H    0.157012
    20  H    0.162509
    21  C   -0.174936
    22  C   -0.226112
    23  C   -0.174883
    24  C    0.159162
    25  C   -0.171722
    26  C   -0.218160
    27  H    0.224182
    28  H    0.240925
    29  H    0.275290
    30  H    0.275137
    31  H    0.222801
    32  N    0.488013
    33  O   -0.460788
    34  O   -0.460660
 Sum of Mulliken charges =  -0.00000

 Dipole moment (field-independent basis, Debye):
    X=              4.0953    Y=             -0.5816    Z=              3.4011  Tot=              5.3551
 Quadrupole moment (field-independent basis, Debye-Ang):
   XX=           -116.5471   YY=            -93.0118   ZZ=            -93.1461
   XY=              4.3416   XZ=            -12.3766   YZ=             -2.7289

 Normal termination of Gaussian 16 at Wed May  5 23:23:48 2021.
