 Gaussian 16, Revision A.03,
 Gaussian 16:  EM64L-G16RevA.03 25-Dec-2016

 -------------
 #p 6-31g* mp2
 -------------

 ------------------------------------------------------
 Input file generated by CHIRIPA (05-May-2021 14:57:21)
 ------------------------------------------------------
 Symbolic Z-matrix:
 Charge =  0 Multiplicity = 1

                         Standard orientation:
 ---------------------------------------------------------------------
 Center     Atomic      Atomic             Coordinates (Angstroms)
 Number     Number       Type             X           Y           Z
 ---------------------------------------------------------------------
      1          6           0       -4.228641    2.501192   -0.170719
      2          6           0       -5.291581    1.591974   -0.170568
      3          6           0       -5.048407    0.215398   -0.149268
      4          6           0       -3.723986   -0.219068   -0.128354
      5          6           0       -2.643594    0.661864   -0.127926
      6          6           0       -2.910364    2.034059   -0.149435
      7          1           0       -4.426709    3.568848   -0.187346
      8          1           0       -6.316389    1.951893   -0.187070
      9          1           0       -5.852454   -0.510499   -0.148641
     10          1           0       -1.632724    0.272916   -0.111191
     11          1           0       -2.082895    2.737863   -0.149499
     12          7           0       -3.454059   -1.674069   -0.105694
     13          8           0       -2.278200   -2.031369   -0.087509
     14          8           0       -4.423459   -2.429647   -0.106548
     15          6           0        5.869815    0.320625   -1.222076
     16          6           0        5.866786    0.601327    0.148223
     17          6           0        4.708211    0.415906    0.908401
     18          6           0        3.565323   -0.053734    0.263004
     19          6           0        3.536787   -0.342351   -1.100512
     20          6           0        4.706857   -0.149490   -1.840978
     21          1           0        6.774289    0.467553   -1.804944
     22          1           0        6.768494    0.966540    0.631532
     23          1           0        4.678023    0.625322    1.970782
     24          1           0        2.622524   -0.705192   -1.554261
     25          1           0        4.706291   -0.368315   -2.905008
     26          7           0        2.332708   -0.253970    1.057337
     27          8           0        1.338821   -0.668755    0.465071
     28          8           0        2.383810    0.007662    2.257159
 ---------------------------------------------------------------------

 SCF Done:  E(RHF) =  -868.338105874     A.U. after   16 cycles
 E2 =    -0.2599154806D+01 EUMP2 =    -0.87093726067991D+03

 The electronic state is 1-A.
 Alpha  occ. eigenvalues --  -20.60883 -20.60875 -20.59800 -20.59735 -15.85915
 Alpha  occ. eigenvalues --  -15.84823 -11.31260 -11.30264 -11.27833 -11.27810
 Alpha  occ. eigenvalues --  -11.27570 -11.26937 -11.26842 -11.26824 -11.26722
 Alpha  occ. eigenvalues --  -11.26710 -11.25977 -11.25888  -1.59947  -1.58855
 Alpha  occ. eigenvalues --   -1.39499  -1.38396  -1.19433  -1.18476  -1.08832
 Alpha  occ. eigenvalues --   -1.07876  -1.04829  -1.03885  -0.95666  -0.94680
 Alpha  occ. eigenvalues --   -0.86228  -0.85284  -0.82493  -0.81502  -0.77546
 Alpha  occ. eigenvalues --   -0.76512  -0.72119  -0.71271  -0.71034  -0.70536
 Alpha  occ. eigenvalues --   -0.70186  -0.69587  -0.65083  -0.64829  -0.64129
 Alpha  occ. eigenvalues --   -0.63901  -0.62172  -0.61200  -0.55333  -0.54429
 Alpha  occ. eigenvalues --   -0.53165  -0.52918  -0.52233  -0.51974  -0.48892
 Alpha  occ. eigenvalues --   -0.48876  -0.47832  -0.47769  -0.44905  -0.43786
 Alpha  occ. eigenvalues --   -0.37418  -0.36506  -0.36434  -0.35497
 Alpha virt. eigenvalues --    0.04953   0.06002   0.11220   0.12150   0.16428
 Alpha virt. eigenvalues --    0.17449   0.21351   0.22265   0.27288   0.28007
 Alpha virt. eigenvalues --    0.28309   0.29237   0.30912   0.31737   0.32458

 Mulliken charges:
               1
     1  C   -0.171144
     2  C   -0.219693
     3  C   -0.171401
     4  C    0.155824
     5  C   -0.176263
     6  C   -0.220706
     7  H    0.221924
     8  H    0.219901
     9  H    0.273096
    10  H    0.295242
    11  H    0.221666
    12  N    0.486471
    13  O   -0.451270
    14  O   -0.466689
    15  C   -0.170741
    16  C   -0.218693
    17  C   -0.171059
    18  C    0.157212
    19  C   -0.171679
    20  C   -0.218724
    21  H    0.225859
    22  H    0.223531
    23  H    0.275553
    24  H    0.277881
    25  H    0.224244
    26  N    0.489229
    27  O   -0.459885
    28  O   -0.459685
 Sum of Mulliken charges =  -0.00000

 Dipole moment (field-independent basis, Debye):
    X=              3.7570    Y=              5.7128    Z=             -2.8566  Tot=              7.4102
 Quadrupole moment (field-independent basis, Debye-Ang):
   XX=            -62.6976   YY=           -108.2550   ZZ=           -103.9552
   XY=            -14.6969   XZ=             -6.4660   YZ=              1.2040

 Normal termination of Gaussian 16 at Thu May  6 16:08:26 2021.
