 Gaussian 16, Revision A.03,
 Gaussian 16:  EM64L-G16RevA.03 25-Dec-2016

 -------------
 #p 6-31g* mp2
 -------------

 ------------------------------------------------------
 Input file generated by CHIRIPA (05-May-2021 14:55:23)
 ------------------------------------------------------
 Symbolic Z-matrix:
 Charge =  0 Multiplicity = 1

                         Standard orientation:
 ---------------------------------------------------------------------
 Center     Atomic      Atomic             Coordinates (Angstroms)
 Number     Number       Type             X           Y           Z
 ---------------------------------------------------------------------
      1          6           0       -0.874367   -0.458882    1.980581
      2          6           0       -1.434189    0.774611    1.631845
      3          6           0       -2.435731    0.850253    0.659353
      4          6           0       -2.855525   -0.332733    0.053046
      5          6           0       -2.317318   -1.576718    0.378811
      6          6           0       -1.316938   -1.628547    1.354055
      7          1           0       -0.096796   -0.508393    2.737105
      8          1           0       -1.092438    1.684618    2.116755
      9          1           0       -2.886383    1.791922    0.370235
     10          1           0       -2.678604   -2.466688   -0.122033
     11          1           0       -0.883981   -2.587884    1.622882
     12          7           0       -3.915197   -0.265259   -0.977944
     13          8           0       -4.267634   -1.321967   -1.497360
     14          8           0       -4.373267    0.843058   -1.247097
     15          6           0        3.778997   -0.192049   -0.034316
     16          6           0        4.991398   -0.592427   -0.875604
     17          6           0        5.675897   -1.859010   -0.360798
     18          1           0        4.096508   -0.041716    1.006612
     19          1           0        3.058214   -1.021368   -0.024575
     20          1           0        5.709064    0.237926   -0.884894
     21          1           0        4.670999   -0.741638   -1.914689
     22          1           0        4.979116   -2.703432   -0.367722
     23          1           0        6.023079   -1.718302    0.667924
     24          1           0        6.539934   -2.127069   -0.976790
     25          6           0        3.084050    1.072313   -0.536477
     26          6           0        1.871649    1.472692    0.304811
     27          6           0        1.187151    2.739273   -0.209996
     28          1           0        3.804835    1.901632   -0.546218
     29          1           0        2.766540    0.921980   -1.577406
     30          1           0        2.192048    1.621902    1.343896
     31          1           0        1.153984    0.642339    0.314100
     32          1           0        0.839970    2.598567   -1.238717
     33          1           0        1.883932    3.583696   -0.203071
     34          1           0        0.323114    3.007332    0.405996
 ---------------------------------------------------------------------

 SCF Done:  E(RHF) =  -669.533999520     A.U. after   15 cycles
 E2 =    -0.2093819526D+01 EUMP2 =    -0.67162781904639D+03

 The electronic state is 1-A.
 Alpha  occ. eigenvalues --  -20.60796 -20.60790 -15.85851 -11.31230 -11.27811
 Alpha  occ. eigenvalues --  -11.27788 -11.27520 -11.26823 -11.26785 -11.22050
 Alpha  occ. eigenvalues --  -11.22003 -11.21888 -11.21800 -11.21620 -11.21466
 Alpha  occ. eigenvalues --   -1.59872  -1.39424  -1.19419  -1.08929  -1.08781
 Alpha  occ. eigenvalues --   -1.04829  -1.03990  -0.96454  -0.95635  -0.87468
 Alpha  occ. eigenvalues --   -0.86215  -0.82466  -0.80073  -0.78730  -0.77510
 Alpha  occ. eigenvalues --   -0.72068  -0.71196  -0.70508  -0.65529  -0.65062
 Alpha  occ. eigenvalues --   -0.64840  -0.62199  -0.61402  -0.59842  -0.58095
 Alpha  occ. eigenvalues --   -0.55739  -0.55308  -0.53320  -0.53074  -0.52965
 Alpha  occ. eigenvalues --   -0.52704  -0.50373  -0.48828  -0.48822  -0.48387
 Alpha  occ. eigenvalues --   -0.47083  -0.46268  -0.46176  -0.44827  -0.44263
 Alpha  occ. eigenvalues --   -0.37287  -0.36386
 Alpha virt. eigenvalues --    0.05001   0.11178   0.16392   0.20356   0.22616
 Alpha virt. eigenvalues --    0.23982   0.25922   0.26141   0.26792   0.28473
 Alpha virt. eigenvalues --    0.28530   0.30248   0.31027   0.31663   0.32209

 Mulliken charges:
               1
     1  C   -0.172397
     2  C   -0.214168
     3  C   -0.170810
     4  C    0.158075
     5  C   -0.171113
     6  C   -0.219334
     7  H    0.227616
     8  H    0.224847
     9  H    0.275967
    10  H    0.275763
    11  H    0.223816
    12  N    0.488080
    13  O   -0.460495
    14  O   -0.460120
    15  C   -0.298241
    16  C   -0.299962
    17  C   -0.475852
    18  H    0.147097
    19  H    0.147243
    20  H    0.153121
    21  H    0.153943
    22  H    0.154253
    23  H    0.154444
    24  H    0.162109
    25  C   -0.297680
    26  C   -0.308446
    27  C   -0.473937
    28  H    0.150176
    29  H    0.152720
    30  H    0.143083
    31  H    0.162858
    32  H    0.160807
    33  H    0.156844
    34  H    0.149695
 Sum of Mulliken charges =  -0.00000

 Dipole moment (field-independent basis, Debye):
    X=              3.7398    Y=             -0.2772    Z=              3.5680  Tot=              5.1763
 Quadrupole moment (field-independent basis, Debye-Ang):
   XX=           -116.8597   YY=            -90.3363   ZZ=            -94.6581
   XY=             -0.0359   XZ=            -10.3174   YZ=             -0.1578

 Normal termination of Gaussian 16 at Wed May  5 16:03:16 2021.
