 Gaussian 16, Revision A.03,
 Gaussian 16:  EM64L-G16RevA.03 25-Dec-2016

 -------------
 #p 6-31g* mp2
 -------------

 ------------------------------------------------------
 Input file generated by CHIRIPA (05-May-2021 14:53:16)
 ------------------------------------------------------
 Symbolic Z-matrix:
 Charge =  0 Multiplicity = 1

                         Standard orientation:
 ---------------------------------------------------------------------
 Center     Atomic      Atomic             Coordinates (Angstroms)
 Number     Number       Type             X           Y           Z
 ---------------------------------------------------------------------
      1          6           0        3.777713   -0.558764   -0.233547
      2          6           0        4.203034   -1.769459    0.597900
      3          6           0        4.144076   -3.078188   -0.190481
      4          1           0        2.756626   -0.718316   -0.606198
      5          1           0        4.425256   -0.484488   -1.118175
      6          1           0        3.555768   -1.840622    1.481415
      7          1           0        5.223156   -1.606922    0.968774
      8          1           0        4.803457   -3.032213   -1.063238
      9          1           0        3.126595   -3.267242   -0.547683
     10          1           0        4.452153   -3.930628    0.422947
     11          6           0        3.831376    0.756992    0.540814
     12          6           0        3.406055    1.967688   -0.290633
     13          6           0        3.465013    3.276417    0.497748
     14          1           0        3.183833    0.682717    1.425442
     15          1           0        4.852463    0.916545    0.913465
     16          1           0        2.385932    1.805150   -0.661507
     17          1           0        4.053320    2.038851   -1.174149
     18          1           0        4.482493    3.465471    0.854950
     19          1           0        2.805632    3.230442    1.370504
     20          1           0        3.156936    4.128857   -0.115680
     21          6           0       -0.541718   -0.053400   -0.796498
     22          6           0       -1.284082    1.132015   -0.810887
     23          6           0       -2.631505    1.130511   -0.438066
     24          6           0       -3.207281   -0.079757   -0.054628
     25          6           0       -2.494105   -1.277280   -0.029925
     26          6           0       -1.148030   -1.252151   -0.406751
     27          1           0        0.504469   -0.043056   -1.087670
     28          1           0       -0.815830    2.064454   -1.113118
     29          1           0       -3.229567    2.033693   -0.440057
     30          1           0       -2.988471   -2.191262    0.276107
     31          1           0       -0.573948   -2.174283   -0.394618
     32          7           0       -4.633023   -0.093854    0.342181
     33          8           0       -5.116989   -1.173203    0.675979
     34          8           0       -5.239559    0.974712    0.311889
 ---------------------------------------------------------------------

 SCF Done:  E(RHF) =  -669.535307573     A.U. after   15 cycles
 E2 =    -0.2091938361D+01 EUMP2 =    -0.67162724593416D+03

 The electronic state is 1-A.
 Alpha  occ. eigenvalues --  -20.60754 -20.60749 -15.85808 -11.31176 -11.27748
 Alpha  occ. eigenvalues --  -11.27743 -11.27456 -11.26762 -11.26750 -11.22713
 Alpha  occ. eigenvalues --  -11.22573 -11.22508 -11.22366 -11.21965 -11.21936
 Alpha  occ. eigenvalues --   -1.59830  -1.39383  -1.19349  -1.09476  -1.08741
 Alpha  occ. eigenvalues --   -1.04753  -1.04503  -0.96938  -0.95579  -0.87948
 Alpha  occ. eigenvalues --   -0.86150  -0.82414  -0.80571  -0.79311  -0.77457
 Alpha  occ. eigenvalues --   -0.72026  -0.71153  -0.70494  -0.66111  -0.65001
 Alpha  occ. eigenvalues --   -0.64745  -0.62117  -0.61887  -0.60304  -0.58558
 Alpha  occ. eigenvalues --   -0.56263  -0.55245  -0.53602  -0.53352  -0.53080
 Alpha  occ. eigenvalues --   -0.52843  -0.50880  -0.48885  -0.48786  -0.48780
 Alpha  occ. eigenvalues --   -0.47622  -0.46829  -0.46728  -0.44788  -0.44774
 Alpha  occ. eigenvalues --   -0.37323  -0.36359
 Alpha virt. eigenvalues --    0.05067   0.11274   0.16483   0.18427   0.22448
 Alpha virt. eigenvalues --    0.23016   0.24932   0.26117   0.26544   0.26804
 Alpha virt. eigenvalues --    0.30157   0.30200   0.30902   0.31025   0.31629

 Mulliken charges:
               1
     1  C   -0.301506
     2  C   -0.300743
     3  C   -0.475057
     4  H    0.139398
     5  H    0.153318
     6  H    0.153680
     7  H    0.156208
     8  H    0.157704
     9  H    0.149338
    10  H    0.164318
    11  C   -0.299778
    12  C   -0.300597
    13  C   -0.476772
    14  H    0.152694
    15  H    0.154570
    16  H    0.140953
    17  H    0.155139
    18  H    0.159127
    19  H    0.157752
    20  H    0.161176
    21  C   -0.178402
    22  C   -0.221073
    23  C   -0.170681
    24  C    0.158274
    25  C   -0.170747
    26  C   -0.221355
    27  H    0.237586
    28  H    0.224219
    29  H    0.275572
    30  H    0.275609
    31  H    0.222966
    32  N    0.487993
    33  O   -0.460459
    34  O   -0.460421
 Sum of Mulliken charges =  -0.00000

 Dipole moment (field-independent basis, Debye):
    X=              5.2927    Y=              0.0766    Z=             -1.2984  Tot=              5.4502
 Quadrupole moment (field-independent basis, Debye-Ang):
   XX=           -125.4131   YY=            -90.5853   ZZ=            -95.3869
   XY=             -0.7140   XZ=              4.3015   YZ=             -1.3097

 Normal termination of Gaussian 16 at Thu May  6 20:27:04 2021.
