 Gaussian 16, Revision A.03,
 Gaussian 16:  EM64L-G16RevA.03 25-Dec-2016

 -------------
 #p 6-31g* mp2
 -------------

 ------------------------------------------------------
 Input file generated by CHIRIPA (05-May-2021 14:51:08)
 ------------------------------------------------------
 Symbolic Z-matrix:
 Charge =  0 Multiplicity = 1

                         Standard orientation:
 ---------------------------------------------------------------------
 Center     Atomic      Atomic             Coordinates (Angstroms)
 Number     Number       Type             X           Y           Z
 ---------------------------------------------------------------------
      1          6           0        3.481561    0.844147    0.386632
      2          6           0        3.870137    1.978134   -0.562613
      3          6           0        3.828661    3.351294    0.108584
      4          1           0        2.472532    1.032017    0.778436
      5          1           0        4.159070    0.851076    1.251692
      6          1           0        3.192964    1.968205   -1.426300
      7          1           0        4.878282    1.787445   -0.952351
      8          1           0        4.517404    3.385407    0.958920
      9          1           0        2.822510    3.567195    0.482278
     10          1           0        4.109917    4.147278   -0.587953
     11          6           0        3.518266   -0.534791   -0.269805
     12          6           0        3.129690   -1.668779    0.679440
     13          6           0        3.171166   -3.041939    0.008242
     14          1           0        2.840757   -0.541720   -1.134865
     15          1           0        4.527295   -0.722661   -0.661609
     16          1           0        2.121545   -1.478089    1.069178
     17          1           0        3.806863   -1.658850    1.543126
     18          1           0        4.177317   -3.257840   -0.365452
     19          1           0        2.482423   -3.076052   -0.842093
     20          1           0        2.889910   -3.837923    0.704780
     21          6           0       -4.255579   -0.226421   -0.143588
     22          6           0       -5.034936    1.017099    0.285647
     23          6           0       -6.545384    0.858202    0.109317
     24          1           0       -4.482045   -0.448342   -1.195448
     25          1           0       -4.605057   -1.089267    0.440157
     26          1           0       -4.683125    1.877611   -0.297761
     27          1           0       -4.806440    1.236197    1.336553
     28          1           0       -6.916380    0.017487    0.704432
     29          1           0       -6.792365    0.662545   -0.939168
     30          1           0       -7.083031    1.758712    0.422170
     31          6           0       -2.744248   -0.082934    0.026761
     32          6           0       -1.964891   -1.326455   -0.402474
     33          6           0       -0.454443   -1.167558   -0.226143
     34          1           0       -2.394770    0.779911   -0.556984
     35          1           0       -2.517782    0.138986    1.078621
     36          1           0       -2.193388   -1.545552   -1.453380
     37          1           0       -2.316702   -2.186966    0.180934
     38          1           0       -0.207463   -0.971901    0.822341
     39          1           0       -0.083448   -0.326843   -0.821259
     40          1           0        0.083204   -2.068067   -0.538997
 ---------------------------------------------------------------------

 SCF Done:  E(RHF) =  -470.732392195     A.U. after   11 cycles
 E2 =    -0.1583847720D+01 EUMP2 =    -0.47231623991501D+03

 The electronic state is 1-A.
 Alpha  occ. eigenvalues --  -11.21669 -11.21638 -11.21547 -11.21462 -11.21399
 Alpha  occ. eigenvalues --  -11.21395 -11.21300 -11.21228 -11.21174 -11.21099
 Alpha  occ. eigenvalues --  -11.21031 -11.20990  -1.08493  -1.08323  -1.03616
 Alpha  occ. eigenvalues --   -1.03422  -0.96060  -0.95894  -0.87090  -0.86907
 Alpha  occ. eigenvalues --   -0.79701  -0.79479  -0.78306  -0.78135  -0.65121
 Alpha  occ. eigenvalues --   -0.64969  -0.61059  -0.60872  -0.59357  -0.59266
 Alpha  occ. eigenvalues --   -0.57674  -0.57505  -0.55416  -0.55139  -0.52716
 Alpha  occ. eigenvalues --   -0.52609  -0.52473  -0.52312  -0.50043  -0.49830
 Alpha  occ. eigenvalues --   -0.48003  -0.47806  -0.46821  -0.46415  -0.45906
 Alpha  occ. eigenvalues --   -0.45782  -0.45640  -0.45442  -0.43820  -0.43682
 Alpha virt. eigenvalues --    0.20899   0.22956   0.23759   0.24791   0.25639
 Alpha virt. eigenvalues --    0.26271   0.26879   0.27548   0.27847   0.29539
 Alpha virt. eigenvalues --    0.30639   0.30663   0.31764   0.32037   0.32349

 Mulliken charges:
               1
     1  C   -0.299347
     2  C   -0.299426
     3  C   -0.475651
     4  H    0.150517
     5  H    0.149107
     6  H    0.151260
     7  H    0.151830
     8  H    0.155109
     9  H    0.155064
    10  H    0.159959
    11  C   -0.298667
    12  C   -0.305072
    13  C   -0.477384
    14  H    0.150953
    15  H    0.148773
    16  H    0.160703
    17  H    0.150778
    18  H    0.154972
    19  H    0.155258
    20  H    0.159542
    21  C   -0.298282
    22  C   -0.299675
    23  C   -0.475741
    24  H    0.149779
    25  H    0.149691
    26  H    0.151954
    27  H    0.152003
    28  H    0.155258
    29  H    0.155238
    30  H    0.160389
    31  C   -0.298772
    32  C   -0.300347
    33  C   -0.481047
    34  H    0.149396
    35  H    0.149743
    36  H    0.152076
    37  H    0.152415
    38  H    0.156173
    39  H    0.155976
    40  H    0.165494
 Sum of Mulliken charges =  -0.00000

 Dipole moment (field-independent basis, Debye):
    X=             -0.0691    Y=             -0.0087    Z=              0.0037  Tot=              0.0697
 Quadrupole moment (field-independent basis, Debye-Ang):
   XX=            -85.2955   YY=            -85.8646   ZZ=            -83.9308
   XY=              0.0059   XZ=              0.1043   YZ=             -0.7445

 Normal termination of Gaussian 16 at Thu May  6 06:52:44 2021.
