 Gaussian 16, Revision A.03,
 Gaussian 16:  EM64L-G16RevA.03 25-Dec-2016

 -------------
 #p 6-31g* mp2
 -------------

 ------------------------------------------------------
 Input file generated by CHIRIPA (05-May-2021 14:53:17)
 ------------------------------------------------------
 Symbolic Z-matrix:
 Charge =  0 Multiplicity = 1

                         Standard orientation:
 ---------------------------------------------------------------------
 Center     Atomic      Atomic             Coordinates (Angstroms)
 Number     Number       Type             X           Y           Z
 ---------------------------------------------------------------------
      1          6           0       -3.968201    0.376695    0.250565
      2          6           0       -5.477222    0.468159    0.479634
      3          6           0       -5.890998    1.760802    1.183665
      4          1           0       -3.451830    0.450779    1.217425
      5          1           0       -3.641776    1.240415   -0.345111
      6          1           0       -5.800925   -0.396203    1.073528
      7          1           0       -5.990069    0.393656   -0.487865
      8          1           0       -5.596058    2.633280    0.591725
      9          1           0       -5.405840    1.838933    2.161989
     10          1           0       -6.973701    1.805380    1.337372
     11          6           0       -3.539032   -0.909972   -0.452308
     12          6           0       -2.030010   -1.001437   -0.681377
     13          6           0       -1.616235   -2.294079   -1.385408
     14          1           0       -3.865456   -1.773692    0.143368
     15          1           0       -4.055402   -0.984057   -1.419168
     16          1           0       -1.517164   -0.926933    0.286122
     17          1           0       -1.706308   -0.137074   -1.275271
     18          1           0       -2.101393   -2.372211   -2.363732
     19          1           0       -1.911174   -3.166558   -0.793468
     20          1           0       -0.533531   -2.338657   -1.539115
     21          6           0        2.966538   -2.096953    1.103756
     22          6           0        2.186113   -1.846258   -0.029650
     23          6           0        2.159620   -0.572800   -0.605973
     24          6           0        2.929223    0.431176   -0.020282
     25          6           0        3.716870    0.212659    1.108943
     26          6           0        3.728084   -1.068507    1.668439
     27          1           0        2.981184   -3.089200    1.544921
     28          1           0        1.593682   -2.643050   -0.470327
     29          1           0        1.564343   -0.351141   -1.483431
     30          1           0        4.296854    1.027105    1.525736
     31          1           0        4.335107   -1.260309    2.548656
     32          7           0        2.909264    1.783410   -0.621503
     33          8           0        3.596218    2.650889   -0.086517
     34          8           0        2.207043    1.950206   -1.616340
 ---------------------------------------------------------------------

 SCF Done:  E(RHF) =  -669.535384259     A.U. after   15 cycles
 E2 =    -0.2091658781D+01 EUMP2 =    -0.67162704303947D+03

 The electronic state is 1-A.
 Alpha  occ. eigenvalues --  -20.60751 -20.60746 -15.85805 -11.31166 -11.27741
 Alpha  occ. eigenvalues --  -11.27730 -11.27479 -11.26756 -11.26725 -11.22003
 Alpha  occ. eigenvalues --  -11.21830 -11.21674 -11.21652 -11.21474 -11.21077
 Alpha  occ. eigenvalues --   -1.59826  -1.39380  -1.19341  -1.08737  -1.08661
 Alpha  occ. eigenvalues --   -1.04750  -1.03817  -0.96291  -0.95571  -0.87311
 Alpha  occ. eigenvalues --   -0.86140  -0.82408  -0.79876  -0.78433  -0.77457
 Alpha  occ. eigenvalues --   -0.72024  -0.71148  -0.70452  -0.65286  -0.64999
 Alpha  occ. eigenvalues --   -0.64762  -0.62185  -0.61201  -0.59655  -0.57876
 Alpha  occ. eigenvalues --   -0.55559  -0.55244  -0.53163  -0.53045  -0.52802
 Alpha  occ. eigenvalues --   -0.52607  -0.50203  -0.48782  -0.48778  -0.48192
 Alpha  occ. eigenvalues --   -0.46883  -0.45986  -0.45880  -0.44786  -0.44066
 Alpha  occ. eigenvalues --   -0.37322  -0.36333
 Alpha virt. eigenvalues --    0.05064   0.11297   0.16493   0.19913   0.22847
 Alpha virt. eigenvalues --    0.23892   0.26087   0.26423   0.27129   0.28044
 Alpha virt. eigenvalues --    0.29064   0.29676   0.31152   0.31583   0.32130

 Mulliken charges:
               1
     1  C   -0.299204
     2  C   -0.299935
     3  C   -0.475987
     4  H    0.149935
     5  H    0.153601
     6  H    0.150952
     7  H    0.152373
     8  H    0.157143
     9  H    0.155275
    10  H    0.160326
    11  C   -0.298766
    12  C   -0.303068
    13  C   -0.478057
    14  H    0.148611
    15  H    0.150979
    16  H    0.153367
    17  H    0.158078
    18  H    0.160556
    19  H    0.155667
    20  H    0.147890
    21  C   -0.171303
    22  C   -0.221378
    23  C   -0.171175
    24  C    0.158119
    25  C   -0.170956
    26  C   -0.218657
    27  H    0.225719
    28  H    0.227396
    29  H    0.276575
    30  H    0.275524
    31  H    0.223309
    32  N    0.488290
    33  O   -0.460565
    34  O   -0.460635
 Sum of Mulliken charges =  -0.00000

 Dipole moment (field-independent basis, Debye):
    X=             -0.0516    Y=             -4.6918    Z=              2.1331  Tot=              5.1542
 Quadrupole moment (field-independent basis, Debye-Ang):
   XX=            -92.6644   YY=            -99.6494   ZZ=            -92.2056
   XY=            -12.6527   XZ=              9.3693   YZ=              1.3155

 Normal termination of Gaussian 16 at Thu May  6 17:18:16 2021.
