 Gaussian 16, Revision A.03,
 Gaussian 16:  EM64L-G16RevA.03 25-Dec-2016

 -------------
 #p 6-31g* mp2
 -------------

 ------------------------------------------------------
 Input file generated by CHIRIPA (05-May-2021 14:51:13)
 ------------------------------------------------------
 Symbolic Z-matrix:
 Charge =  0 Multiplicity = 1

                         Standard orientation:
 ---------------------------------------------------------------------
 Center     Atomic      Atomic             Coordinates (Angstroms)
 Number     Number       Type             X           Y           Z
 ---------------------------------------------------------------------
      1          6           0       -3.334150    0.695466   -0.027668
      2          6           0       -2.709052    2.087190   -0.129364
      3          6           0       -3.532164    3.158672    0.586323
      4          1           0       -4.347922    0.724060   -0.450035
      5          1           0       -3.444552    0.427282    1.032182
      6          1           0       -2.598587    2.352095   -1.188722
      7          1           0       -1.696578    2.055235    0.293120
      8          1           0       -3.631638    2.921220    1.650429
      9          1           0       -4.538772    3.219766    0.160168
     10          1           0       -3.067151    4.145761    0.501011
     11          6           0       -2.522834   -0.386452   -0.738265
     12          6           0       -3.147932   -1.778176   -0.636570
     13          6           0       -2.324820   -2.849658   -1.352256
     14          1           0       -2.412432   -0.118268   -1.798116
     15          1           0       -1.509062   -0.415046   -0.315899
     16          1           0       -4.160406   -1.746222   -1.059053
     17          1           0       -3.258397   -2.043081    0.422788
     18          1           0       -1.318212   -2.910753   -0.926102
     19          1           0       -2.225346   -2.612206   -2.416363
     20          1           0       -2.789833   -3.836747   -1.266945
     21          6           0        3.233250    0.462756    0.051996
     22          6           0        4.547888    0.174847   -0.673828
     23          6           0        5.145285    1.419525   -1.330861
     24          1           0        2.512293    0.884118   -0.661881
     25          1           0        3.405141    1.234571    0.814984
     26          1           0        4.373867   -0.597189   -1.434283
     27          1           0        5.265736   -0.246056    0.041818
     28          1           0        5.347207    2.191518   -0.581292
     29          1           0        4.450270    1.838391   -2.065780
     30          1           0        6.084586    1.190976   -1.844026
     31          6           0        2.623734   -0.771770    0.713937
     32          6           0        1.309097   -0.483862    1.439762
     33          6           0        0.711699   -1.728538    2.096795
     34          1           0        2.451843   -1.543585   -0.049050
     35          1           0        3.344690   -1.193131    1.427814
     36          1           0        0.591248   -0.062957    0.724115
     37          1           0        1.483118    0.288175    2.200217
     38          1           0        1.406714   -2.147404    2.831714
     39          1           0        0.509777   -2.500533    1.347226
     40          1           0       -0.227602   -1.499990    2.609960
 ---------------------------------------------------------------------

 SCF Done:  E(RHF) =  -470.733323470     A.U. after   11 cycles
 E2 =    -0.1583559564D+01 EUMP2 =    -0.47231688303465D+03

 The electronic state is 1-A.
 Alpha  occ. eigenvalues --  -11.21667 -11.21616 -11.21603 -11.21599 -11.21442
 Alpha  occ. eigenvalues --  -11.21399 -11.21378 -11.21338 -11.21167 -11.21089
 Alpha  occ. eigenvalues --  -11.21079 -11.21069  -1.08483  -1.08422  -1.03584
 Alpha  occ. eigenvalues --   -1.03525  -0.96026  -0.95982  -0.87042  -0.86997
 Alpha  occ. eigenvalues --   -0.79648  -0.79592  -0.78341  -0.78194  -0.65265
 Alpha  occ. eigenvalues --   -0.64928  -0.61079  -0.60826  -0.59395  -0.59347
 Alpha  occ. eigenvalues --   -0.57669  -0.57565  -0.55313  -0.55274  -0.52721
 Alpha  occ. eigenvalues --   -0.52676  -0.52457  -0.52407  -0.50044  -0.49853
 Alpha  occ. eigenvalues --   -0.48009  -0.47896  -0.46773  -0.46620  -0.46052
 Alpha  occ. eigenvalues --   -0.45776  -0.45751  -0.45318  -0.43826  -0.43783
 Alpha virt. eigenvalues --    0.19655   0.23170   0.23394   0.24493   0.25783
 Alpha virt. eigenvalues --    0.26273   0.26802   0.27723   0.28372   0.29291
 Alpha virt. eigenvalues --    0.30445   0.31532   0.31682   0.32053   0.32421

 Mulliken charges:
               1
     1  C   -0.297512
     2  C   -0.301381
     3  C   -0.475650
     4  H    0.149717
     5  H    0.149336
     6  H    0.151727
     7  H    0.153258
     8  H    0.155230
     9  H    0.155201
    10  H    0.160309
    11  C   -0.308191
    12  C   -0.298637
    13  C   -0.477655
    14  H    0.149030
    15  H    0.159272
    16  H    0.151917
    17  H    0.152381
    18  H    0.156089
    19  H    0.155008
    20  H    0.160529
    21  C   -0.298598
    22  C   -0.299724
    23  C   -0.475764
    24  H    0.150160
    25  H    0.149536
    26  H    0.152138
    27  H    0.151940
    28  H    0.155171
    29  H    0.155343
    30  H    0.160322
    31  C   -0.297748
    32  C   -0.308497
    33  C   -0.477674
    34  H    0.149622
    35  H    0.149923
    36  H    0.158571
    37  H    0.152429
    38  H    0.156063
    39  H    0.156760
    40  H    0.160048
 Sum of Mulliken charges =  -0.00000

 Dipole moment (field-independent basis, Debye):
    X=              0.0196    Y=             -0.0002    Z=              0.0086  Tot=              0.0214
 Quadrupole moment (field-independent basis, Debye-Ang):
   XX=            -84.7621   YY=            -86.1628   ZZ=            -83.7884
   XY=             -0.0097   XZ=              1.4196   YZ=              0.0139

 Normal termination of Gaussian 16 at Thu May  6 03:58:51 2021.
