 Gaussian 16, Revision A.03,
 Gaussian 16:  EM64L-G16RevA.03 25-Dec-2016

 -------------
 #p 6-31g* mp2
 -------------

 ------------------------------------------------------
 Input file generated by CHIRIPA (05-May-2021 14:53:16)
 ------------------------------------------------------
 Symbolic Z-matrix:
 Charge =  0 Multiplicity = 1

                         Standard orientation:
 ---------------------------------------------------------------------
 Center     Atomic      Atomic             Coordinates (Angstroms)
 Number     Number       Type             X           Y           Z
 ---------------------------------------------------------------------
      1          6           0       -3.481477    0.169225   -0.029577
      2          6           0       -3.008274   -1.271574   -0.224935
      3          6           0       -4.166120   -2.259151   -0.372848
      4          1           0       -4.124380    0.219879    0.859835
      5          1           0       -4.106953    0.461464   -0.884429
      6          1           0       -2.382741   -1.560543    0.629360
      7          1           0       -2.366267   -1.318768   -1.113876
      8          1           0       -4.786982   -1.998389   -1.236060
      9          1           0       -4.803550   -2.241538    0.517082
     10          1           0       -3.805224   -3.283067   -0.511448
     11          6           0       -2.335476    1.168270    0.119814
     12          6           0       -2.808678    2.609068    0.315172
     13          6           0       -1.650832    3.596645    0.463084
     14          1           0       -1.709999    0.876031    0.974665
     15          1           0       -1.692572    1.117615   -0.769599
     16          1           0       -3.450685    2.656262    1.204112
     17          1           0       -3.434211    2.898038   -0.539124
     18          1           0       -1.013403    3.579033   -0.426845
     19          1           0       -1.029970    3.335883    1.326296
     20          1           0       -2.011729    4.620561    0.601684
     21          6           0        0.580819   -2.344563    0.394786
     22          6           0        1.497542   -1.991265    1.390436
     23          6           0        2.439171   -0.983172    1.163208
     24          6           0        2.435768   -0.346304   -0.076822
     25          6           0        1.535392   -0.675706   -1.088805
     26          6           0        0.602631   -1.686816   -0.839481
     27          1           0       -0.147217   -3.128845    0.579884
     28          1           0        1.482928   -2.500373    2.349936
     29          1           0        3.160321   -0.689722    1.916368
     30          1           0        1.574458   -0.150210   -2.035243
     31          1           0       -0.108108   -1.959102   -1.614565
     32          7           0        3.427935    0.722515   -0.329075
     33          8           0        3.404255    1.268406   -1.430019
     34          8           0        4.210489    0.994126    0.578932
 ---------------------------------------------------------------------

 SCF Done:  E(RHF) =  -669.534344645     A.U. after   15 cycles
 E2 =    -0.2093547142D+01 EUMP2 =    -0.67162789178629D+03

 The electronic state is 1-A.
 Alpha  occ. eigenvalues --  -20.60747 -20.60741 -15.85800 -11.31164 -11.27733
 Alpha  occ. eigenvalues --  -11.27720 -11.27453 -11.26759 -11.26716 -11.22420
 Alpha  occ. eigenvalues --  -11.21922 -11.21869 -11.21785 -11.21682 -11.21078
 Alpha  occ. eigenvalues --   -1.59822  -1.39376  -1.19337  -1.08924  -1.08714
 Alpha  occ. eigenvalues --   -1.04745  -1.03994  -0.96411  -0.95567  -0.87429
 Alpha  occ. eigenvalues --   -0.86146  -0.82403  -0.80122  -0.78681  -0.77440
 Alpha  occ. eigenvalues --   -0.72019  -0.71144  -0.70446  -0.65568  -0.64990
 Alpha  occ. eigenvalues --   -0.64753  -0.62123  -0.61377  -0.59830  -0.58021
 Alpha  occ. eigenvalues --   -0.55688  -0.55238  -0.53252  -0.52978  -0.52902
 Alpha  occ. eigenvalues --   -0.52775  -0.50343  -0.48790  -0.48775  -0.48380
 Alpha  occ. eigenvalues --   -0.47133  -0.46199  -0.46108  -0.44782  -0.44230
 Alpha  occ. eigenvalues --   -0.37253  -0.36301
 Alpha virt. eigenvalues --    0.05045   0.11256   0.16402   0.20161   0.22779
 Alpha virt. eigenvalues --    0.23966   0.25115   0.26416   0.27165   0.28384
 Alpha virt. eigenvalues --    0.29035   0.29566   0.31181   0.31657   0.31893

 Mulliken charges:
               1
     1  C   -0.298335
     2  C   -0.301833
     3  C   -0.475715
     4  H    0.151092
     5  H    0.150816
     6  H    0.150364
     7  H    0.144663
     8  H    0.158380
     9  H    0.158198
    10  H    0.154909
    11  C   -0.298024
    12  C   -0.300450
    13  C   -0.476197
    14  H    0.151523
    15  H    0.148075
    16  H    0.151557
    17  H    0.151858
    18  H    0.158408
    19  H    0.156239
    20  H    0.161413
    21  C   -0.170227
    22  C   -0.220154
    23  C   -0.171171
    24  C    0.158958
    25  C   -0.172507
    26  C   -0.213099
    27  H    0.226270
    28  H    0.223143
    29  H    0.275390
    30  H    0.274912
    31  H    0.224605
    32  N    0.488140
    33  O   -0.460655
    34  O   -0.460546
 Sum of Mulliken charges =  -0.00000

 Dipole moment (field-independent basis, Debye):
    X=             -3.5348    Y=             -3.6719    Z=              0.9225  Tot=              5.1796
 Quadrupole moment (field-independent basis, Debye-Ang):
   XX=           -112.3498   YY=            -93.4016   ZZ=            -89.7855
   XY=             -9.0193   XZ=              4.2613   YZ=             -0.9955

 Normal termination of Gaussian 16 at Thu May  6 10:37:39 2021.
