 Gaussian 16, Revision A.03,
 Gaussian 16:  EM64L-G16RevA.03 25-Dec-2016

 -------------
 #p 6-31g* mp2
 -------------

 ------------------------------------------------------
 Input file generated by CHIRIPA (05-May-2021 14:57:25)
 ------------------------------------------------------
 Symbolic Z-matrix:
 Charge =  0 Multiplicity = 1

                         Standard orientation:
 ---------------------------------------------------------------------
 Center     Atomic      Atomic             Coordinates (Angstroms)
 Number     Number       Type             X           Y           Z
 ---------------------------------------------------------------------
      1          6           0       -4.042082    0.851850    0.371864
      2          6           0       -3.625841    0.622743   -0.943724
      3          6           0       -2.541567   -0.219006   -1.208975
      4          6           0       -1.893531   -0.817978   -0.129822
      5          6           0       -2.284439   -0.609493    1.191925
      6          6           0       -3.371236    0.236087    1.433618
      7          1           0       -4.885352    1.507229    0.568768
      8          1           0       -4.144947    1.099609   -1.770266
      9          1           0       -2.198324   -0.413828   -2.217760
     10          1           0       -1.747141   -1.099017    1.995103
     11          1           0       -3.692293    0.412185    2.456338
     12          7           0       -0.744323   -1.711127   -0.398162
     13          8           0       -0.190141   -2.226867    0.570100
     14          8           0       -0.419517   -1.878526   -1.571668
     15          6           0        1.030464    2.942933   -0.223483
     16          6           0        1.127880    2.384713    1.055353
     17          6           0        1.709110    1.126460    1.238432
     18          6           0        2.184683    0.451112    0.115477
     19          6           0        2.102126    0.980700   -1.171384
     20          6           0        1.517040    2.240384   -1.330817
     21          1           0        0.577453    3.920931   -0.356520
     22          1           0        0.750851    2.928045    1.917144
     23          1           0        1.797322    0.670850    2.217235
     24          1           0        2.486947    0.415085   -2.011271
     25          1           0        1.442726    2.671447   -2.325155
     26          7           0        2.802046   -0.881702    0.296779
     27          8           0        3.213444   -1.456427   -0.708745
     28          8           0        2.862847   -1.326400    1.440975
 ---------------------------------------------------------------------

 SCF Done:  E(RHF) =  -868.336145841     A.U. after   16 cycles
 E2 =    -0.2604549250D+01 EUMP2 =    -0.87094069509132D+03

 The electronic state is 1-A.
 Alpha  occ. eigenvalues --  -20.60741 -20.60712 -20.59535 -20.59499 -15.85752
 Alpha  occ. eigenvalues --  -15.84602 -11.31287 -11.30514 -11.27894 -11.27873
 Alpha  occ. eigenvalues --  -11.27674 -11.27199 -11.27123 -11.27052 -11.26948
 Alpha  occ. eigenvalues --  -11.26934 -11.26342 -11.26289  -1.59806  -1.58552
 Alpha  occ. eigenvalues --   -1.39348  -1.38105  -1.19482  -1.18767  -1.08851
 Alpha  occ. eigenvalues --   -1.08052  -1.04915  -1.04246  -0.95654  -0.94791
 Alpha  occ. eigenvalues --   -0.86305  -0.85609  -0.82484  -0.81637  -0.77509
 Alpha  occ. eigenvalues --   -0.76561  -0.71983  -0.71363  -0.70847  -0.70600
 Alpha  occ. eigenvalues --   -0.69861  -0.69619  -0.65133  -0.64924  -0.64399
 Alpha  occ. eigenvalues --   -0.64257  -0.62261  -0.61574  -0.55419  -0.54747
 Alpha  occ. eigenvalues --   -0.53273  -0.53013  -0.52513  -0.52340  -0.48724
 Alpha  occ. eigenvalues --   -0.48719  -0.47627  -0.47544  -0.44834  -0.43274
 Alpha  occ. eigenvalues --   -0.37479  -0.36799  -0.36566  -0.35809
 Alpha virt. eigenvalues --    0.05010   0.06011   0.11104   0.11789   0.16465
 Alpha virt. eigenvalues --    0.17380   0.21206   0.21830   0.27068   0.27692
 Alpha virt. eigenvalues --    0.28102   0.28830   0.30690   0.31340   0.32316

 Mulliken charges:
               1
     1  C   -0.171943
     2  C   -0.219482
     3  C   -0.170340
     4  C    0.161347
     5  C   -0.171691
     6  C   -0.219827
     7  H    0.224459
     8  H    0.222023
     9  H    0.274647
    10  H    0.277444
    11  H    0.222520
    12  N    0.483323
    13  O   -0.453221
    14  O   -0.457764
    15  C   -0.172210
    16  C   -0.218946
    17  C   -0.172905
    18  C    0.154154
    19  C   -0.166966
    20  C   -0.221141
    21  H    0.220687
    22  H    0.218198
    23  H    0.274660
    24  H    0.280235
    25  H    0.220300
    26  N    0.496190
    27  O   -0.454939
    28  O   -0.458812
 Sum of Mulliken charges =  -0.00000

 Dipole moment (field-independent basis, Debye):
    X=             -6.0953    Y=              7.4252    Z=              0.2588  Tot=              9.6101
 Quadrupole moment (field-independent basis, Debye-Ang):
   XX=           -100.3752   YY=           -107.3251   ZZ=            -95.5864
   XY=              5.9878   XZ=             -3.4428   YZ=             -1.5921

 Normal termination of Gaussian 16 at Thu May  6 01:59:04 2021.
