 Gaussian 16, Revision A.03,
 Gaussian 16:  EM64L-G16RevA.03 25-Dec-2016

 -------------
 #p 6-31g* mp2
 -------------

 ------------------------------------------------------
 Input file generated by CHIRIPA (05-May-2021 14:55:23)
 ------------------------------------------------------
 Symbolic Z-matrix:
 Charge =  0 Multiplicity = 1

                         Standard orientation:
 ---------------------------------------------------------------------
 Center     Atomic      Atomic             Coordinates (Angstroms)
 Number     Number       Type             X           Y           Z
 ---------------------------------------------------------------------
      1          6           0        3.605039   -0.922894   -1.818622
      2          6           0        2.322914   -1.394817   -1.518680
      3          6           0        1.632258   -0.913464   -0.402508
      4          6           0        2.256509    0.043881    0.395672
      5          6           0        3.532849    0.533736    0.123117
      6          6           0        4.204857    0.038183   -0.998213
      7          1           0        4.134314   -1.302336   -2.687695
      8          1           0        1.854624   -2.141184   -2.154044
      9          1           0        0.638734   -1.261459   -0.147111
     10          1           0        3.973705    1.277945    0.775204
     11          1           0        5.200473    0.406504   -1.228721
     12          7           0        1.535213    0.560985    1.580044
     13          8           0        2.107095    1.404243    2.267433
     14          8           0        0.411637    0.113241    1.798539
     15          6           0       -2.687623    0.730022   -0.235494
     16          6           0       -3.378632    1.800527   -1.080782
     17          6           0       -2.660894    3.149565   -1.028387
     18          1           0       -2.628811    1.075480    0.805729
     19          1           0       -1.652456    0.609425   -0.583749
     20          1           0       -4.412606    1.918086   -0.731938
     21          1           0       -3.435977    1.452399   -2.120078
     22          1           0       -1.634092    3.054171   -1.396053
     23          1           0       -2.616269    3.522504   -0.000026
     24          1           0       -3.171747    3.900112   -1.639589
     25          6           0       -3.393367   -0.624182   -0.277718
     26          6           0       -2.702359   -1.694687    0.567570
     27          6           0       -3.420096   -3.043724    0.515175
     28          1           0       -4.428534   -0.503585    0.070536
     29          1           0       -3.452179   -0.969640   -1.318942
     30          1           0       -2.645013   -1.346559    1.606866
     31          1           0       -1.668384   -1.812246    0.218726
     32          1           0       -3.464721   -3.416664   -0.513186
     33          1           0       -4.446898   -2.948331    0.882841
     34          1           0       -2.909243   -3.794271    1.126377
 ---------------------------------------------------------------------

 SCF Done:  E(RHF) =  -669.535424189     A.U. after   15 cycles
 E2 =    -0.2092807382D+01 EUMP2 =    -0.67162823157056D+03

 The electronic state is 1-A.
 Alpha  occ. eigenvalues --  -20.60829 -20.60814 -15.85857 -11.31230 -11.27795
 Alpha  occ. eigenvalues --  -11.27782 -11.27541 -11.26817 -11.26807 -11.21207
 Alpha  occ. eigenvalues --  -11.21140 -11.20976 -11.20822 -11.20718 -11.20620
 Alpha  occ. eigenvalues --   -1.59888  -1.39441  -1.19402  -1.08797  -1.07962
 Alpha  occ. eigenvalues --   -1.04806  -1.03123  -0.95635  -0.95566  -0.86587
 Alpha  occ. eigenvalues --   -0.86205  -0.82464  -0.79175  -0.77849  -0.77387
 Alpha  occ. eigenvalues --   -0.72075  -0.71202  -0.70517  -0.65054  -0.64881
 Alpha  occ. eigenvalues --   -0.64562  -0.62163  -0.60531  -0.58933  -0.57164
 Alpha  occ. eigenvalues --   -0.55310  -0.54870  -0.53133  -0.52916  -0.52283
 Alpha  occ. eigenvalues --   -0.51981  -0.49520  -0.48859  -0.48844  -0.47479
 Alpha  occ. eigenvalues --   -0.46219  -0.45393  -0.45185  -0.44685  -0.43350
 Alpha  occ. eigenvalues --   -0.37382  -0.36406
 Alpha virt. eigenvalues --    0.04998   0.11181   0.16497   0.20373   0.23199
 Alpha virt. eigenvalues --    0.24387   0.25393   0.27521   0.27676   0.28331
 Alpha virt. eigenvalues --    0.29346   0.30948   0.31507   0.32098   0.32224

 Mulliken charges:
               1
     1  C   -0.170314
     2  C   -0.223721
     3  C   -0.179159
     4  C    0.154545
     5  C   -0.169504
     6  C   -0.219093
     7  H    0.225820
     8  H    0.224043
     9  H    0.293617
    10  H    0.275832
    11  H    0.223658
    12  N    0.487219
    13  O   -0.459990
    14  O   -0.461132
    15  C   -0.296188
    16  C   -0.299975
    17  C   -0.474852
    18  H    0.163258
    19  H    0.144681
    20  H    0.151021
    21  H    0.147198
    22  H    0.152732
    23  H    0.159676
    24  H    0.157539
    25  C   -0.299838
    26  C   -0.299957
    27  C   -0.475756
    28  H    0.149391
    29  H    0.143244
    30  H    0.166483
    31  H    0.143551
    32  H    0.150166
    33  H    0.156119
    34  H    0.159685
 Sum of Mulliken charges =  -0.00000

 Dipole moment (field-independent basis, Debye):
    X=              2.5908    Y=             -1.7406    Z=             -3.9418  Tot=              5.0279
 Quadrupole moment (field-independent basis, Debye-Ang):
   XX=            -80.4182   YY=            -95.0902   ZZ=            -97.8837
   XY=             -2.1278   XZ=             -8.7841   YZ=              0.2728

 Normal termination of Gaussian 16 at Thu May  6 20:51:47 2021.
