 Gaussian 16, Revision A.03,
 Gaussian 16:  EM64L-G16RevA.03 25-Dec-2016

 -------------
 #p 6-31g* mp2
 -------------

 ------------------------------------------------------
 Input file generated by CHIRIPA (05-May-2021 14:57:23)
 ------------------------------------------------------
 Symbolic Z-matrix:
 Charge =  0 Multiplicity = 1

                         Standard orientation:
 ---------------------------------------------------------------------
 Center     Atomic      Atomic             Coordinates (Angstroms)
 Number     Number       Type             X           Y           Z
 ---------------------------------------------------------------------
      1          6           0        2.208020   -2.062613    0.851050
      2          6           0        3.475325   -2.390765    0.358328
      3          6           0        4.351135   -1.389412   -0.071552
      4          6           0        3.925136   -0.064327    0.005676
      5          6           0        2.668815    0.294475    0.491690
      6          6           0        1.809512   -0.723401    0.916044
      7          1           0        1.534082   -2.846905    1.182845
      8          1           0        3.787490   -3.429963    0.306700
      9          1           0        5.337822   -1.615349   -0.457322
     10          1           0        2.385853    1.339370    0.531000
     11          1           0        0.825892   -0.465607    1.298245
     12          7           0        4.843578    1.004507   -0.446494
     13          8           0        4.444448    2.164335   -0.368193
     14          8           0        5.945193    0.662193   -0.870644
     15          6           0       -2.539775    2.389743    0.392952
     16          6           0       -3.938412    2.372076    0.388139
     17          6           0       -4.632615    1.186936    0.127227
     18          6           0       -3.893062    0.032701   -0.125942
     19          6           0       -2.499121    0.018229   -0.128196
     20          6           0       -1.825852    1.214835    0.135223
     21          1           0       -2.008633    3.314842    0.596608
     22          1           0       -4.495467    3.283012    0.587960
     23          1           0       -5.715000    1.144955    0.117281
     24          1           0       -1.971354   -0.905778   -0.330909
     25          1           0       -0.739611    1.225590    0.138308
     26          7           0       -4.616902   -1.228023   -0.403484
     27          8           0       -3.942111   -2.231449   -0.623553
     28          8           0       -5.845334   -1.188881   -0.395699
 ---------------------------------------------------------------------

 SCF Done:  E(RHF) =  -868.337380594     A.U. after   16 cycles
 E2 =    -0.2599867022D+01 EUMP2 =    -0.87093724761624D+03

 The electronic state is 1-A.
 Alpha  occ. eigenvalues --  -20.61299 -20.61287 -20.61282 -20.61270 -15.86352
 Alpha  occ. eigenvalues --  -15.86340 -11.31779 -11.31770 -11.28463 -11.28421
 Alpha  occ. eigenvalues --  -11.28320 -11.28315 -11.28083 -11.28072 -11.27464
 Alpha  occ. eigenvalues --  -11.27451 -11.27309 -11.27297  -1.60368  -1.60354
 Alpha  occ. eigenvalues --   -1.39921  -1.39907  -1.19965  -1.19950  -1.09333
 Alpha  occ. eigenvalues --   -1.09319  -1.05428  -1.05351  -0.96156  -0.96149
 Alpha  occ. eigenvalues --   -0.86800  -0.86747  -0.83059  -0.82943  -0.78133
 Alpha  occ. eigenvalues --   -0.77962  -0.72569  -0.72555  -0.71692  -0.71678
 Alpha  occ. eigenvalues --   -0.71051  -0.71029  -0.65649  -0.65623  -0.65513
 Alpha  occ. eigenvalues --   -0.65268  -0.62955  -0.62513  -0.55868  -0.55805
 Alpha  occ. eigenvalues --   -0.53720  -0.53695  -0.53562  -0.53352  -0.49332
 Alpha  occ. eigenvalues --   -0.49323  -0.49317  -0.49304  -0.45315  -0.45298
 Alpha  occ. eigenvalues --   -0.37912  -0.37906  -0.37004  -0.36984
 Alpha virt. eigenvalues --    0.04495   0.04499   0.10618   0.10658   0.15807
 Alpha virt. eigenvalues --    0.15914   0.18707   0.22075   0.24833   0.26412
 Alpha virt. eigenvalues --    0.28229   0.28931   0.30130   0.31085   0.31982

 Mulliken charges:
               1
     1  C   -0.170222
     2  C   -0.217997
     3  C   -0.169438
     4  C    0.159290
     5  C   -0.172398
     6  C   -0.224890
     7  H    0.230972
     8  H    0.227279
     9  H    0.278062
    10  H    0.270456
    11  H    0.220451
    12  N    0.488354
    13  O   -0.461844
    14  O   -0.457697
    15  C   -0.170064
    16  C   -0.218256
    17  C   -0.169664
    18  C    0.159240
    19  C   -0.172827
    20  C   -0.222628
    21  H    0.229226
    22  H    0.226399
    23  H    0.277680
    24  H    0.272593
    25  H    0.219543
    26  N    0.488262
    27  O   -0.461827
    28  O   -0.458052
 Sum of Mulliken charges =  -0.00000

 Dipole moment (field-independent basis, Debye):
    X=             -0.6829    Y=              0.6085    Z=              2.5436  Tot=              2.7030
 Quadrupole moment (field-independent basis, Debye-Ang):
   XX=           -142.6497   YY=           -100.6431   ZZ=           -106.4293
   XY=            -37.9750   XZ=              0.6203   YZ=              0.4925

 Normal termination of Gaussian 16 at Thu May  6 06:36:13 2021.
