 Gaussian 16, Revision A.03,
 Gaussian 16:  EM64L-G16RevA.03 25-Dec-2016

 -------------
 #p 6-31g* mp2
 -------------

 ------------------------------------------------------
 Input file generated by CHIRIPA (05-May-2021 14:51:12)
 ------------------------------------------------------
 Symbolic Z-matrix:
 Charge =  0 Multiplicity = 1

                         Standard orientation:
 ---------------------------------------------------------------------
 Center     Atomic      Atomic             Coordinates (Angstroms)
 Number     Number       Type             X           Y           Z
 ---------------------------------------------------------------------
      1          6           0        4.363007    0.726867   -0.034248
      2          6           0        5.867649    0.884601    0.187464
      3          6           0        6.286481    2.341730    0.385325
      4          1           0        4.063993    1.318057   -0.910621
      5          1           0        3.826308    1.150019    0.826155
      6          1           0        6.401386    0.460033   -0.672468
      7          1           0        6.163149    0.292814    1.063297
      8          1           0        5.780232    2.773415    1.254785
      9          1           0        6.019823    2.941584   -0.490843
     10          1           0        7.365939    2.431426    0.542124
     11          6           0        3.928860   -0.724165   -0.233624
     12          6           0        2.424218   -0.881899   -0.455335
     13          6           0        2.005386   -2.339027   -0.653197
     14          1           0        4.465559   -1.147316   -1.094026
     15          1           0        4.227874   -1.315355    0.642750
     16          1           0        2.128719   -0.290111   -1.331169
     17          1           0        1.890481   -0.457330    0.404596
     18          1           0        2.272044   -2.938881    0.222971
     19          1           0        2.511636   -2.770713   -1.522656
     20          1           0        0.925928   -2.428723   -0.809996
     21          6           0       -3.420213   -0.214846    0.028194
     22          6           0       -3.065795   -1.526703    0.729197
     23          6           0       -1.610567   -1.940606    0.508310
     24          1           0       -3.226086   -0.317615   -1.048235
     25          1           0       -2.753036    0.578944    0.391740
     26          1           0       -3.734354   -2.317485    0.365453
     27          1           0       -3.260969   -1.420863    1.804055
     28          1           0       -0.929576   -1.171993    0.887897
     29          1           0       -1.405650   -2.073710   -0.558879
     30          1           0       -1.378826   -2.880947    1.018130
     31          6           0       -4.871654    0.212143    0.239678
     32          6           0       -5.226073    1.524001   -0.461324
     33          6           0       -6.681300    1.937903   -0.240439
     34          1           0       -5.538831   -0.581647   -0.123869
     35          1           0       -5.065782    0.314912    1.316106
     36          1           0       -5.030898    1.418160   -1.536184
     37          1           0       -4.557514    2.314782   -0.097581
     38          1           0       -6.886218    2.071006    0.826750
     39          1           0       -7.362291    1.169290   -0.620026
     40          1           0       -6.913041    2.878244   -0.750259
 ---------------------------------------------------------------------

 SCF Done:  E(RHF) =  -470.732771232     A.U. after   11 cycles
 E2 =    -0.1582796053D+01 EUMP2 =    -0.47231556728496D+03

 The electronic state is 1-A.
 Alpha  occ. eigenvalues --  -11.21611 -11.21608 -11.21570 -11.21512 -11.21415
 Alpha  occ. eigenvalues --  -11.21356 -11.21353 -11.21290 -11.21101 -11.21076
 Alpha  occ. eigenvalues --  -11.21049 -11.20860  -1.08444  -1.08368  -1.03563
 Alpha  occ. eigenvalues --   -1.03442  -0.96050  -0.95857  -0.87094  -0.86851
 Alpha  occ. eigenvalues --   -0.79638  -0.79503  -0.78257  -0.78185  -0.65077
 Alpha  occ. eigenvalues --   -0.64999  -0.60968  -0.60839  -0.59381  -0.59299
 Alpha  occ. eigenvalues --   -0.57755  -0.57381  -0.55314  -0.55176  -0.52949
 Alpha  occ. eigenvalues --   -0.52590  -0.52424  -0.52052  -0.49947  -0.49843
 Alpha  occ. eigenvalues --   -0.47979  -0.47759  -0.46662  -0.46538  -0.45792
 Alpha  occ. eigenvalues --   -0.45747  -0.45704  -0.45637  -0.43853  -0.43622
 Alpha virt. eigenvalues --    0.22097   0.22975   0.23493   0.24789   0.26077
 Alpha virt. eigenvalues --    0.26577   0.26966   0.27502   0.27692   0.29203
 Alpha virt. eigenvalues --    0.29604   0.31000   0.31558   0.31869   0.32383

 Mulliken charges:
               1
     1  C   -0.298156
     2  C   -0.299584
     3  C   -0.475658
     4  H    0.149507
     5  H    0.149146
     6  H    0.151895
     7  H    0.151868
     8  H    0.155048
     9  H    0.155115
    10  H    0.160147
    11  C   -0.298183
    12  C   -0.299946
    13  C   -0.482507
    14  H    0.149425
    15  H    0.149471
    16  H    0.151315
    17  H    0.151905
    18  H    0.153998
    19  H    0.153457
    20  H    0.171105
    21  C   -0.298366
    22  C   -0.300465
    23  C   -0.478185
    24  H    0.149638
    25  H    0.149630
    26  H    0.152006
    27  H    0.151880
    28  H    0.157996
    29  H    0.154989
    30  H    0.161370
    31  C   -0.298282
    32  C   -0.299646
    33  C   -0.475714
    34  H    0.149552
    35  H    0.149653
    36  H    0.151950
    37  H    0.151975
    38  H    0.155180
    39  H    0.155191
    40  H    0.160284
 Sum of Mulliken charges =  -0.00000

 Dipole moment (field-independent basis, Debye):
    X=             -0.0509    Y=             -0.0111    Z=              0.0064  Tot=              0.0524
 Quadrupole moment (field-independent basis, Debye-Ang):
   XX=            -86.1759   YY=            -85.7207   ZZ=            -83.0738
   XY=              0.1976   XZ=              0.1117   YZ=              0.1357

 Normal termination of Gaussian 16 at Thu May  6 02:20:52 2021.
