 Gaussian 16, Revision A.03,
 Gaussian 16:  EM64L-G16RevA.03 25-Dec-2016

 -------------
 #p 6-31g* mp2
 -------------

 ------------------------------------------------------
 Input file generated by CHIRIPA (05-May-2021 14:57:21)
 ------------------------------------------------------
 Symbolic Z-matrix:
 Charge =  0 Multiplicity = 1

                         Standard orientation:
 ---------------------------------------------------------------------
 Center     Atomic      Atomic             Coordinates (Angstroms)
 Number     Number       Type             X           Y           Z
 ---------------------------------------------------------------------
      1          6           0        1.434311   -2.167160   -0.124757
      2          6           0        2.662545   -2.276997   -0.784983
      3          6           0        3.591564   -1.233481   -0.734538
      4          6           0        3.258038   -0.089310   -0.011403
      5          6           0        2.042637    0.050103    0.656919
      6          6           0        1.128815   -1.006008    0.592822
      7          1           0        0.718529   -2.982680   -0.169247
      8          1           0        2.902493   -3.177587   -1.343022
      9          1           0        4.549763   -1.292059   -1.236378
     10          1           0        1.831857    0.960246    1.205215
     11          1           0        0.175722   -0.917935    1.106535
     12          7           0        4.233505    1.022080    0.049228
     13          8           0        3.915680    2.019634    0.693053
     14          8           0        5.297430    0.874590   -0.548223
     15          6           0       -3.416296   -2.197121    0.427857
     16          6           0       -2.663264   -1.431700    1.324292
     17          6           0       -2.479910   -0.062536    1.109078
     18          6           0       -3.066427    0.511233   -0.017900
     19          6           0       -3.822124   -0.224640   -0.929329
     20          6           0       -3.992307   -1.592214   -0.694114
     21          1           0       -3.553614   -3.260104    0.602809
     22          1           0       -2.214757   -1.898805    2.196474
     23          1           0       -1.901731    0.553617    1.786930
     24          1           0       -4.256916    0.269173   -1.789866
     25          1           0       -4.577625   -2.184177   -1.391988
     26          7           0       -2.879291    1.959865   -0.256324
     27          8           0       -3.406397    2.441564   -1.256705
     28          8           0       -2.209050    2.586173    0.561693
 ---------------------------------------------------------------------

 SCF Done:  E(RHF) =  -868.335715148     A.U. after   16 cycles
 E2 =    -0.2602077357D+01 EUMP2 =    -0.87093779250562D+03

 The electronic state is 1-A.
 Alpha  occ. eigenvalues --  -20.61437 -20.61427 -20.60641 -20.60622 -15.86500
 Alpha  occ. eigenvalues --  -15.85690 -11.32128 -11.31154 -11.28800 -11.28671
 Alpha  occ. eigenvalues --  -11.28507 -11.27857 -11.27753 -11.27720 -11.27711
 Alpha  occ. eigenvalues --  -11.27561 -11.26810 -11.26733  -1.60503  -1.59708
 Alpha  occ. eigenvalues --   -1.40052  -1.39258  -1.20340  -1.19348  -1.09667
 Alpha  occ. eigenvalues --   -1.08738  -1.05808  -1.04765  -0.96463  -0.95550
 Alpha  occ. eigenvalues --   -0.87156  -0.86179  -0.83307  -0.82383  -0.78317
 Alpha  occ. eigenvalues --   -0.77399  -0.72709  -0.71909  -0.71832  -0.71428
 Alpha  occ. eigenvalues --   -0.71032  -0.70483  -0.66001  -0.65774  -0.65004
 Alpha  occ. eigenvalues --   -0.64846  -0.63135  -0.62096  -0.56243  -0.55320
 Alpha  occ. eigenvalues --   -0.54168  -0.53863  -0.53087  -0.52768  -0.49486
 Alpha  occ. eigenvalues --   -0.49452  -0.48679  -0.48655  -0.45399  -0.44641
 Alpha  occ. eigenvalues --   -0.38315  -0.37480  -0.37260  -0.36338
 Alpha virt. eigenvalues --    0.04196   0.05137   0.10143   0.11303   0.15494
 Alpha virt. eigenvalues --    0.16595   0.19699   0.21955   0.25410   0.26849
 Alpha virt. eigenvalues --    0.28171   0.28889   0.29981   0.31170   0.32312

 Mulliken charges:
               1
     1  C   -0.173706
     2  C   -0.218437
     3  C   -0.170902
     4  C    0.159137
     5  C   -0.172395
     6  C   -0.219168
     7  H    0.220331
     8  H    0.222147
     9  H    0.275812
    10  H    0.279829
    11  H    0.221666
    12  N    0.487946
    13  O   -0.457401
    14  O   -0.461144
    15  C   -0.172788
    16  C   -0.225689
    17  C   -0.177286
    18  C    0.162009
    19  C   -0.169253
    20  C   -0.217828
    21  H    0.227469
    22  H    0.224086
    23  H    0.275463
    24  H    0.279665
    25  H    0.227010
    26  N    0.488175
    27  O   -0.456181
    28  O   -0.458568
 Sum of Mulliken charges =  -0.00000

 Dipole moment (field-independent basis, Debye):
    X=             -4.3455    Y=             -8.8289    Z=              0.4711  Tot=              9.8517
 Quadrupole moment (field-independent basis, Debye-Ang):
   XX=           -119.5420   YY=           -108.9968   ZZ=           -100.5744
   XY=              1.3984   XZ=             -2.2720   YZ=              2.7512

 Normal termination of Gaussian 16 at Thu May  6 14:27:15 2021.
