 Gaussian 16, Revision A.03,
 Gaussian 16:  EM64L-G16RevA.03 25-Dec-2016

 -------------
 #p 6-31g* mp2
 -------------

 ------------------------------------------------------
 Input file generated by CHIRIPA (05-May-2021 14:51:10)
 ------------------------------------------------------
 Symbolic Z-matrix:
 Charge =  0 Multiplicity = 1

                         Standard orientation:
 ---------------------------------------------------------------------
 Center     Atomic      Atomic             Coordinates (Angstroms)
 Number     Number       Type             X           Y           Z
 ---------------------------------------------------------------------
      1          6           0        3.434445   -0.033736   -0.242459
      2          6           0        4.842722   -0.573366   -0.494535
      3          6           0        5.593750    0.213503   -1.569053
      4          1           0        2.865559   -0.058491   -1.181980
      5          1           0        3.501596    1.022041    0.054559
      6          1           0        4.773026   -1.628196   -0.789648
      7          1           0        5.408261   -0.547502    0.445737
      8          1           0        5.692790    1.264378   -1.278446
      9          1           0        5.053946    0.177544   -2.520850
     10          1           0        6.598112   -0.189197   -1.733221
     11          6           0        2.671040   -0.810005    0.829151
     12          6           0        1.262763   -0.270376    1.081227
     13          6           0        0.511735   -1.057245    2.155745
     14          1           0        2.603889   -1.865783    0.532133
     15          1           0        3.239926   -0.785251    1.768672
     16          1           0        0.697224   -0.296239    0.140955
     17          1           0        1.332459    0.784454    1.376340
     18          1           0        1.051539   -1.021286    3.107542
     19          1           0        0.412695   -2.108120    1.865137
     20          1           0       -0.492627   -0.654545    2.319913
     21          6           0       -2.829309    1.116691   -0.518590
     22          6           0       -2.049402    1.879742    0.552617
     23          6           0       -1.609257    3.268024    0.087064
     24          1           0       -2.207050    1.022821   -1.419104
     25          1           0       -3.711596    1.704152   -0.808163
     26          1           0       -1.169595    1.290380    0.841079
     27          1           0       -2.673518    1.971638    1.450753
     28          1           0       -2.478005    3.877464   -0.182122
     29          1           0       -0.965537    3.192334   -0.795260
     30          1           0       -1.053441    3.795926    0.868248
     31          6           0       -3.276176   -0.272949   -0.068103
     32          6           0       -4.056083   -1.035999   -1.139309
     33          6           0       -4.496228   -2.424282   -0.673756
     34          1           0       -2.393888   -0.860410    0.221471
     35          1           0       -3.898435   -0.179079    0.832413
     36          1           0       -3.431967   -1.127897   -2.037445
     37          1           0       -4.935890   -0.446639   -1.427771
     38          1           0       -5.139948   -2.348593    0.208568
     39          1           0       -3.627480   -3.033722   -0.404570
     40          1           0       -5.052044   -2.952184   -1.454940
 ---------------------------------------------------------------------

 SCF Done:  E(RHF) =  -470.732728865     A.U. after   11 cycles
 E2 =    -0.1584019374D+01 EUMP2 =    -0.47231674823903D+03

 The electronic state is 1-A.
 Alpha  occ. eigenvalues --  -11.21691 -11.21637 -11.21592 -11.21472 -11.21460
 Alpha  occ. eigenvalues --  -11.21399 -11.21373 -11.21312 -11.21108 -11.21099
 Alpha  occ. eigenvalues --  -11.21063 -11.21021  -1.08505  -1.08385  -1.03616
 Alpha  occ. eigenvalues --   -1.03470  -0.96035  -0.95947  -0.87045  -0.86963
 Alpha  occ. eigenvalues --   -0.79724  -0.79510  -0.78367  -0.78157  -0.65162
 Alpha  occ. eigenvalues --   -0.65013  -0.60986  -0.60941  -0.59486  -0.59222
 Alpha  occ. eigenvalues --   -0.57657  -0.57544  -0.55341  -0.55207  -0.52761
 Alpha  occ. eigenvalues --   -0.52622  -0.52455  -0.52365  -0.49981  -0.49880
 Alpha  occ. eigenvalues --   -0.48023  -0.47834  -0.46690  -0.46597  -0.45935
 Alpha  occ. eigenvalues --   -0.45767  -0.45735  -0.45474  -0.43837  -0.43745
 Alpha virt. eigenvalues --    0.20686   0.23163   0.23825   0.24283   0.26130
 Alpha virt. eigenvalues --    0.26439   0.26755   0.27760   0.28002   0.29737
 Alpha virt. eigenvalues --    0.30561   0.31254   0.31543   0.31867   0.32030

 Mulliken charges:
               1
     1  C   -0.298438
     2  C   -0.299729
     3  C   -0.475733
     4  H    0.149373
     5  H    0.149825
     6  H    0.151974
     7  H    0.152088
     8  H    0.155318
     9  H    0.155165
    10  H    0.160400
    11  C   -0.297257
    12  C   -0.304281
    13  C   -0.480635
    14  H    0.149632
    15  H    0.150070
    16  H    0.152237
    17  H    0.153104
    18  H    0.155764
    19  H    0.155031
    20  H    0.165358
    21  C   -0.297297
    22  C   -0.313166
    23  C   -0.474882
    24  H    0.148733
    25  H    0.149326
    26  H    0.168783
    27  H    0.150607
    28  H    0.154852
    29  H    0.155028
    30  H    0.159462
    31  C   -0.302708
    32  C   -0.299472
    33  C   -0.475657
    34  H    0.153595
    35  H    0.149406
    36  H    0.151563
    37  H    0.152054
    38  H    0.155258
    39  H    0.155104
    40  H    0.160145
 Sum of Mulliken charges =  -0.00000

 Dipole moment (field-independent basis, Debye):
    X=              0.0445    Y=             -0.0167    Z=              0.0218  Tot=              0.0523
 Quadrupole moment (field-independent basis, Debye-Ang):
   XX=            -84.5459   YY=            -85.6113   ZZ=            -84.7259
   XY=             -0.7492   XZ=              0.5339   YZ=              1.1472

 Normal termination of Gaussian 16 at Wed May  5 21:23:52 2021.
