 Gaussian 16, Revision A.03,
 Gaussian 16:  EM64L-G16RevA.03 25-Dec-2016

 -------------
 #p 6-31g* mp2
 -------------

 ------------------------------------------------------
 Input file generated by CHIRIPA (05-May-2021 14:55:21)
 ------------------------------------------------------
 Symbolic Z-matrix:
 Charge =  0 Multiplicity = 1

                         Standard orientation:
 ---------------------------------------------------------------------
 Center     Atomic      Atomic             Coordinates (Angstroms)
 Number     Number       Type             X           Y           Z
 ---------------------------------------------------------------------
      1          6           0        4.866302   -0.503675   -1.256519
      2          6           0        3.615932   -0.347056   -1.863617
      3          6           0        2.472720   -0.129539   -1.088826
      4          6           0        2.616955   -0.074093    0.296602
      5          6           0        3.848875   -0.226375    0.931009
      6          6           0        4.978585   -0.442942    0.136400
      7          1           0        5.749132   -0.672278   -1.866093
      8          1           0        3.525738   -0.393754   -2.945157
      9          1           0        1.492502   -0.004970   -1.532755
     10          1           0        3.907244   -0.174888    2.011454
     11          1           0        5.948357   -0.564226    0.610612
     12          7           0        1.413835    0.155680    1.127329
     13          8           0        1.567535    0.200360    2.345941
     14          8           0        0.339910    0.286744    0.544109
     15          6           0       -3.827216   -0.505507   -0.539695
     16          6           0       -4.154354   -1.620288    0.454403
     17          6           0       -4.600367   -2.911928   -0.231550
     18          1           0       -4.710975   -0.306059   -1.161094
     19          1           0       -3.037628   -0.851434   -1.221076
     20          1           0       -4.942121   -1.271865    1.134581
     21          1           0       -3.269774   -1.816973    1.073635
     22          1           0       -3.815139   -3.285987   -0.896453
     23          1           0       -5.496988   -2.737783   -0.835161
     24          1           0       -4.829169   -3.695397    0.497619
     25          6           0       -3.379808    0.792131    0.130892
     26          6           0       -3.052669    1.906911   -0.863205
     27          6           0       -2.606656    3.198552   -0.177253
     28          1           0       -4.169397    1.138057    0.812273
     29          1           0       -2.496049    0.592684    0.752291
     30          1           0       -3.937250    2.103597   -1.482438
     31          1           0       -2.264904    1.558489   -1.543384
     32          1           0       -1.710036    3.024406    0.426358
     33          1           0       -3.391884    3.572611    0.487651
     34          1           0       -2.377855    3.982021   -0.906422
 ---------------------------------------------------------------------

 SCF Done:  E(RHF) =  -669.536550762     A.U. after   15 cycles
 E2 =    -0.2091372937D+01 EUMP2 =    -0.67162792369912D+03

 The electronic state is 1-A.
 Alpha  occ. eigenvalues --  -20.61086 -20.61080 -15.86111 -11.31376 -11.27933
 Alpha  occ. eigenvalues --  -11.27928 -11.27659 -11.26927 -11.26917 -11.20622
 Alpha  occ. eigenvalues --  -11.20445 -11.20345 -11.20298 -11.19917 -11.19869
 Alpha  occ. eigenvalues --   -1.60140  -1.39698  -1.19538  -1.08953  -1.07253
 Alpha  occ. eigenvalues --   -1.04926  -1.02470  -0.95804  -0.94919  -0.86329
 Alpha  occ. eigenvalues --   -0.85943  -0.82641  -0.78550  -0.77700  -0.77044
 Alpha  occ. eigenvalues --   -0.72342  -0.71447  -0.70647  -0.65201  -0.64929
 Alpha  occ. eigenvalues --   -0.63844  -0.62274  -0.59853  -0.58310  -0.56541
 Alpha  occ. eigenvalues --   -0.55433  -0.54191  -0.53260  -0.53018  -0.51679
 Alpha  occ. eigenvalues --   -0.51357  -0.49147  -0.49085  -0.48807  -0.46875
 Alpha  occ. eigenvalues --   -0.45566  -0.45114  -0.44626  -0.44387  -0.42687
 Alpha  occ. eigenvalues --   -0.37514  -0.36525
 Alpha virt. eigenvalues --    0.04819   0.11131   0.16322   0.21168   0.23869
 Alpha virt. eigenvalues --    0.25221   0.26987   0.27493   0.28510   0.28740
 Alpha virt. eigenvalues --    0.29062   0.30861   0.31986   0.32600   0.32847

 Mulliken charges:
               1
     1  C   -0.170390
     2  C   -0.218525
     3  C   -0.170685
     4  C    0.157541
     5  C   -0.170320
     6  C   -0.218608
     7  H    0.226348
     8  H    0.224220
     9  H    0.275605
    10  H    0.276032
    11  H    0.224117
    12  N    0.492391
    13  O   -0.458049
    14  O   -0.464994
    15  C   -0.295801
    16  C   -0.300242
    17  C   -0.474806
    18  H    0.143539
    19  H    0.146700
    20  H    0.149840
    21  H    0.158152
    22  H    0.152443
    23  H    0.152497
    24  H    0.157787
    25  C   -0.309330
    26  C   -0.294494
    27  C   -0.478641
    28  H    0.142988
    29  H    0.180704
    30  H    0.144565
    31  H    0.148456
    32  H    0.166984
    33  H    0.151614
    34  H    0.152361
 Sum of Mulliken charges =  -0.00000

 Dipole moment (field-independent basis, Debye):
    X=              4.6477    Y=             -0.8489    Z=             -2.7485  Tot=              5.4659
 Quadrupole moment (field-independent basis, Debye-Ang):
   XX=            -71.7854   YY=            -97.2157   ZZ=            -93.4406
   XY=             -3.2142   XZ=             -4.5688   YZ=             -0.3503

 Normal termination of Gaussian 16 at Wed May  5 19:00:38 2021.
