 Gaussian 16, Revision A.03,
 Gaussian 16:  EM64L-G16RevA.03 25-Dec-2016

 -------------
 #p 6-31g* mp2
 -------------

 ------------------------------------------------------
 Input file generated by CHIRIPA (05-May-2021 14:57:26)
 ------------------------------------------------------
 Symbolic Z-matrix:
 Charge =  0 Multiplicity = 1

                         Standard orientation:
 ---------------------------------------------------------------------
 Center     Atomic      Atomic             Coordinates (Angstroms)
 Number     Number       Type             X           Y           Z
 ---------------------------------------------------------------------
      1          6           0       -2.959319    2.490205   -0.695286
      2          6           0       -1.987702    1.572868   -1.108776
      3          6           0       -2.053424    0.237063   -0.701523
      4          6           0       -3.109199   -0.148796    0.122941
      5          6           0       -4.092499    0.741450    0.551747
      6          6           0       -4.006769    2.072305    0.132197
      7          1           0       -2.900493    3.525968   -1.016426
      8          1           0       -1.173112    1.894593   -1.751412
      9          1           0       -1.314691   -0.494039   -1.006778
     10          1           0       -4.892658    0.391009    1.192336
     11          1           0       -4.762750    2.782528    0.454876
     12          7           0       -3.189367   -1.560333    0.560591
     13          8           0       -4.129523   -1.875177    1.286964
     14          8           0       -2.310528   -2.325124    0.168961
     15          6           0        3.931830    2.065073    0.973618
     16          6           0        2.928890    2.097835   -0.000834
     17          6           0        2.458120    0.913386   -0.575295
     18          6           0        3.015180   -0.291591   -0.149850
     19          6           0        4.015493   -0.356989    0.818855
     20          6           0        4.470981    0.839925    1.379636
     21          1           0        4.291600    2.990023    1.414559
     22          1           0        2.508339    3.047852   -0.318089
     23          1           0        1.682609    0.909848   -1.331594
     24          1           0        4.415332   -1.319282    1.114724
     25          1           0        5.249976    0.811451    2.136209
     26          7           0        2.524887   -1.552112   -0.750765
     27          8           0        3.032024   -2.600808   -0.358735
     28          8           0        1.642741   -1.467546   -1.602413
 ---------------------------------------------------------------------

 SCF Done:  E(RHF) =  -868.337331529     A.U. after   16 cycles
 E2 =    -0.2600231654D+01 EUMP2 =    -0.87093756318305D+03

 The electronic state is 1-A.
 Alpha  occ. eigenvalues --  -20.61070 -20.61014 -20.60338 -20.60291 -15.86083
 Alpha  occ. eigenvalues --  -15.85376 -11.31523 -11.30908 -11.28194 -11.28036
 Alpha  occ. eigenvalues --  -11.27827 -11.27567 -11.27426 -11.27398 -11.27177
 Alpha  occ. eigenvalues --  -11.27072 -11.26651 -11.26614  -1.60084  -1.59398
 Alpha  occ. eigenvalues --   -1.39648  -1.38940  -1.19692  -1.19137  -1.09065
 Alpha  occ. eigenvalues --   -1.08518  -1.05120  -1.04567  -0.95895  -0.95304
 Alpha  occ. eigenvalues --   -0.86513  -0.85963  -0.82737  -0.82135  -0.77791
 Alpha  occ. eigenvalues --   -0.77124  -0.72301  -0.71588  -0.71389  -0.70812
 Alpha  occ. eigenvalues --   -0.70733  -0.70241  -0.65355  -0.65133  -0.64791
 Alpha  occ. eigenvalues --   -0.64597  -0.62504  -0.61865  -0.55602  -0.55102
 Alpha  occ. eigenvalues --   -0.53422  -0.53227  -0.52895  -0.52664  -0.49062
 Alpha  occ. eigenvalues --   -0.49039  -0.48379  -0.48322  -0.45023  -0.44310
 Alpha  occ. eigenvalues --   -0.37655  -0.37166  -0.36727  -0.36170
 Alpha virt. eigenvalues --    0.04737   0.05402   0.10922   0.11459   0.16204
 Alpha virt. eigenvalues --    0.16789   0.19408   0.22005   0.24936   0.27371
 Alpha virt. eigenvalues --    0.28327   0.29154   0.30827   0.31180   0.32875

 Mulliken charges:
               1
     1  C   -0.171007
     2  C   -0.222388
     3  C   -0.177539
     4  C    0.157350
     5  C   -0.170292
     6  C   -0.219436
     7  H    0.222313
     8  H    0.215841
     9  H    0.293686
    10  H    0.275303
    11  H    0.221993
    12  N    0.486761
    13  O   -0.463559
    14  O   -0.452085
    15  C   -0.170604
    16  C   -0.217084
    17  C   -0.171357
    18  C    0.160858
    19  C   -0.169491
    20  C   -0.217939
    21  H    0.226270
    22  H    0.219984
    23  H    0.266802
    24  H    0.278173
    25  H    0.225320
    26  N    0.490453
    27  O   -0.452670
    28  O   -0.465658
 Sum of Mulliken charges =  -0.00000

 Dipole moment (field-independent basis, Debye):
    X=              2.2637    Y=              9.1063    Z=              0.6853  Tot=              9.4084
 Quadrupole moment (field-independent basis, Debye-Ang):
   XX=            -90.8972   YY=           -108.3646   ZZ=           -104.2045
   XY=             -5.5085   XZ=             11.1207   YZ=             -1.3008

 Normal termination of Gaussian 16 at Fri May  7 09:42:03 2021.
