 Gaussian 16, Revision A.03,
 Gaussian 16:  EM64L-G16RevA.03 25-Dec-2016

 -------------
 #p 6-31g* mp2
 -------------

 ------------------------------------------------------
 Input file generated by CHIRIPA (05-May-2021 14:53:15)
 ------------------------------------------------------
 Symbolic Z-matrix:
 Charge =  0 Multiplicity = 1

                         Standard orientation:
 ---------------------------------------------------------------------
 Center     Atomic      Atomic             Coordinates (Angstroms)
 Number     Number       Type             X           Y           Z
 ---------------------------------------------------------------------
      1          6           0        3.954758   -0.134766   -0.342683
      2          6           0        5.442627   -0.297911   -0.030250
      3          6           0        5.998181   -1.647077   -0.487311
      4          1           0        3.393976   -0.946534    0.140538
      5          1           0        3.799764   -0.248671   -1.424532
      6          1           0        5.594954   -0.182358    1.050519
      7          1           0        5.999910    0.514449   -0.514112
      8          1           0        5.875319   -1.767984   -1.568462
      9          1           0        5.468061   -2.468750    0.005059
     10          1           0        7.063257   -1.742472   -0.254132
     11          6           0        3.384831    1.208954    0.108233
     12          6           0        1.896962    1.372099   -0.204200
     13          6           0        1.341408    2.721265    0.252861
     14          1           0        3.539825    1.322859    1.190083
     15          1           0        3.945613    2.020722   -0.374988
     16          1           0        1.339679    0.559739    0.279663
     17          1           0        1.744635    1.256546   -1.284968
     18          1           0        1.871528    3.542938   -0.239509
     19          1           0        1.464270    2.842172    1.334012
     20          1           0        0.276332    2.816660    0.019683
     21          6           0       -0.699829   -1.118805    1.177995
     22          6           0       -0.836787   -1.178309   -0.212768
     23          6           0       -2.032999   -0.793405   -0.825528
     24          6           0       -3.076544   -0.352008   -0.013448
     25          6           0       -2.970813   -0.281401    1.374761
     26          6           0       -1.765400   -0.671329    1.965931
     27          1           0        0.232991   -1.419760    1.645616
     28          1           0       -0.010925   -1.525414   -0.827191
     29          1           0       -2.166138   -0.829481   -1.899954
     30          1           0       -3.811723    0.068931    1.960897
     31          1           0       -1.661878   -0.624071    3.046253
     32          7           0       -4.347790    0.058131   -0.650722
     33          8           0       -5.252253    0.443354    0.086968
     34          8           0       -4.415658   -0.013388   -1.875841
 ---------------------------------------------------------------------

 SCF Done:  E(RHF) =  -669.534206488     A.U. after   15 cycles
 E2 =    -0.2093308519D+01 EUMP2 =    -0.67162751500713D+03

 The electronic state is 1-A.
 Alpha  occ. eigenvalues --  -20.60788 -20.60782 -15.85841 -11.31224 -11.27783
 Alpha  occ. eigenvalues --  -11.27764 -11.27528 -11.26818 -11.26784 -11.22252
 Alpha  occ. eigenvalues --  -11.22176 -11.22109 -11.21987 -11.21666 -11.21478
 Alpha  occ. eigenvalues --   -1.59863  -1.39416  -1.19400  -1.09102  -1.08795
 Alpha  occ. eigenvalues --   -1.04801  -1.04106  -0.96556  -0.95632  -0.87570
 Alpha  occ. eigenvalues --   -0.86206  -0.82454  -0.80194  -0.78941  -0.77488
 Alpha  occ. eigenvalues --   -0.72060  -0.71186  -0.70529  -0.65753  -0.65048
 Alpha  occ. eigenvalues --   -0.64794  -0.62145  -0.61520  -0.59927  -0.58180
 Alpha  occ. eigenvalues --   -0.55862  -0.55317  -0.53285  -0.53088  -0.52978
 Alpha  occ. eigenvalues --   -0.52880  -0.50502  -0.48822  -0.48814  -0.48492
 Alpha  occ. eigenvalues --   -0.47239  -0.46469  -0.46398  -0.44818  -0.44383
 Alpha  occ. eigenvalues --   -0.37286  -0.36360
 Alpha virt. eigenvalues --    0.04994   0.11204   0.16406   0.19914   0.22717
 Alpha virt. eigenvalues --    0.23892   0.25340   0.25928   0.27371   0.27763
 Alpha virt. eigenvalues --    0.29852   0.30479   0.31218   0.31526   0.31615

 Mulliken charges:
               1
     1  C   -0.297224
     2  C   -0.299762
     3  C   -0.475982
     4  H    0.139319
     5  H    0.150217
     6  H    0.152342
     7  H    0.154886
     8  H    0.156090
     9  H    0.153296
    10  H    0.162681
    11  C   -0.298088
    12  C   -0.305021
    13  C   -0.475423
    14  H    0.148545
    15  H    0.152609
    16  H    0.152322
    17  H    0.150214
    18  H    0.156980
    19  H    0.153402
    20  H    0.164594
    21  C   -0.172603
    22  C   -0.213624
    23  C   -0.172811
    24  C    0.158602
    25  C   -0.171276
    26  C   -0.218981
    27  H    0.225833
    28  H    0.226264
    29  H    0.275736
    30  H    0.275748
    31  H    0.223639
    32  N    0.488022
    33  O   -0.460293
    34  O   -0.460257
 Sum of Mulliken charges =  -0.00000

 Dipole moment (field-independent basis, Debye):
    X=              4.5064    Y=             -1.3893    Z=              2.2245  Tot=              5.2140
 Quadrupole moment (field-independent basis, Debye-Ang):
   XX=           -122.1267   YY=            -94.9162   ZZ=            -90.1111
   XY=              3.1189   XZ=             -9.1798   YZ=             -0.3382

 Normal termination of Gaussian 16 at Thu May  6 05:53:27 2021.
