 Gaussian 16, Revision A.03,
 Gaussian 16:  EM64L-G16RevA.03 25-Dec-2016

 -------------
 #p 6-31g* mp2
 -------------

 ------------------------------------------------------
 Input file generated by CHIRIPA (05-May-2021 14:57:26)
 ------------------------------------------------------
 Symbolic Z-matrix:
 Charge =  0 Multiplicity = 1

                         Standard orientation:
 ---------------------------------------------------------------------
 Center     Atomic      Atomic             Coordinates (Angstroms)
 Number     Number       Type             X           Y           Z
 ---------------------------------------------------------------------
      1          6           0       -5.891618    0.732337    0.369621
      2          6           0       -5.653929   -0.613291    0.070774
      3          6           0       -4.374960   -1.044465   -0.293745
      4          6           0       -3.352273   -0.098799   -0.349564
      5          6           0       -3.557501    1.248768   -0.057616
      6          6           0       -4.844491    1.657441    0.304587
      7          1           0       -6.888267    1.058544    0.651889
      8          1           0       -6.465237   -1.333955    0.120451
      9          1           0       -4.163079   -2.080131   -0.530221
     10          1           0       -2.728682    1.943809   -0.115885
     11          1           0       -5.026162    2.703111    0.536139
     12          7           0       -1.994039   -0.543353   -0.734239
     13          8           0       -1.109992    0.309495   -0.776029
     14          8           0       -1.839222   -1.736226   -0.986672
     15          6           0        1.429196   -0.574248    1.468062
     16          6           0        1.693962    0.757034    1.130263
     17          6           0        2.880266    1.100906    0.475293
     18          6           0        3.783683    0.083515    0.171903
     19          6           0        3.548574   -1.251940    0.495280
     20          6           0        2.355713   -1.572725    1.150054
     21          1           0        0.505101   -0.832409    1.976782
     22          1           0        0.976240    1.534553    1.375988
     23          1           0        3.110549    2.123539    0.202149
     24          1           0        4.283230   -2.005003    0.237220
     25          1           0        2.152745   -2.607455    1.411174
     26          7           0        5.043040    0.435337   -0.521380
     27          8           0        5.822747   -0.479565   -0.777599
     28          8           0        5.226570    1.619335   -0.795428
 ---------------------------------------------------------------------

 SCF Done:  E(RHF) =  -868.337910132     A.U. after   16 cycles
 E2 =    -0.2600173646D+01 EUMP2 =    -0.87093808377851D+03

 The electronic state is 1-A.
 Alpha  occ. eigenvalues --  -20.61625 -20.61619 -20.59809 -20.59804 -15.86651
 Alpha  occ. eigenvalues --  -15.84855 -11.31928 -11.29983 -11.28498 -11.28459
 Alpha  occ. eigenvalues --  -11.28168 -11.27458 -11.27437 -11.26539 -11.26514
 Alpha  occ. eigenvalues --  -11.26237 -11.25516 -11.25492  -1.60698  -1.58888
 Alpha  occ. eigenvalues --   -1.40255  -1.38450  -1.20084  -1.18121  -1.09491
 Alpha  occ. eigenvalues --   -1.07560  -1.05466  -1.03509  -0.96343  -0.94448
 Alpha  occ. eigenvalues --   -0.86868  -0.84929  -0.83174  -0.81305  -0.78248
 Alpha  occ. eigenvalues --   -0.76382  -0.72873  -0.72048  -0.71177  -0.71086
 Alpha  occ. eigenvalues --   -0.70204  -0.69274  -0.65732  -0.65456  -0.63797
 Alpha  occ. eigenvalues --   -0.63543  -0.62816  -0.60897  -0.55951  -0.54056
 Alpha  occ. eigenvalues --   -0.53806  -0.53550  -0.51829  -0.51641  -0.49635
 Alpha  occ. eigenvalues --   -0.49587  -0.47850  -0.47821  -0.45680  -0.43910
 Alpha  occ. eigenvalues --   -0.38058  -0.37069  -0.35986  -0.35052
 Alpha virt. eigenvalues --    0.04241   0.06172   0.10586   0.12600   0.15805
 Alpha virt. eigenvalues --    0.17731   0.20723   0.22435   0.26593   0.27418
 Alpha virt. eigenvalues --    0.28496   0.29229   0.30438   0.31412   0.32478

 Mulliken charges:
               1
     1  C   -0.170308
     2  C   -0.218265
     3  C   -0.171244
     4  C    0.156836
     5  C   -0.172407
     6  C   -0.218144
     7  H    0.228063
     8  H    0.225690
     9  H    0.276434
    10  H    0.273057
    11  H    0.225270
    12  N    0.486855
    13  O   -0.461390
    14  O   -0.458656
    15  C   -0.158022
    16  C   -0.199892
    17  C   -0.172949
    18  C    0.158250
    19  C   -0.171784
    20  C   -0.216112
    21  H    0.218171
    22  H    0.216776
    23  H    0.270728
    24  H    0.271779
    25  H    0.220352
    26  N    0.488310
    27  O   -0.463516
    28  O   -0.463883
 Sum of Mulliken charges =  -0.00000

 Dipole moment (field-independent basis, Debye):
    X=             -9.6903    Y=              0.2904    Z=              3.7468  Tot=             10.3934
 Quadrupole moment (field-independent basis, Debye-Ang):
   XX=           -106.9748   YY=            -96.4851   ZZ=           -106.7233
   XY=             -9.7673   XZ=              5.6631   YZ=             -0.1473

 Normal termination of Gaussian 16 at Thu May  6 11:28:03 2021.
