 Gaussian 16, Revision A.03,
 Gaussian 16:  EM64L-G16RevA.03 25-Dec-2016

 -------------
 #p 6-31g* mp2
 -------------

 ------------------------------------------------------
 Input file generated by CHIRIPA (05-May-2021 14:55:23)
 ------------------------------------------------------
 Symbolic Z-matrix:
 Charge =  0 Multiplicity = 1

                         Standard orientation:
 ---------------------------------------------------------------------
 Center     Atomic      Atomic             Coordinates (Angstroms)
 Number     Number       Type             X           Y           Z
 ---------------------------------------------------------------------
      1          6           0       -1.420126    0.528032   -0.325537
      2          6           0       -1.946474   -0.754326   -0.512718
      3          6           0       -3.321858   -0.980155   -0.403777
      4          6           0       -4.145563    0.104106   -0.105151
      5          6           0       -3.651366    1.393359    0.086907
      6          6           0       -2.272749    1.595899   -0.026848
      7          1           0       -0.350439    0.694415   -0.412034
      8          1           0       -1.286701   -1.585526   -0.744779
      9          1           0       -3.756001   -1.962671   -0.543777
     10          1           0       -4.334189    2.202138    0.317227
     11          1           0       -1.866775    2.592869    0.119034
     12          7           0       -5.603332   -0.122641    0.012729
     13          8           0       -6.307802    0.849313    0.276671
     14          8           0       -6.013858   -1.268025   -0.161053
     15          6           0        4.350063   -0.549547   -0.004322
     16          6           0        3.250908   -0.333996    1.036534
     17          6           0        1.959268   -1.077481    0.694935
     18          1           0        3.985122   -0.220988   -0.987079
     19          1           0        4.557093   -1.625164   -0.091390
     20          1           0        3.046983    0.741002    1.122614
     21          1           0        3.618576   -0.662929    2.016962
     22          1           0        2.141007   -2.155071    0.628807
     23          1           0        1.566165   -0.743163   -0.270624
     24          1           0        1.187080   -0.909500    1.452146
     25          6           0        5.647518    0.187366    0.323243
     26          6           0        6.746674   -0.028185   -0.717613
     27          6           0        8.038314    0.715300   -0.376014
     28          1           0        5.440489    1.262983    0.410311
     29          1           0        6.012460   -0.141194    1.306000
     30          1           0        6.379005    0.300748   -1.698041
     31          1           0        6.950599   -1.103183   -0.803693
     32          1           0        8.431415    0.380981    0.589545
     33          1           0        7.856575    1.792890   -0.309885
     34          1           0        8.810501    0.547319   -1.133225
 ---------------------------------------------------------------------

 SCF Done:  E(RHF) =  -669.535328075     A.U. after   15 cycles
 E2 =    -0.2091214826D+01 EUMP2 =    -0.67162654290122D+03

 The electronic state is 1-A.
 Alpha  occ. eigenvalues --  -20.60704 -20.60699 -15.85757 -11.31105 -11.27677
 Alpha  occ. eigenvalues --  -11.27669 -11.27355 -11.26678 -11.26653 -11.22622
 Alpha  occ. eigenvalues --  -11.22368 -11.22223 -11.22168 -11.22043 -11.21544
 Alpha  occ. eigenvalues --   -1.59780  -1.39334  -1.19274  -1.09226  -1.08667
 Alpha  occ. eigenvalues --   -1.04676  -1.04357  -0.96830  -0.95504  -0.87853
 Alpha  occ. eigenvalues --   -0.86067  -0.82342  -0.80433  -0.78994  -0.77393
 Alpha  occ. eigenvalues --   -0.71975  -0.71103  -0.70400  -0.65860  -0.64923
 Alpha  occ. eigenvalues --   -0.64681  -0.62033  -0.61757  -0.60200  -0.58403
 Alpha  occ. eigenvalues --   -0.56238  -0.55078  -0.53525  -0.53245  -0.52978
 Alpha  occ. eigenvalues --   -0.52756  -0.50752  -0.48743  -0.48732  -0.48725
 Alpha  occ. eigenvalues --   -0.47452  -0.46546  -0.46444  -0.44744  -0.44585
 Alpha  occ. eigenvalues --   -0.37236  -0.36284
 Alpha virt. eigenvalues --    0.05133   0.11345   0.16609   0.19990   0.22357
 Alpha virt. eigenvalues --    0.23712   0.25617   0.26048   0.26894   0.27513
 Alpha virt. eigenvalues --    0.29016   0.30104   0.30741   0.31341   0.32085

 Mulliken charges:
               1
     1  C   -0.173109
     2  C   -0.221093
     3  C   -0.171165
     4  C    0.158192
     5  C   -0.170947
     6  C   -0.219650
     7  H    0.231317
     8  H    0.225248
     9  H    0.275308
    10  H    0.275178
    11  H    0.222998
    12  N    0.488076
    13  O   -0.460718
    14  O   -0.460670
    15  C   -0.298804
    16  C   -0.300524
    17  C   -0.483012
    18  H    0.148348
    19  H    0.151693
    20  H    0.150619
    21  H    0.157202
    22  H    0.160763
    23  H    0.144888
    24  H    0.165276
    25  C   -0.298798
    26  C   -0.300164
    27  C   -0.476101
    28  H    0.149606
    29  H    0.151460
    30  H    0.152037
    31  H    0.152986
    32  H    0.156155
    33  H    0.155525
    34  H    0.161879
 Sum of Mulliken charges =  -0.00000

 Dipole moment (field-independent basis, Debye):
    X=              5.4037    Y=              0.7540    Z=             -0.3518  Tot=              5.4673
 Quadrupole moment (field-independent basis, Debye-Ang):
   XX=           -138.0157   YY=            -89.3983   ZZ=            -95.0055
   XY=             -4.3794   XZ=              1.2587   YZ=              0.4604

 Normal termination of Gaussian 16 at Thu May  6 07:54:34 2021.
