 Gaussian 16, Revision A.03,
 Gaussian 16:  EM64L-G16RevA.03 25-Dec-2016

 -------------
 #p 6-31g* mp2
 -------------

 ------------------------------------------------------
 Input file generated by CHIRIPA (05-May-2021 14:53:18)
 ------------------------------------------------------
 Symbolic Z-matrix:
 Charge =  0 Multiplicity = 1

                         Standard orientation:
 ---------------------------------------------------------------------
 Center     Atomic      Atomic             Coordinates (Angstroms)
 Number     Number       Type             X           Y           Z
 ---------------------------------------------------------------------
      1          6           0        2.648981   -0.669326    0.006898
      2          6           0        2.116516   -1.671851   -1.017509
      3          6           0        0.650552   -2.036379   -0.781153
      4          1           0        2.531913   -1.088375    1.015678
      5          1           0        2.033882    0.240567   -0.026915
      6          1           0        2.733288   -2.579044   -0.982742
      7          1           0        2.235040   -1.250447   -2.023981
      8          1           0        0.018071   -1.144458   -0.836341
      9          1           0        0.519150   -2.480604    0.210814
     10          1           0        0.290432   -2.754189   -1.524740
     11          6           0        4.113182   -0.295060   -0.216189
     12          6           0        4.645648    0.707465    0.808218
     13          6           0        6.111611    1.071993    0.571862
     14          1           0        4.728282   -1.204952   -0.182376
     15          1           0        4.230250    0.123989   -1.224970
     16          1           0        4.527123    0.286061    1.814690
     17          1           0        4.028875    1.614658    0.773451
     18          1           0        6.243013    1.516218   -0.420105
     19          1           0        6.744092    0.180072    0.627050
     20          1           0        6.471731    1.789804    1.315449
     21          6           0       -3.198557   -1.923784    0.955418
     22          6           0       -2.993696   -1.725736   -0.414008
     23          6           0       -2.684524   -0.455427   -0.909260
     24          6           0       -2.587613    0.599117   -0.002708
     25          6           0       -2.786128    0.433695    1.367152
     26          6           0       -3.094304   -0.845338    1.840069
     27          1           0       -3.438342   -2.913979    1.331468
     28          1           0       -3.074017   -2.561427   -1.103364
     29          1           0       -2.520991   -0.273957   -1.964601
     30          1           0       -2.699277    1.286187    2.029823
     31          1           0       -3.252884   -0.996194    2.904089
     32          7           0       -2.260834    1.948554   -0.515187
     33          8           0       -2.181182    2.861201    0.304183
     34          8           0       -2.090544    2.068044   -1.726533
 ---------------------------------------------------------------------

 SCF Done:  E(RHF) =  -669.534455274     A.U. after   15 cycles
 E2 =    -0.2092878285D+01 EUMP2 =    -0.67162733355925D+03

 The electronic state is 1-A.
 Alpha  occ. eigenvalues --  -20.60807 -20.60801 -15.85860 -11.31201 -11.27768
 Alpha  occ. eigenvalues --  -11.27744 -11.27506 -11.26779 -11.26751 -11.21576
 Alpha  occ. eigenvalues --  -11.21435 -11.21308 -11.21233 -11.21136 -11.20910
 Alpha  occ. eigenvalues --   -1.59885  -1.39438  -1.19383  -1.08774  -1.08337
 Alpha  occ. eigenvalues --   -1.04785  -1.03459  -0.95930  -0.95611  -0.86952
 Alpha  occ. eigenvalues --   -0.86178  -0.82444  -0.79533  -0.78145  -0.77493
 Alpha  occ. eigenvalues --   -0.72076  -0.71214  -0.70487  -0.65031  -0.64965
 Alpha  occ. eigenvalues --   -0.64774  -0.62127  -0.60867  -0.59305  -0.57556
 Alpha  occ. eigenvalues --   -0.55293  -0.55255  -0.53377  -0.52872  -0.52599
 Alpha  occ. eigenvalues --   -0.52122  -0.49842  -0.48835  -0.48832  -0.47821
 Alpha  occ. eigenvalues --   -0.46552  -0.45688  -0.45600  -0.44843  -0.43726
 Alpha  occ. eigenvalues --   -0.37348  -0.36267
 Alpha virt. eigenvalues --    0.05033   0.11185   0.16513   0.21277   0.22967
 Alpha virt. eigenvalues --    0.24318   0.26735   0.26958   0.27565   0.28201
 Alpha virt. eigenvalues --    0.28509   0.30334   0.31462   0.31932   0.32056

 Mulliken charges:
               1
     1  C   -0.298748
     2  C   -0.300027
     3  C   -0.477401
     4  H    0.147324
     5  H    0.153236
     6  H    0.149987
     7  H    0.153790
     8  H    0.161868
     9  H    0.152261
    10  H    0.151978
    11  C   -0.298317
    12  C   -0.300216
    13  C   -0.475755
    14  H    0.148080
    15  H    0.151387
    16  H    0.150335
    17  H    0.155266
    18  H    0.156151
    19  H    0.153968
    20  H    0.160402
    21  C   -0.171408
    22  C   -0.209638
    23  C   -0.177081
    24  C    0.160849
    25  C   -0.171194
    26  C   -0.218071
    27  H    0.225700
    28  H    0.223929
    29  H    0.275835
    30  H    0.275598
    31  H    0.223429
    32  N    0.487819
    33  O   -0.460322
    34  O   -0.461014
 Sum of Mulliken charges =  -0.00000

 Dipole moment (field-independent basis, Debye):
    X=             -1.2192    Y=             -4.7014    Z=              1.8187  Tot=              5.1862
 Quadrupole moment (field-independent basis, Debye-Ang):
   XX=            -90.6171   YY=           -100.1479   ZZ=            -90.1883
   XY=             11.4439   XZ=             -4.8000   YZ=              2.4833

 Normal termination of Gaussian 16 at Wed May  5 18:50:37 2021.
