 Gaussian 16, Revision A.03,
 Gaussian 16:  EM64L-G16RevA.03 25-Dec-2016

 -------------
 #p 6-31g* mp2
 -------------

 ------------------------------------------------------
 Input file generated by CHIRIPA (05-May-2021 14:57:26)
 ------------------------------------------------------
 Symbolic Z-matrix:
 Charge =  0 Multiplicity = 1

                         Standard orientation:
 ---------------------------------------------------------------------
 Center     Atomic      Atomic             Coordinates (Angstroms)
 Number     Number       Type             X           Y           Z
 ---------------------------------------------------------------------
      1          6           0        2.297065    1.684760    1.569396
      2          6           0        1.729454    0.434238    1.303812
      3          6           0        2.401853   -0.495496    0.505049
      4          6           0        3.645737   -0.139950   -0.014209
      5          6           0        4.237462    1.097946    0.232295
      6          6           0        3.547053    2.012046    1.033734
      7          1           0        1.767734    2.400927    2.190934
      8          1           0        0.758837    0.177339    1.718480
      9          1           0        1.985547   -1.470694    0.283469
     10          1           0        5.206494    1.325323   -0.195134
     11          1           0        3.990290    2.982475    1.238316
     12          7           0        4.367108   -1.115942   -0.861241
     13          8           0        5.461729   -0.778463   -1.306831
     14          8           0        3.824239   -2.199923   -1.063515
     15          6           0       -3.211640    2.287062   -1.094854
     16          6           0       -4.469616    1.676803   -1.134899
     17          6           0       -4.655865    0.398290   -0.600797
     18          6           0       -3.557319   -0.244031   -0.031668
     19          6           0       -2.291618    0.337572    0.023351
     20          6           0       -2.128566    1.616681   -0.516875
     21          1           0       -3.075967    3.280472   -1.512136
     22          1           0       -5.312545    2.195063   -1.583143
     23          1           0       -5.618851   -0.097456   -0.618457
     24          1           0       -1.470301   -0.203999    0.476737
     25          1           0       -1.150463    2.088173   -0.484376
     26          7           0       -3.742214   -1.597850    0.537004
     27          8           0       -2.758388   -2.142678    1.032874
     28          8           0       -4.867459   -2.088512    0.476091
 ---------------------------------------------------------------------

 SCF Done:  E(RHF) =  -868.337420326     A.U. after   16 cycles
 E2 =    -0.2599911089D+01 EUMP2 =    -0.87093733141530D+03

 The electronic state is 1-A.
 Alpha  occ. eigenvalues --  -20.61259 -20.61237 -20.61019 -20.61006 -15.86305
 Alpha  occ. eigenvalues --  -15.86076 -11.31715 -11.31593 -11.28358 -11.28231
 Alpha  occ. eigenvalues --  -11.28201 -11.28188 -11.28021 -11.27989 -11.27313
 Alpha  occ. eigenvalues --  -11.27296 -11.27253 -11.27232  -1.60321  -1.60090
 Alpha  occ. eigenvalues --   -1.39877  -1.39637  -1.19877  -1.19806  -1.09255
 Alpha  occ. eigenvalues --   -1.09178  -1.05306  -1.05219  -0.96092  -0.95975
 Alpha  occ. eigenvalues --   -0.86693  -0.86616  -0.82932  -0.82799  -0.78004
 Alpha  occ. eigenvalues --   -0.77794  -0.72523  -0.72288  -0.71642  -0.71418
 Alpha  occ. eigenvalues --   -0.70999  -0.70902  -0.65539  -0.65461  -0.65355
 Alpha  occ. eigenvalues --   -0.65179  -0.62790  -0.62412  -0.55794  -0.55718
 Alpha  occ. eigenvalues --   -0.53607  -0.53555  -0.53474  -0.53217  -0.49289
 Alpha  occ. eigenvalues --   -0.49270  -0.49064  -0.49033  -0.45273  -0.45008
 Alpha  occ. eigenvalues --   -0.37838  -0.37819  -0.36898  -0.36839
 Alpha virt. eigenvalues --    0.04559   0.04715   0.10700   0.10755   0.16051
 Alpha virt. eigenvalues --    0.16077   0.19108   0.21845   0.24749   0.27020
 Alpha virt. eigenvalues --    0.27931   0.29049   0.29829   0.31073   0.32167

 Mulliken charges:
               1
     1  C   -0.173852
     2  C   -0.229175
     3  C   -0.171026
     4  C    0.158526
     5  C   -0.169870
     6  C   -0.219007
     7  H    0.225962
     8  H    0.226123
     9  H    0.282011
    10  H    0.277246
    11  H    0.224424
    12  N    0.487864
    13  O   -0.459936
    14  O   -0.456960
    15  C   -0.170508
    16  C   -0.217972
    17  C   -0.169957
    18  C    0.160967
    19  C   -0.175595
    20  C   -0.220136
    21  H    0.226930
    22  H    0.225499
    23  H    0.277419
    24  H    0.269900
    25  H    0.223299
    26  N    0.488038
    27  O   -0.463014
    28  O   -0.457201
 Sum of Mulliken charges =  -0.00000

 Dipole moment (field-independent basis, Debye):
    X=             -1.8881    Y=              8.1737    Z=              0.8872  Tot=              8.4358
 Quadrupole moment (field-independent basis, Debye-Ang):
   XX=           -119.4004   YY=           -106.8114   ZZ=           -105.9025
   XY=             -1.7996   XZ=             19.3105   YZ=             -0.6657

 Normal termination of Gaussian 16 at Thu May  6 11:28:19 2021.
