 Gaussian 16, Revision A.03,
 Gaussian 16:  EM64L-G16RevA.03 25-Dec-2016

 -------------
 #p 6-31g* mp2
 -------------

 ------------------------------------------------------
 Input file generated by CHIRIPA (05-May-2021 14:55:19)
 ------------------------------------------------------
 Symbolic Z-matrix:
 Charge =  0 Multiplicity = 1

                         Standard orientation:
 ---------------------------------------------------------------------
 Center     Atomic      Atomic             Coordinates (Angstroms)
 Number     Number       Type             X           Y           Z
 ---------------------------------------------------------------------
      1          6           0       -2.986702    1.856581    0.779968
      2          6           0       -1.823132    1.310595    1.331807
      3          6           0       -1.428617    0.008265    1.011119
      4          6           0       -2.224896   -0.723156    0.131203
      5          6           0       -3.389551   -0.207129   -0.434999
      6          6           0       -3.764826    1.097315   -0.100122
      7          1           0       -3.285698    2.869084    1.034597
      8          1           0       -1.216888    1.897934    2.015580
      9          1           0       -0.532551   -0.439083    1.423872
     10          1           0       -3.973405   -0.817035   -1.113635
     11          1           0       -4.668965    1.518749   -0.530204
     12          7           0       -1.817424   -2.102994   -0.215806
     13          8           0       -2.536238   -2.726762   -0.993532
     14          8           0       -0.786950   -2.534616    0.296506
     15          6           0        3.564934    0.416931    0.130039
     16          6           0        3.957810   -1.035573   -0.141745
     17          6           0        5.222322   -1.456116    0.607886
     18          1           0        4.397533    1.074718   -0.154635
     19          1           0        3.414387    0.552818    1.209977
     20          1           0        4.106222   -1.169017   -1.220996
     21          1           0        3.124105   -1.689964    0.143431
     22          1           0        5.082265   -1.351395    1.688635
     23          1           0        6.069962   -0.827487    0.316456
     24          1           0        5.484997   -2.497899    0.399200
     25          6           0        2.302719    0.852169   -0.612328
     26          6           0        1.909843    2.304673   -0.340544
     27          6           0        0.645331    2.725217   -1.090175
     28          1           0        2.453265    0.716282   -1.692265
     29          1           0        1.470120    0.194382   -0.327653
     30          1           0        2.743547    2.959065   -0.625719
     31          1           0        1.761431    2.438117    0.738707
     32          1           0       -0.202309    2.096587   -0.798745
     33          1           0        0.785387    2.620495   -2.170923
     34          1           0        0.382656    3.767000   -0.881488
 ---------------------------------------------------------------------

 SCF Done:  E(RHF) =  -669.534595725     A.U. after   15 cycles
 E2 =    -0.2094123764D+01 EUMP2 =    -0.67162871948905D+03

 The electronic state is 1-A.
 Alpha  occ. eigenvalues --  -20.60890 -20.60884 -15.85936 -11.31324 -11.27869
 Alpha  occ. eigenvalues --  -11.27864 -11.27595 -11.26894 -11.26873 -11.21823
 Alpha  occ. eigenvalues --  -11.21399 -11.21324 -11.21256 -11.21123 -11.20808
 Alpha  occ. eigenvalues --   -1.59957  -1.39511  -1.19499  -1.08880  -1.08406
 Alpha  occ. eigenvalues --   -1.04907  -1.03476  -0.95936  -0.95709  -0.86962
 Alpha  occ. eigenvalues --   -0.86280  -0.82541  -0.79556  -0.78193  -0.77588
 Alpha  occ. eigenvalues --   -0.72153  -0.71276  -0.70583  -0.65148  -0.65069
 Alpha  occ. eigenvalues --   -0.64886  -0.62239  -0.60908  -0.59320  -0.57543
 Alpha  occ. eigenvalues --   -0.55391  -0.55323  -0.53269  -0.52974  -0.52625
 Alpha  occ. eigenvalues --   -0.52282  -0.49847  -0.48913  -0.48909  -0.47847
 Alpha  occ. eigenvalues --   -0.46586  -0.45734  -0.45661  -0.44881  -0.43744
 Alpha  occ. eigenvalues --   -0.37445  -0.36406
 Alpha virt. eigenvalues --    0.04906   0.11036   0.16385   0.20246   0.23071
 Alpha virt. eigenvalues --    0.24306   0.25901   0.26681   0.27832   0.28096
 Alpha virt. eigenvalues --    0.29075   0.30738   0.31505   0.31960   0.32216

 Mulliken charges:
               1
     1  C   -0.169151
     2  C   -0.220229
     3  C   -0.172197
     4  C    0.160110
     5  C   -0.171086
     6  C   -0.217570
     7  H    0.226710
     8  H    0.225551
     9  H    0.276115
    10  H    0.276164
    11  H    0.224319
    12  N    0.488715
    13  O   -0.459286
    14  O   -0.461365
    15  C   -0.297617
    16  C   -0.302579
    17  C   -0.475635
    18  H    0.148998
    19  H    0.144897
    20  H    0.152757
    21  H    0.162227
    22  H    0.153639
    23  H    0.153202
    24  H    0.162423
    25  C   -0.302713
    26  C   -0.298192
    27  C   -0.484036
    28  H    0.152602
    29  H    0.152262
    30  H    0.153327
    31  H    0.141783
    32  H    0.165779
    33  H    0.156426
    34  H    0.153651
 Sum of Mulliken charges =  -0.00000

 Dipole moment (field-independent basis, Debye):
    X=             -1.5711    Y=              4.7101    Z=              1.1796  Tot=              5.1034
 Quadrupole moment (field-independent basis, Debye-Ang):
   XX=            -85.7204   YY=           -102.8459   ZZ=            -92.8307
   XY=             -9.4022   XZ=             -1.2535   YZ=              0.1448

 Normal termination of Gaussian 16 at Wed May  5 18:52:03 2021.
