 Gaussian 16, Revision A.03,
 Gaussian 16:  EM64L-G16RevA.03 25-Dec-2016

 -------------
 #p 6-31g* mp2
 -------------

 ------------------------------------------------------
 Input file generated by CHIRIPA (05-May-2021 14:51:10)
 ------------------------------------------------------
 Symbolic Z-matrix:
 Charge =  0 Multiplicity = 1

                         Standard orientation:
 ---------------------------------------------------------------------
 Center     Atomic      Atomic             Coordinates (Angstroms)
 Number     Number       Type             X           Y           Z
 ---------------------------------------------------------------------
      1          6           0        3.046450    0.244060   -0.188557
      2          6           0        4.366880   -0.328205   -0.705242
      3          6           0        4.877002    0.395032   -1.952038
      4          1           0        2.291406    0.183078   -0.984254
      5          1           0        3.179895    1.311678    0.034554
      6          1           0        4.231355   -1.394748   -0.926004
      7          1           0        5.118817   -0.266029    0.091841
      8          1           0        5.040232    1.456966   -1.741677
      9          1           0        4.147728    0.321835   -2.765304
     10          1           0        5.821935   -0.030175   -2.304403
     11          6           0        2.523666   -0.468542    1.057486
     12          6           0        1.203236    0.103722    1.574172
     13          6           0        0.693114   -0.619514    2.820967
     14          1           0        2.390220   -1.536161    0.834375
     15          1           0        3.278710   -0.407561    1.853184
     16          1           0        0.451299    0.041546    0.777089
     17          1           0        1.338760    1.170265    1.794933
     18          1           0        1.422388   -0.546318    3.634234
     19          1           0        0.529884   -1.681449    2.610606
     20          1           0       -0.251819   -0.194308    3.173333
     21          6           0       -2.837195   -0.504620   -0.881897
     22          6           0       -2.894728   -1.817530   -0.100270
     23          6           0       -2.998897   -3.042575   -1.009231
     24          1           0       -3.733491   -0.420586   -1.511609
     25          1           0       -1.976692   -0.529917   -1.564752
     26          1           0       -3.754062   -1.789206    0.581903
     27          1           0       -1.998283   -1.898358    0.527797
     28          1           0       -2.135942   -3.098607   -1.680625
     29          1           0       -3.901696   -2.988835   -1.626212
     30          1           0       -3.038709   -3.970208   -0.429773
     31          6           0       -2.732921    0.729103    0.012968
     32          6           0       -2.675387    2.042013   -0.768659
     33          6           0       -2.571219    3.267058    0.140301
     34          1           0       -3.593424    0.754399    0.695821
     35          1           0       -1.836624    0.645069    0.642679
     36          1           0       -3.571832    2.122841   -1.396727
     37          1           0       -1.816054    2.013688   -1.450832
     38          1           0       -1.668419    3.213317    0.757283
     39          1           0       -3.434174    3.323090    0.811694
     40          1           0       -2.531407    4.194691   -0.439158
 ---------------------------------------------------------------------

 SCF Done:  E(RHF) =  -470.733274732     A.U. after   11 cycles
 E2 =    -0.1583490655D+01 EUMP2 =    -0.47231676538698D+03

 The electronic state is 1-A.
 Alpha  occ. eigenvalues --  -11.21683 -11.21646 -11.21611 -11.21581 -11.21469
 Alpha  occ. eigenvalues --  -11.21409 -11.21399 -11.21314 -11.21143 -11.21106
 Alpha  occ. eigenvalues --  -11.21090 -11.21048  -1.08506  -1.08417  -1.03596
 Alpha  occ. eigenvalues --   -1.03523  -0.96043  -0.95971  -0.87054  -0.86990
 Alpha  occ. eigenvalues --   -0.79682  -0.79572  -0.78364  -0.78188  -0.65281
 Alpha  occ. eigenvalues --   -0.64938  -0.60993  -0.60921  -0.59414  -0.59337
 Alpha  occ. eigenvalues --   -0.57692  -0.57548  -0.55353  -0.55237  -0.52734
 Alpha  occ. eigenvalues --   -0.52666  -0.52465  -0.52396  -0.50025  -0.49880
 Alpha  occ. eigenvalues --   -0.48012  -0.47894  -0.46796  -0.46579  -0.46049
 Alpha  occ. eigenvalues --   -0.45797  -0.45744  -0.45375  -0.43844  -0.43777
 Alpha virt. eigenvalues --    0.19835   0.23223   0.23870   0.24067   0.25990
 Alpha virt. eigenvalues --    0.26663   0.26796   0.27708   0.28351   0.29695
 Alpha virt. eigenvalues --    0.29995   0.31510   0.31671   0.31906   0.32191

 Mulliken charges:
               1
     1  C   -0.298334
     2  C   -0.299714
     3  C   -0.475756
     4  H    0.149136
     5  H    0.149736
     6  H    0.152029
     7  H    0.152142
     8  H    0.155297
     9  H    0.155159
    10  H    0.160454
    11  C   -0.297699
    12  C   -0.305804
    13  C   -0.477352
    14  H    0.149618
    15  H    0.150030
    16  H    0.156220
    17  H    0.151990
    18  H    0.155803
    19  H    0.155577
    20  H    0.161855
    21  C   -0.298084
    22  C   -0.301819
    23  C   -0.475638
    24  H    0.149919
    25  H    0.148515
    26  H    0.152247
    27  H    0.153607
    28  H    0.154744
    29  H    0.155361
    30  H    0.160295
    31  C   -0.306990
    32  C   -0.299145
    33  C   -0.476005
    34  H    0.149441
    35  H    0.158814
    36  H    0.151839
    37  H    0.151717
    38  H    0.155672
    39  H    0.154984
    40  H    0.160139
 Sum of Mulliken charges =  -0.00000

 Dipole moment (field-independent basis, Debye):
    X=              0.0235    Y=             -0.0005    Z=              0.0249  Tot=              0.0342
 Quadrupole moment (field-independent basis, Debye-Ang):
   XX=            -83.6906   YY=            -85.5196   ZZ=            -85.4888
   XY=              0.0120   XZ=              0.6783   YZ=              0.2574

 Normal termination of Gaussian 16 at Wed May  5 21:26:20 2021.
