 Gaussian 16, Revision A.03,
 Gaussian 16:  EM64L-G16RevA.03 25-Dec-2016

 -------------
 #p 6-31g* mp2
 -------------

 ------------------------------------------------------
 Input file generated by CHIRIPA (05-May-2021 14:55:21)
 ------------------------------------------------------
 Symbolic Z-matrix:
 Charge =  0 Multiplicity = 1

                         Standard orientation:
 ---------------------------------------------------------------------
 Center     Atomic      Atomic             Coordinates (Angstroms)
 Number     Number       Type             X           Y           Z
 ---------------------------------------------------------------------
      1          6           0       -5.409780    0.216624    0.521312
      2          6           0       -5.043017   -1.027630   -0.001982
      3          6           0       -3.709002   -1.298561   -0.320652
      4          6           0       -2.763487   -0.297766   -0.102246
      5          6           0       -3.097603    0.951765    0.417684
      6          6           0       -4.437617    1.200616    0.729109
      7          1           0       -6.448404    0.418513    0.766049
      8          1           0       -5.795877   -1.793700   -0.164412
      9          1           0       -3.397449   -2.253129   -0.727040
     10          1           0       -2.324626    1.695521    0.568520
     11          1           0       -4.719555    2.167831    1.135374
     12          7           0       -1.348050   -0.572901   -0.435773
     13          8           0       -0.534036    0.325602   -0.234001
     14          8           0       -1.079446   -1.681844   -0.892647
     15          6           0        4.369261   -0.124739    0.374140
     16          6           0        4.210022   -1.601852    0.012530
     17          6           0        5.284536   -2.485065    0.647470
     18          1           0        5.363211    0.218882    0.056442
     19          1           0        4.335630   -0.016303    1.467074
     20          1           0        4.242556   -1.707304   -1.079458
     21          1           0        3.216261   -1.941947    0.330954
     22          1           0        5.249777   -2.409479    1.739111
     23          1           0        6.281903   -2.173503    0.320685
     24          1           0        5.151716   -3.536935    0.375830
     25          6           0        3.302465    0.770935   -0.253111
     26          6           0        3.461705    2.248050    0.108500
     27          6           0        2.387191    3.131262   -0.526440
     28          1           0        3.336096    0.662500   -1.346045
     29          1           0        2.308515    0.427314    0.064589
     30          1           0        4.455464    2.588143   -0.209924
     31          1           0        3.429170    2.353501    1.200488
     32          1           0        1.389824    2.819699   -0.199655
     33          1           0        2.421949    3.055675   -1.618081
     34          1           0        2.520010    4.183132   -0.254801
 ---------------------------------------------------------------------

 SCF Done:  E(RHF) =  -669.536334390     A.U. after   15 cycles
 E2 =    -0.2091467477D+01 EUMP2 =    -0.67162780186749D+03

 The electronic state is 1-A.
 Alpha  occ. eigenvalues --  -20.61055 -20.61045 -15.86078 -11.31359 -11.27917
 Alpha  occ. eigenvalues --  -11.27912 -11.27646 -11.26914 -11.26904 -11.20366
 Alpha  occ. eigenvalues --  -11.20355 -11.20114 -11.20103 -11.19866 -11.19676
 Alpha  occ. eigenvalues --   -1.60106  -1.39664  -1.19522  -1.08934  -1.07087
 Alpha  occ. eigenvalues --   -1.04912  -1.02315  -0.95782  -0.94764  -0.86315
 Alpha  occ. eigenvalues --   -0.85788  -0.82620  -0.78376  -0.77677  -0.76844
 Alpha  occ. eigenvalues --   -0.72298  -0.71415  -0.70631  -0.65180  -0.64915
 Alpha  occ. eigenvalues --   -0.63719  -0.62260  -0.59723  -0.58136  -0.56369
 Alpha  occ. eigenvalues --   -0.55418  -0.54056  -0.53246  -0.53004  -0.51527
 Alpha  occ. eigenvalues --   -0.51190  -0.49125  -0.49053  -0.48654  -0.46687
 Alpha  occ. eigenvalues --   -0.45398  -0.45089  -0.44423  -0.44196  -0.42527
 Alpha  occ. eigenvalues --   -0.37499  -0.36511
 Alpha virt. eigenvalues --    0.04848   0.11144   0.16352   0.21196   0.24141
 Alpha virt. eigenvalues --    0.25311   0.27081   0.27602   0.28185   0.29047
 Alpha virt. eigenvalues --    0.29230   0.30762   0.31869   0.32718   0.32918

 Mulliken charges:
               1
     1  C   -0.170456
     2  C   -0.218598
     3  C   -0.170448
     4  C    0.157326
     5  C   -0.170556
     6  C   -0.218537
     7  H    0.226255
     8  H    0.224044
     9  H    0.276009
    10  H    0.275607
    11  H    0.224155
    12  N    0.493061
    13  O   -0.464160
    14  O   -0.458143
    15  C   -0.297463
    16  C   -0.299400
    17  C   -0.475008
    18  H    0.143731
    19  H    0.144887
    20  H    0.151529
    21  H    0.159401
    22  H    0.152275
    23  H    0.151947
    24  H    0.157887
    25  C   -0.308687
    26  C   -0.297687
    27  C   -0.477603
    28  H    0.146707
    29  H    0.179362
    30  H    0.145830
    31  H    0.146720
    32  H    0.165595
    33  H    0.153273
    34  H    0.151146
 Sum of Mulliken charges =  -0.00000

 Dipole moment (field-independent basis, Debye):
    X=             -5.4532    Y=              0.8297    Z=              1.1325  Tot=              5.6310
 Quadrupole moment (field-independent basis, Debye-Ang):
   XX=            -69.2771   YY=            -92.6063   ZZ=            -94.9657
   XY=              0.3882   XZ=             -3.3785   YZ=              1.5068

 Normal termination of Gaussian 16 at Wed May  5 22:13:06 2021.
