 Gaussian 16, Revision A.03,
 Gaussian 16:  EM64L-G16RevA.03 25-Dec-2016

 -------------
 #p 6-31g* mp2
 -------------

 ------------------------------------------------------
 Input file generated by CHIRIPA (05-May-2021 14:57:26)
 ------------------------------------------------------
 Symbolic Z-matrix:
 Charge =  0 Multiplicity = 1

                         Standard orientation:
 ---------------------------------------------------------------------
 Center     Atomic      Atomic             Coordinates (Angstroms)
 Number     Number       Type             X           Y           Z
 ---------------------------------------------------------------------
      1          6           0       -2.022773    2.026969   -1.287140
      2          6           0       -3.055374    2.141686   -0.350605
      3          6           0       -3.546662    1.009863    0.306782
      4          6           0       -2.979655   -0.226631    0.002027
      5          6           0       -1.949941   -0.373382   -0.926113
      6          6           0       -1.474320    0.772014   -1.571404
      7          1           0       -1.647214    2.911469   -1.793116
      8          1           0       -3.483213    3.115020   -0.127851
      9          1           0       -4.345266    1.070034    1.036186
     10          1           0       -1.543497   -1.357148   -1.127178
     11          1           0       -0.672305    0.679921   -2.298271
     12          7           0       -3.491467   -1.432026    0.691571
     13          8           0       -2.975008   -2.509983    0.405361
     14          8           0       -4.399393   -1.276034    1.505188
     15          6           0        2.457245    2.311597    1.090936
     16          6           0        1.962865    1.986950   -0.176626
     17          6           0        2.199483    0.724685   -0.729119
     18          6           0        2.937652   -0.192806    0.016941
     19          6           0        3.443517    0.100723    1.282340
     20          6           0        3.194693    1.369109    1.815097
     21          1           0        2.268695    3.294533    1.512461
     22          1           0        1.389837    2.716907   -0.741291
     23          1           0        1.828489    0.446949   -1.708223
     24          1           0        4.011397   -0.647920    1.821286
     25          1           0        3.579865    1.618468    2.799733
     26          7           0        3.194609   -1.532349   -0.557513
     27          8           0        3.847760   -2.322942    0.119978
     28          8           0        2.737996   -1.766324   -1.674381
 ---------------------------------------------------------------------

 SCF Done:  E(RHF) =  -868.336262080     A.U. after   16 cycles
 E2 =    -0.2601422852D+01 EUMP2 =    -0.87093768493130D+03

 The electronic state is 1-A.
 Alpha  occ. eigenvalues --  -20.61179 -20.61143 -20.60900 -20.60880 -15.86220
 Alpha  occ. eigenvalues --  -15.85951 -11.31648 -11.31474 -11.28322 -11.28156
 Alpha  occ. eigenvalues --  -11.28077 -11.28020 -11.27953 -11.27947 -11.27325
 Alpha  occ. eigenvalues --  -11.27190 -11.27187 -11.27160  -1.60233  -1.59966
 Alpha  occ. eigenvalues --   -1.39789  -1.39513  -1.19823  -1.19680  -1.09199
 Alpha  occ. eigenvalues --   -1.09076  -1.05272  -1.05084  -0.96030  -0.95871
 Alpha  occ. eigenvalues --   -0.86649  -0.86519  -0.82875  -0.82692  -0.77949
 Alpha  occ. eigenvalues --   -0.77668  -0.72438  -0.72167  -0.71554  -0.71292
 Alpha  occ. eigenvalues --   -0.70955  -0.70828  -0.65503  -0.65379  -0.65276
 Alpha  occ. eigenvalues --   -0.65114  -0.62739  -0.62305  -0.55739  -0.55681
 Alpha  occ. eigenvalues --   -0.53700  -0.53453  -0.53265  -0.53118  -0.49204
 Alpha  occ. eigenvalues --   -0.49184  -0.48944  -0.48908  -0.45182  -0.44883
 Alpha  occ. eigenvalues --   -0.37867  -0.37725  -0.37077  -0.36331
 Alpha virt. eigenvalues --    0.04585   0.04850   0.10775   0.10893   0.16101
 Alpha virt. eigenvalues --    0.16273   0.18738   0.22142   0.24843   0.25877
 Alpha virt. eigenvalues --    0.28168   0.29176   0.30196   0.31279   0.32575

 Mulliken charges:
               1
     1  C   -0.174672
     2  C   -0.218663
     3  C   -0.170480
     4  C    0.159044
     5  C   -0.170413
     6  C   -0.218752
     7  H    0.220411
     8  H    0.222889
     9  H    0.276492
    10  H    0.283722
    11  H    0.220751
    12  N    0.487675
    13  O   -0.455998
    14  O   -0.460740
    15  C   -0.170777
    16  C   -0.212343
    17  C   -0.171734
    18  C    0.159753
    19  C   -0.169503
    20  C   -0.217643
    21  H    0.225807
    22  H    0.215265
    23  H    0.267502
    24  H    0.278121
    25  H    0.225754
    26  N    0.488462
    27  O   -0.455851
    28  O   -0.464079
 Sum of Mulliken charges =  -0.00000

 Dipole moment (field-independent basis, Debye):
    X=              0.9239    Y=              8.7581    Z=             -0.1842  Tot=              8.8086
 Quadrupole moment (field-independent basis, Debye-Ang):
   XX=           -117.8988   YY=           -107.7412   ZZ=           -101.0165
   XY=             -1.7727   XZ=             14.1723   YZ=              0.9753

 Normal termination of Gaussian 16 at Thu May  6 05:12:39 2021.
