 Gaussian 16, Revision A.03,
 Gaussian 16:  EM64L-G16RevA.03 25-Dec-2016

 -------------
 #p 6-31g* mp2
 -------------

 ------------------------------------------------------
 Input file generated by CHIRIPA (05-May-2021 14:51:14)
 ------------------------------------------------------
 Symbolic Z-matrix:
 Charge =  0 Multiplicity = 1

                         Standard orientation:
 ---------------------------------------------------------------------
 Center     Atomic      Atomic             Coordinates (Angstroms)
 Number     Number       Type             X           Y           Z
 ---------------------------------------------------------------------
      1          6           0        3.449326    0.473406   -0.035473
      2          6           0        3.403796   -1.050704    0.078542
      3          6           0        4.791909   -1.689366    0.023361
      4          1           0        3.944495    0.749719   -0.976432
      5          1           0        4.071849    0.876356    0.775386
      6          1           0        2.780414   -1.450563   -0.731473
      7          1           0        2.908507   -1.323422    1.019249
      8          1           0        5.419401   -1.318379    0.840199
      9          1           0        5.290581   -1.446242   -0.920471
     10          1           0        4.735986   -2.779230    0.106601
     11          6           0        2.069310    1.126412    0.018074
     12          6           0        2.114840    2.650523   -0.095941
     13          6           0        0.726727    3.289185   -0.040760
     14          1           0        1.446787    0.723463   -0.792785
     15          1           0        1.574141    0.850099    0.959033
     16          1           0        2.610130    2.923241   -1.036648
     17          1           0        2.738222    3.050382    0.714074
     18          1           0        0.228055    3.046061    0.903071
     19          1           0        0.099235    2.918197   -0.857598
     20          1           0        0.782650    4.379049   -0.124000
     21          6           0       -2.273054   -1.294345   -0.311475
     22          6           0       -0.963726   -1.445344    0.463666
     23          6           0       -0.001265   -2.437861   -0.189308
     24          1           0       -2.757829   -2.276689   -0.394769
     25          1           0       -2.048670   -0.968590   -1.336624
     26          1           0       -1.190600   -1.769384    1.487456
     27          1           0       -0.482106   -0.462494    0.545290
     28          1           0        0.254094   -2.116056   -1.204115
     29          1           0       -0.458426   -3.430371   -0.256597
     30          1           0        0.928141   -2.530408    0.381217
     31          6           0       -3.245582   -0.305474    0.328874
     32          6           0       -4.554911   -0.154474   -0.446267
     33          6           0       -5.517371    0.838042    0.206707
     34          1           0       -3.469966   -0.631229    1.354024
     35          1           0       -2.760807    0.676872    0.412168
     36          1           0       -5.036530   -1.137325   -0.527890
     37          1           0       -4.328036    0.169565   -1.470055
     38          1           0       -5.060210    1.830552    0.273997
     39          1           0       -5.772730    0.516237    1.221515
     40          1           0       -6.446777    0.930590   -0.363818
 ---------------------------------------------------------------------

 SCF Done:  E(RHF) =  -470.731022254     A.U. after   11 cycles
 E2 =    -0.1585241572D+01 EUMP2 =    -0.47231626382553D+03

 The electronic state is 1-A.
 Alpha  occ. eigenvalues --  -11.21662 -11.21549 -11.21542 -11.21443 -11.21409
 Alpha  occ. eigenvalues --  -11.21377 -11.21322 -11.21259 -11.21156 -11.21059
 Alpha  occ. eigenvalues --  -11.21027 -11.20861  -1.08499  -1.08320  -1.03581
 Alpha  occ. eigenvalues --   -1.03424  -0.96022  -0.95894  -0.87085  -0.86875
 Alpha  occ. eigenvalues --   -0.79782  -0.79376  -0.78382  -0.78106  -0.65126
 Alpha  occ. eigenvalues --   -0.64960  -0.60997  -0.60820  -0.59578  -0.59132
 Alpha  occ. eigenvalues --   -0.57651  -0.57495  -0.55309  -0.55197  -0.52813
 Alpha  occ. eigenvalues --   -0.52616  -0.52426  -0.52255  -0.49979  -0.49850
 Alpha  occ. eigenvalues --   -0.48171  -0.47617  -0.46696  -0.46531  -0.46008
 Alpha  occ. eigenvalues --   -0.45757  -0.45611  -0.45266  -0.43832  -0.43599
 Alpha virt. eigenvalues --    0.21175   0.23015   0.23774   0.24182   0.25094
 Alpha virt. eigenvalues --    0.26308   0.27091   0.27693   0.28542   0.29846
 Alpha virt. eigenvalues --    0.30501   0.31310   0.31436   0.31787   0.32222

 Mulliken charges:
               1
     1  C   -0.297384
     2  C   -0.304799
     3  C   -0.475471
     4  H    0.149418
     5  H    0.149204
     6  H    0.159333
     7  H    0.151746
     8  H    0.154808
     9  H    0.155046
    10  H    0.160223
    11  C   -0.302936
    12  C   -0.299054
    13  C   -0.476874
    14  H    0.151396
    15  H    0.152717
    16  H    0.152069
    17  H    0.152236
    18  H    0.155417
    19  H    0.154691
    20  H    0.161026
    21  C   -0.297514
    22  C   -0.307590
    23  C   -0.479284
    24  H    0.149208
    25  H    0.148340
    26  H    0.150199
    27  H    0.160825
    28  H    0.152280
    29  H    0.153466
    30  H    0.168028
    31  C   -0.298703
    32  C   -0.299464
    33  C   -0.475720
    34  H    0.149163
    35  H    0.150168
    36  H    0.151786
    37  H    0.151630
    38  H    0.155336
    39  H    0.155012
    40  H    0.160020
 Sum of Mulliken charges =  -0.00000

 Dipole moment (field-independent basis, Debye):
    X=              0.0772    Y=              0.0320    Z=              0.0063  Tot=              0.0838
 Quadrupole moment (field-independent basis, Debye-Ang):
   XX=            -86.3137   YY=            -85.1158   ZZ=            -83.5771
   XY=              1.3480   XZ=              0.1163   YZ=             -0.6066

 Normal termination of Gaussian 16 at Wed May  5 16:55:11 2021.
