 Gaussian 16, Revision A.03,
 Gaussian 16:  EM64L-G16RevA.03 25-Dec-2016

 -------------
 #p 6-31g* mp2
 -------------

 ------------------------------------------------------
 Input file generated by CHIRIPA (05-May-2021 14:53:18)
 ------------------------------------------------------
 Symbolic Z-matrix:
 Charge =  0 Multiplicity = 1

                         Standard orientation:
 ---------------------------------------------------------------------
 Center     Atomic      Atomic             Coordinates (Angstroms)
 Number     Number       Type             X           Y           Z
 ---------------------------------------------------------------------
      1          6           0       -2.108862    0.717319   -0.841655
      2          6           0       -2.284122    2.229940   -0.702929
      3          6           0       -1.323088    3.020349   -1.591446
      4          1           0       -1.072845    0.450228   -0.592101
      5          1           0       -2.260768    0.432415   -1.891964
      6          1           0       -2.133294    2.511725    0.347054
      7          1           0       -3.319892    2.493438   -0.952658
      8          1           0       -1.477252    2.768039   -2.645568
      9          1           0       -0.283912    2.786430   -1.338472
     10          1           0       -1.465590    4.099398   -1.476528
     11          6           0       -3.062608   -0.086473    0.040397
     12          6           0       -2.887348   -1.599094   -0.098328
     13          6           0       -3.848382   -2.389503    0.790188
     14          1           0       -2.910702    0.198431    1.090706
     15          1           0       -4.098625    0.180618   -0.209157
     16          1           0       -1.851578   -1.862592    0.151400
     17          1           0       -3.038176   -1.880879   -1.148312
     18          1           0       -4.887558   -2.155584    0.537215
     19          1           0       -3.694217   -2.137193    1.844311
     20          1           0       -3.705880   -3.468552    0.675270
     21          6           0        1.258879    1.223701    2.216984
     22          6           0        0.583217    0.030574    1.940492
     23          6           0        0.996212   -0.791782    0.888012
     24          6           0        2.093698   -0.388551    0.128920
     25          6           0        2.787501    0.794295    0.379525
     26          6           0        2.356929    1.601089    1.436994
     27          1           0        0.931227    1.856482    3.036514
     28          1           0       -0.269865   -0.265028    2.544575
     29          1           0        0.491335   -1.720665    0.652014
     30          1           0        3.634512    1.062428   -0.240229
     31          1           0        2.883565    2.527141    1.649421
     32          7           0        2.540222   -1.250904   -0.987934
     33          8           0        3.509964   -0.873252   -1.641857
     34          8           0        1.912011   -2.288141   -1.188251
 ---------------------------------------------------------------------

 SCF Done:  E(RHF) =  -669.534388868     A.U. after   15 cycles
 E2 =    -0.2094965322D+01 EUMP2 =    -0.67162935418987D+03

 The electronic state is 1-A.
 Alpha  occ. eigenvalues --  -20.60838 -20.60832 -15.85894 -11.31309 -11.27891
 Alpha  occ. eigenvalues --  -11.27862 -11.27636 -11.26911 -11.26897 -11.22001
 Alpha  occ. eigenvalues --  -11.21805 -11.21750 -11.21455 -11.21420 -11.21208
 Alpha  occ. eigenvalues --   -1.59913  -1.39464  -1.19505  -1.08877  -1.08704
 Alpha  occ. eigenvalues --   -1.04914  -1.03809  -0.96242  -0.95704  -0.87259
 Alpha  occ. eigenvalues --   -0.86299  -0.82534  -0.79882  -0.78514  -0.77570
 Alpha  occ. eigenvalues --   -0.72111  -0.71239  -0.70605  -0.65431  -0.65116
 Alpha  occ. eigenvalues --   -0.64902  -0.62281  -0.61185  -0.59606  -0.57853
 Alpha  occ. eigenvalues --   -0.55573  -0.55395  -0.53278  -0.53033  -0.52913
 Alpha  occ. eigenvalues --   -0.52633  -0.50191  -0.48875  -0.48864  -0.48180
 Alpha  occ. eigenvalues --   -0.46929  -0.46026  -0.45953  -0.44851  -0.44043
 Alpha  occ. eigenvalues --   -0.37470  -0.36410
 Alpha virt. eigenvalues --    0.04933   0.11040   0.16351   0.19659   0.23070
 Alpha virt. eigenvalues --    0.23712   0.25587   0.25923   0.27655   0.28434
 Alpha virt. eigenvalues --    0.28971   0.30180   0.31342   0.31557   0.32220

 Mulliken charges:
               1
     1  C   -0.305424
     2  C   -0.297651
     3  C   -0.476785
     4  H    0.158389
     5  H    0.152635
     6  H    0.145976
     7  H    0.151918
     8  H    0.157965
     9  H    0.155823
    10  H    0.158474
    11  C   -0.298107
    12  C   -0.302508
    13  C   -0.475392
    14  H    0.140522
    15  H    0.151924
    16  H    0.145303
    17  H    0.159596
    18  H    0.157697
    19  H    0.149498
    20  H    0.163662
    21  C   -0.171081
    22  C   -0.216892
    23  C   -0.180881
    24  C    0.162580
    25  C   -0.171326
    26  C   -0.218383
    27  H    0.226483
    28  H    0.225278
    29  H    0.281777
    30  H    0.276429
    31  H    0.224452
    32  N    0.487972
    33  O   -0.460047
    34  O   -0.459877
 Sum of Mulliken charges =  -0.00000

 Dipole moment (field-independent basis, Debye):
    X=             -1.5075    Y=              2.9937    Z=              3.8475  Tot=              5.1028
 Quadrupole moment (field-independent basis, Debye-Ang):
   XX=            -98.8119   YY=            -95.9926   ZZ=            -93.8816
   XY=              9.6263   XZ=              8.4620   YZ=             -1.2997

 Normal termination of Gaussian 16 at Thu May  6 19:00:18 2021.
