 Gaussian 16, Revision A.03,
 Gaussian 16:  EM64L-G16RevA.03 25-Dec-2016

 -------------
 #p 6-31g* mp2
 -------------

 ------------------------------------------------------
 Input file generated by CHIRIPA (05-May-2021 14:53:13)
 ------------------------------------------------------
 Symbolic Z-matrix:
 Charge =  0 Multiplicity = 1

                         Standard orientation:
 ---------------------------------------------------------------------
 Center     Atomic      Atomic             Coordinates (Angstroms)
 Number     Number       Type             X           Y           Z
 ---------------------------------------------------------------------
      1          6           0       -3.431222    0.052334   -0.336438
      2          6           0       -4.722440   -0.657864    0.071434
      3          6           0       -5.013306   -1.892274   -0.782629
      4          1           0       -3.498707    0.343704   -1.393554
      5          1           0       -2.592706   -0.653640   -0.259716
      6          1           0       -5.558066    0.049630   -0.004709
      7          1           0       -4.651950   -0.947407    1.127754
      8          1           0       -4.199051   -2.619297   -0.698811
      9          1           0       -5.110315   -1.616595   -1.837708
     10          1           0       -5.940788   -2.384569   -0.473948
     11          6           0       -3.126840    1.288322    0.508200
     12          6           0       -1.835622    1.998520    0.100328
     13          6           0       -1.544756    3.232930    0.954391
     14          1           0       -3.965356    1.994296    0.431478
     15          1           0       -3.059355    0.996953    1.565316
     16          1           0       -1.906112    2.288063   -0.955992
     17          1           0       -0.999996    1.291026    0.176471
     18          1           0       -1.447748    2.957252    2.009470
     19          1           0       -2.359012    3.959954    0.870573
     20          1           0       -0.617275    3.725225    0.645710
     21          6           0        0.746114   -2.184821    0.489748
     22          6           0        1.958504   -2.213094    1.186766
     23          6           0        2.971539   -1.297535    0.886665
     24          6           0        2.737271   -0.363103   -0.120928
     25          6           0        1.540168   -0.309573   -0.833225
     26          6           0        0.541177   -1.234825   -0.516250
     27          1           0       -0.035380   -2.899814    0.729426
     28          1           0        2.120443   -2.949757    1.968525
     29          1           0        3.919686   -1.297046    1.410531
     30          1           0        1.408057    0.436533   -1.607364
     31          1           0       -0.399379   -1.210522   -1.059213
     32          7           0        3.802292    0.611290   -0.447563
     33          8           0        3.571150    1.424594   -1.339610
     34          8           0        4.848031    0.543264    0.194651
 ---------------------------------------------------------------------

 SCF Done:  E(RHF) =  -669.535135103     A.U. after   15 cycles
 E2 =    -0.2092957241D+01 EUMP2 =    -0.67162809234435D+03

 The electronic state is 1-A.
 Alpha  occ. eigenvalues --  -20.60792 -20.60787 -15.85846 -11.31230 -11.27801
 Alpha  occ. eigenvalues --  -11.27790 -11.27546 -11.26822 -11.26775 -11.22323
 Alpha  occ. eigenvalues --  -11.22220 -11.21976 -11.21906 -11.21820 -11.21268
 Alpha  occ. eigenvalues --   -1.59867  -1.39420  -1.19411  -1.09070  -1.08797
 Alpha  occ. eigenvalues --   -1.04815  -1.04070  -0.96531  -0.95630  -0.87540
 Alpha  occ. eigenvalues --   -0.86209  -0.82464  -0.80163  -0.78921  -0.77488
 Alpha  occ. eigenvalues --   -0.72064  -0.71190  -0.70510  -0.65764  -0.65059
 Alpha  occ. eigenvalues --   -0.64768  -0.62153  -0.61468  -0.59905  -0.58141
 Alpha  occ. eigenvalues --   -0.55836  -0.55308  -0.53243  -0.53117  -0.53001
 Alpha  occ. eigenvalues --   -0.52834  -0.50472  -0.48831  -0.48817  -0.48467
 Alpha  occ. eigenvalues --   -0.47210  -0.46403  -0.46326  -0.44820  -0.44347
 Alpha  occ. eigenvalues --   -0.37387  -0.36348
 Alpha virt. eigenvalues --    0.05003   0.11131   0.16393   0.20179   0.22752
 Alpha virt. eigenvalues --    0.23719   0.25330   0.26213   0.27308   0.28034
 Alpha virt. eigenvalues --    0.29562   0.30824   0.30976   0.31264   0.31830

 Mulliken charges:
               1
     1  C   -0.301934
     2  C   -0.299724
     3  C   -0.475289
     4  H    0.150605
     5  H    0.140305
     6  H    0.155826
     7  H    0.152487
     8  H    0.149036
     9  H    0.156944
    10  H    0.163398
    11  C   -0.297170
    12  C   -0.308474
    13  C   -0.476139
    14  H    0.152302
    15  H    0.150494
    16  H    0.150548
    17  H    0.155579
    18  H    0.155606
    19  H    0.155698
    20  H    0.165637
    21  C   -0.173370
    22  C   -0.218443
    23  C   -0.170997
    24  C    0.158426
    25  C   -0.171256
    26  C   -0.220880
    27  H    0.225463
    28  H    0.223648
    29  H    0.275841
    30  H    0.277111
    31  H    0.231099
    32  N    0.488081
    33  O   -0.460147
    34  O   -0.460313
 Sum of Mulliken charges =  -0.00000

 Dipole moment (field-independent basis, Debye):
    X=             -3.7928    Y=             -3.3616    Z=              1.1835  Tot=              5.2045
 Quadrupole moment (field-independent basis, Debye-Ang):
   XX=           -113.4059   YY=            -92.3542   ZZ=            -92.7999
   XY=            -10.1859   XZ=              6.1207   YZ=             -2.5263

 Normal termination of Gaussian 16 at Wed May  5 23:23:50 2021.
