 Gaussian 16, Revision A.03,
 Gaussian 16:  EM64L-G16RevA.03 25-Dec-2016

 -------------
 #p 6-31g* mp2
 -------------

 ------------------------------------------------------
 Input file generated by CHIRIPA (05-May-2021 14:57:24)
 ------------------------------------------------------
 Symbolic Z-matrix:
 Charge =  0 Multiplicity = 1

                         Standard orientation:
 ---------------------------------------------------------------------
 Center     Atomic      Atomic             Coordinates (Angstroms)
 Number     Number       Type             X           Y           Z
 ---------------------------------------------------------------------
      1          6           0       -4.177532    1.564505   -0.617745
      2          6           0       -2.879549    1.519435   -1.137100
      3          6           0       -1.998869    0.501239   -0.759970
      4          6           0       -2.451334   -0.459928    0.142652
      5          6           0       -3.738513   -0.442167    0.677578
      6          6           0       -4.602123    0.585286    0.286342
      7          1           0       -4.855035    2.359060   -0.916188
      8          1           0       -2.547084    2.278572   -1.839398
      9          1           0       -0.988690    0.442397   -1.146613
     10          1           0       -4.041244   -1.212999    1.375855
     11          1           0       -5.609595    0.617778    0.691297
     12          7           0       -1.528034   -1.542747    0.549369
     13          8           0       -1.950874   -2.377643    1.346107
     14          8           0       -0.398993   -1.536060    0.063716
     15          6           0        2.517223    2.509075    1.106004
     16          6           0        2.073325    2.400273   -0.215978
     17          6           0        2.116497    1.171034   -0.880549
     18          6           0        2.611847    0.066109   -0.189855
     19          6           0        3.061441    0.142496    1.127461
     20          6           0        3.008998    1.381827    1.772330
     21          1           0        2.480085    3.467897    1.614607
     22          1           0        1.690908    3.274028   -0.735936
     23          1           0        1.779311    1.058553   -1.903815
     24          1           0        3.437406   -0.746225    1.619644
     25          1           0        3.354412    1.463362    2.799017
     26          7           0        2.662458   -1.240573   -0.882977
     27          8           0        3.103292   -2.199055   -0.252409
     28          8           0        2.260337   -1.281528   -2.043692
 ---------------------------------------------------------------------

 SCF Done:  E(RHF) =  -868.336925136     A.U. after   16 cycles
 E2 =    -0.2602903816D+01 EUMP2 =    -0.87093982895252D+03

 The electronic state is 1-A.
 Alpha  occ. eigenvalues --  -20.60707 -20.60696 -20.59785 -20.59735 -15.85766
 Alpha  occ. eigenvalues --  -15.84834 -11.31200 -11.30604 -11.27788 -11.27784
 Alpha  occ. eigenvalues --  -11.27571 -11.27303 -11.27129 -11.27054 -11.26853
 Alpha  occ. eigenvalues --  -11.26816 -11.26462 -11.26312  -1.59765  -1.58785
 Alpha  occ. eigenvalues --   -1.39322  -1.38354  -1.19391  -1.18809  -1.08774
 Alpha  occ. eigenvalues --   -1.08121  -1.04815  -1.04314  -0.95598  -0.94907
 Alpha  occ. eigenvalues --   -0.86209  -0.85681  -0.82453  -0.81770  -0.77490
 Alpha  occ. eigenvalues --   -0.76733  -0.72146  -0.71098  -0.71081  -0.70529
 Alpha  occ. eigenvalues --   -0.69950  -0.69851  -0.65045  -0.64835  -0.64482
 Alpha  occ. eigenvalues --   -0.64343  -0.62183  -0.61657  -0.55322  -0.54802
 Alpha  occ. eigenvalues --   -0.53132  -0.52968  -0.52529  -0.52420  -0.48740
 Alpha  occ. eigenvalues --   -0.48727  -0.47858  -0.47800  -0.44722  -0.43671
 Alpha  occ. eigenvalues --   -0.37387  -0.36738  -0.36443  -0.35911
 Alpha virt. eigenvalues --    0.05071   0.05872   0.11226   0.11625   0.16525
 Alpha virt. eigenvalues --    0.17300   0.20871   0.21966   0.26237   0.27711
 Alpha virt. eigenvalues --    0.28106   0.29217   0.30268   0.31431   0.32145

 Mulliken charges:
               1
     1  C   -0.170693
     2  C   -0.220443
     3  C   -0.169613
     4  C    0.156656
     5  C   -0.170250
     6  C   -0.219036
     7  H    0.224850
     8  H    0.219932
     9  H    0.277773
    10  H    0.276111
    11  H    0.223359
    12  N    0.493732
    13  O   -0.458589
    14  O   -0.465069
    15  C   -0.172797
    16  C   -0.219534
    17  C   -0.180824
    18  C    0.176131
    19  C   -0.168163
    20  C   -0.218230
    21  H    0.222107
    22  H    0.216416
    23  H    0.268394
    24  H    0.278127
    25  H    0.222314
    26  N    0.499063
    27  O   -0.455843
    28  O   -0.465879
 Sum of Mulliken charges =  -0.00000

 Dipole moment (field-independent basis, Debye):
    X=             -3.4093    Y=              7.9976    Z=              1.1510  Tot=              8.7698
 Quadrupole moment (field-independent basis, Debye-Ang):
   XX=            -87.4324   YY=           -107.6122   ZZ=           -102.0864
   XY=              4.2085   XZ=              9.1873   YZ=             -2.7927

 Normal termination of Gaussian 16 at Fri May  7 09:35:12 2021.
