 Gaussian 16, Revision A.03,
 Gaussian 16:  EM64L-G16RevA.03 25-Dec-2016

 -------------
 #p 6-31g* mp2
 -------------

 ------------------------------------------------------
 Input file generated by CHIRIPA (05-May-2021 14:57:26)
 ------------------------------------------------------
 Symbolic Z-matrix:
 Charge =  0 Multiplicity = 1

                         Standard orientation:
 ---------------------------------------------------------------------
 Center     Atomic      Atomic             Coordinates (Angstroms)
 Number     Number       Type             X           Y           Z
 ---------------------------------------------------------------------
      1          6           0       -2.802766   -2.577343    0.225115
      2          6           0       -1.806033   -1.601794    0.118592
      3          6           0       -2.144856   -0.250963   -0.003887
      4          6           0       -3.496375    0.090401   -0.016412
      5          6           0       -4.512495   -0.858239    0.087855
      6          6           0       -4.150441   -2.203112    0.209434
      7          1           0       -2.530537   -3.624387    0.319910
      8          1           0       -0.758597   -1.889515    0.130483
      9          1           0       -1.393557    0.524854   -0.087998
     10          1           0       -5.548057   -0.540734    0.072982
     11          1           0       -4.926649   -2.958579    0.291989
     12          7           0       -3.867370    1.517312   -0.145598
     13          8           0       -5.065298    1.792143   -0.154083
     14          8           0       -2.953202    2.333875   -0.235923
     15          6           0        2.857725    2.591336    0.211293
     16          6           0        4.195814    2.184087    0.224978
     17          6           0        4.527473    0.831173    0.105929
     18          6           0        3.491063   -0.091755   -0.025779
     19          6           0        2.148396    0.282744   -0.042849
     20          6           0        1.840081    1.641039    0.077660
     21          1           0        2.609151    3.644402    0.304340
     22          1           0        4.988211    2.919892    0.328627
     23          1           0        5.555000    0.488318    0.113491
     24          1           0        1.380431   -0.474012   -0.147571
     25          1           0        0.800025    1.954422    0.066714
     26          7           0        3.829818   -1.526873   -0.152583
     27          8           0        2.898220   -2.320327   -0.267437
     28          8           0        5.020520   -1.831090   -0.134716
 ---------------------------------------------------------------------

 SCF Done:  E(RHF) =  -868.338193052     A.U. after   16 cycles
 E2 =    -0.2600202669D+01 EUMP2 =    -0.87093839572093D+03

 The electronic state is 1-A.
 Alpha  occ. eigenvalues --  -20.61324 -20.61290 -20.61288 -20.61255 -15.86356
 Alpha  occ. eigenvalues --  -15.86323 -11.31620 -11.31590 -11.28278 -11.28248
 Alpha  occ. eigenvalues --  -11.28106 -11.28077 -11.27777 -11.27744 -11.27128
 Alpha  occ. eigenvalues --  -11.27094 -11.27080 -11.27049  -1.60376  -1.60343
 Alpha  occ. eigenvalues --   -1.39939  -1.39905  -1.19757  -1.19722  -1.09142
 Alpha  occ. eigenvalues --   -1.09109  -1.05195  -1.05097  -0.96015  -0.95979
 Alpha  occ. eigenvalues --   -0.86576  -0.86481  -0.82892  -0.82815  -0.78069
 Alpha  occ. eigenvalues --   -0.77814  -0.72581  -0.72547  -0.71690  -0.71657
 Alpha  occ. eigenvalues --   -0.70897  -0.70768  -0.65423  -0.65388  -0.65292
 Alpha  occ. eigenvalues --   -0.64941  -0.62871  -0.62161  -0.55628  -0.55503
 Alpha  occ. eigenvalues --   -0.53464  -0.53457  -0.53424  -0.53001  -0.49356
 Alpha  occ. eigenvalues --   -0.49322  -0.49304  -0.49273  -0.45367  -0.45333
 Alpha  occ. eigenvalues --   -0.37672  -0.37640  -0.36777  -0.36692
 Alpha virt. eigenvalues --    0.04582   0.04660   0.10899   0.10972   0.16141
 Alpha virt. eigenvalues --    0.16200   0.17628   0.22469   0.24588   0.24929
 Alpha virt. eigenvalues --    0.28248   0.28706   0.30978   0.31330   0.33880

 Mulliken charges:
               1
     1  C   -0.169961
     2  C   -0.228094
     3  C   -0.175207
     4  C    0.158052
     5  C   -0.169725
     6  C   -0.218413
     7  H    0.232035
     8  H    0.235866
     9  H    0.269714
    10  H    0.276563
    11  H    0.225750
    12  N    0.488377
    13  O   -0.456990
    14  O   -0.468073
    15  C   -0.169949
    16  C   -0.218382
    17  C   -0.169659
    18  C    0.157995
    19  C   -0.175534
    20  C   -0.227701
    21  H    0.231846
    22  H    0.225834
    23  H    0.276643
    24  H    0.270593
    25  H    0.235276
    26  N    0.488419
    27  O   -0.468495
    28  O   -0.456780
 Sum of Mulliken charges =  -0.00000

 Dipole moment (field-independent basis, Debye):
    X=              0.1261    Y=              0.0252    Z=              0.9401  Tot=              0.9489
 Quadrupole moment (field-independent basis, Debye-Ang):
   XX=           -111.2541   YY=           -106.3287   ZZ=           -106.6323
   XY=             39.4477   XZ=              0.1149   YZ=             -0.0293

 Normal termination of Gaussian 16 at Thu May  6 06:46:54 2021.
