 Gaussian 16, Revision A.03,
 Gaussian 16:  EM64L-G16RevA.03 25-Dec-2016

 -------------
 #p 6-31g* mp2
 -------------

 ------------------------------------------------------
 Input file generated by CHIRIPA (05-May-2021 14:57:26)
 ------------------------------------------------------
 Symbolic Z-matrix:
 Charge =  0 Multiplicity = 1

                         Standard orientation:
 ---------------------------------------------------------------------
 Center     Atomic      Atomic             Coordinates (Angstroms)
 Number     Number       Type             X           Y           Z
 ---------------------------------------------------------------------
      1          6           0       -4.862670    1.373304   -1.439457
      2          6           0       -3.836329    1.887723   -0.640384
      3          6           0       -3.068633    1.039098    0.162751
      4          6           0       -3.355856   -0.324858    0.142329
      5          6           0       -4.371708   -0.867657   -0.642975
      6          6           0       -5.126619   -0.000323   -1.438205
      7          1           0       -5.454068    2.039803   -2.060281
      8          1           0       -3.629100    2.954072   -0.639353
      9          1           0       -2.268148    1.410635    0.790924
     10          1           0       -4.554656   -1.935152   -0.622884
     11          1           0       -5.923067   -0.402628   -2.057773
     12          7           0       -2.549899   -1.233163    0.988388
     13          8           0       -2.822891   -2.431006    0.952567
     14          8           0       -1.660458   -0.730049    1.671330
     15          6           0        2.250681    1.754501    1.526470
     16          6           0        2.043439    0.374952    1.628514
     17          6           0        2.723943   -0.509468    0.786334
     18          6           0        3.608374    0.022474   -0.150742
     19          6           0        3.836284    1.391947   -0.276791
     20          6           0        3.144866    2.257709    0.575820
     21          1           0        1.717809    2.434292    2.184747
     22          1           0        1.349602   -0.018675    2.365869
     23          1           0        2.582413   -1.581886    0.843820
     24          1           0        4.534237    1.754529   -1.021649
     25          1           0        3.307794    3.328623    0.494316
     26          7           0        4.334570   -0.903946   -1.047840
     27          8           0        5.108433   -0.410142   -1.865112
     28          8           0        4.116149   -2.106335   -0.916730
 ---------------------------------------------------------------------

 SCF Done:  E(RHF) =  -868.339303485     A.U. after   16 cycles
 E2 =    -0.2598708545D+01 EUMP2 =    -0.87093801203019D+03

 The electronic state is 1-A.
 Alpha  occ. eigenvalues --  -20.61450 -20.61395 -20.60277 -20.60260 -15.86470
 Alpha  occ. eigenvalues --  -15.85316 -11.31664 -11.30595 -11.28251 -11.28185
 Alpha  occ. eigenvalues --  -11.27917 -11.27209 -11.27186 -11.27164 -11.27016
 Alpha  occ. eigenvalues --  -11.26870 -11.26244 -11.25947  -1.60486  -1.59348
 Alpha  occ. eigenvalues --   -1.40049  -1.38903  -1.19818  -1.18742  -1.09242
 Alpha  occ. eigenvalues --   -1.08167  -1.05201  -1.04099  -0.96110  -0.95019
 Alpha  occ. eigenvalues --   -0.86606  -0.85510  -0.82956  -0.81828  -0.78023
 Alpha  occ. eigenvalues --   -0.76879  -0.72710  -0.71790  -0.71537  -0.70929
 Alpha  occ. eigenvalues --   -0.70671  -0.69876  -0.65481  -0.65205  -0.64384
 Alpha  occ. eigenvalues --   -0.64066  -0.62557  -0.61420  -0.55703  -0.54654
 Alpha  occ. eigenvalues --   -0.53531  -0.53296  -0.52477  -0.52159  -0.49469
 Alpha  occ. eigenvalues --   -0.49423  -0.48298  -0.48285  -0.45489  -0.44327
 Alpha  occ. eigenvalues --   -0.37781  -0.36794  -0.36761  -0.35691
 Alpha virt. eigenvalues --    0.04508   0.05605   0.10865   0.11933   0.16031
 Alpha virt. eigenvalues --    0.17130   0.20937   0.22115   0.26863   0.27573
 Alpha virt. eigenvalues --    0.28364   0.28885   0.30617   0.31629   0.32060

 Mulliken charges:
               1
     1  C   -0.169965
     2  C   -0.218079
     3  C   -0.169218
     4  C    0.158701
     5  C   -0.169978
     6  C   -0.218281
     7  H    0.227255
     8  H    0.223218
     9  H    0.270757
    10  H    0.277193
    11  H    0.225507
    12  N    0.491366
    13  O   -0.455644
    14  O   -0.471853
    15  C   -0.175789
    16  C   -0.218032
    17  C   -0.172956
    18  C    0.157951
    19  C   -0.173438
    20  C   -0.219073
    21  H    0.221800
    22  H    0.242236
    23  H    0.279437
    24  H    0.272663
    25  H    0.219092
    26  N    0.487891
    27  O   -0.463431
    28  O   -0.459332
 Sum of Mulliken charges =  -0.00000

 Dipole moment (field-independent basis, Debye):
    X=             -5.7571    Y=              6.2696    Z=              0.2064  Tot=              8.5143
 Quadrupole moment (field-independent basis, Debye-Ang):
   XX=           -102.9812   YY=           -101.2841   ZZ=           -106.3355
   XY=              5.9200   XZ=             22.1117   YZ=              0.3495

 Normal termination of Gaussian 16 at Wed May  5 16:31:27 2021.
