 Gaussian 16, Revision A.03,
 Gaussian 16:  EM64L-G16RevA.03 25-Dec-2016

 -------------
 #p 6-31g* mp2
 -------------

 ------------------------------------------------------
 Input file generated by CHIRIPA (05-May-2021 14:55:22)
 ------------------------------------------------------
 Symbolic Z-matrix:
 Charge =  0 Multiplicity = 1

                         Standard orientation:
 ---------------------------------------------------------------------
 Center     Atomic      Atomic             Coordinates (Angstroms)
 Number     Number       Type             X           Y           Z
 ---------------------------------------------------------------------
      1          6           0       -0.534799    0.670736    0.878689
      2          6           0       -0.686166   -0.407061    0.000076
      3          6           0       -1.957140   -0.798439   -0.431197
      4          6           0       -3.059942   -0.086520    0.038151
      5          6           0       -2.941696    0.991576    0.913946
      6          6           0       -1.661062    1.365390    1.332021
      7          1           0        0.456276    0.967947    1.208586
      8          1           0        0.186717   -0.948372   -0.353623
      9          1           0       -2.103057   -1.629076   -1.111027
     10          1           0       -3.830659    1.511866    1.249298
     11          1           0       -1.546520    2.202816    2.014402
     12          7           0       -4.410579   -0.491557   -0.411432
     13          8           0       -5.366252    0.151951    0.016613
     14          8           0       -4.487960   -1.444865   -1.183348
     15          6           0        3.173891    0.636649   -0.141185
     16          6           0        3.843796    1.898233   -0.686729
     17          6           0        2.915090    3.112798   -0.675303
     18          1           0        2.276284    0.419276   -0.736160
     19          1           0        2.830176    0.826926    0.884996
     20          1           0        4.187377    1.705191   -1.711084
     21          1           0        4.740019    2.112519   -0.090508
     22          1           0        2.581957    3.333446    0.343980
     23          1           0        2.026174    2.923804   -1.285806
     24          1           0        3.414207    4.003546   -1.069398
     25          6           0        4.089702   -0.586051   -0.146169
     26          6           0        3.419797   -1.847636    0.399375
     27          6           0        4.348504   -3.062200    0.387950
     28          1           0        4.433418   -0.776329   -1.172350
     29          1           0        4.987309   -0.368679    0.448806
     30          1           0        2.523574   -2.061922   -0.196847
     31          1           0        3.076217   -1.654594    1.423730
     32          1           0        5.237419   -2.873206    0.998451
     33          1           0        4.681636   -3.282848   -0.631334
     34          1           0        3.849386   -3.952948    0.782044
 ---------------------------------------------------------------------

 SCF Done:  E(RHF) =  -669.534809974     A.U. after   15 cycles
 E2 =    -0.2093150671D+01 EUMP2 =    -0.67162796064517D+03

 The electronic state is 1-A.
 Alpha  occ. eigenvalues --  -20.60675 -20.60670 -15.85728 -11.31061 -11.27635
 Alpha  occ. eigenvalues --  -11.27629 -11.27275 -11.26619 -11.26581 -11.22772
 Alpha  occ. eigenvalues --  -11.22767 -11.22634 -11.22482 -11.22042 -11.21931
 Alpha  occ. eigenvalues --   -1.59752  -1.39306  -1.19227  -1.09614  -1.08613
 Alpha  occ. eigenvalues --   -1.04630  -1.04583  -0.97026  -0.95461  -0.88036
 Alpha  occ. eigenvalues --   -0.86031  -0.82306  -0.80662  -0.79517  -0.77353
 Alpha  occ. eigenvalues --   -0.71946  -0.71075  -0.70312  -0.66263  -0.64871
 Alpha  occ. eigenvalues --   -0.64625  -0.62016  -0.61942  -0.60398  -0.58650
 Alpha  occ. eigenvalues --   -0.56318  -0.55134  -0.53670  -0.53427  -0.52957
 Alpha  occ. eigenvalues --   -0.52732  -0.50959  -0.48963  -0.48705  -0.48700
 Alpha  occ. eigenvalues --   -0.47700  -0.46918  -0.46884  -0.44870  -0.44720
 Alpha  occ. eigenvalues --   -0.37178  -0.36239
 Alpha virt. eigenvalues --    0.05171   0.11324   0.16648   0.19487   0.22234
 Alpha virt. eigenvalues --    0.22691   0.24260   0.25335   0.26891   0.28572
 Alpha virt. eigenvalues --    0.29556   0.30059   0.30762   0.31326   0.31716

 Mulliken charges:
               1
     1  C   -0.174846
     2  C   -0.228119
     3  C   -0.172520
     4  C    0.158300
     5  C   -0.170926
     6  C   -0.220308
     7  H    0.234338
     8  H    0.231165
     9  H    0.275233
    10  H    0.275002
    11  H    0.223029
    12  N    0.488052
    13  O   -0.460855
    14  O   -0.460900
    15  C   -0.308325
    16  C   -0.299213
    17  C   -0.478366
    18  H    0.149569
    19  H    0.144147
    20  H    0.156470
    21  H    0.155342
    22  H    0.150475
    23  H    0.158655
    24  H    0.165670
    25  C   -0.297769
    26  C   -0.304312
    27  C   -0.476028
    28  H    0.153855
    29  H    0.154051
    30  H    0.147075
    31  H    0.152335
    32  H    0.158242
    33  H    0.157868
    34  H    0.163615
 Sum of Mulliken charges =  -0.00000

 Dipole moment (field-independent basis, Debye):
    X=              5.1107    Y=              1.4312    Z=              1.5249  Tot=              5.5220
 Quadrupole moment (field-independent basis, Debye-Ang):
   XX=           -122.6902   YY=            -93.0861   ZZ=            -92.7568
   XY=             -6.0134   XZ=             -5.9065   YZ=              2.3493

 Normal termination of Gaussian 16 at Wed May  5 20:39:25 2021.
