 Gaussian 16, Revision A.03,
 Gaussian 16:  EM64L-G16RevA.03 25-Dec-2016

 -------------
 #p 6-31g* mp2
 -------------

 ------------------------------------------------------
 Input file generated by CHIRIPA (05-May-2021 14:57:26)
 ------------------------------------------------------
 Symbolic Z-matrix:
 Charge =  0 Multiplicity = 1

                         Standard orientation:
 ---------------------------------------------------------------------
 Center     Atomic      Atomic             Coordinates (Angstroms)
 Number     Number       Type             X           Y           Z
 ---------------------------------------------------------------------
      1          6           0       -3.658920    2.198376    0.490431
      2          6           0       -2.301665    2.046682    0.188162
      3          6           0       -1.794533    0.801609   -0.195450
      4          6           0       -2.676924   -0.275240   -0.266664
      5          6           0       -4.034165   -0.155957    0.028220
      6          6           0       -4.519322    1.098512    0.409637
      7          1           0       -4.044337    3.169228    0.787577
      8          1           0       -1.631139    2.899097    0.250048
      9          1           0       -0.748179    0.656066   -0.434993
     10          1           0       -4.678066   -1.024177   -0.042518
     11          1           0       -5.573845    1.213373    0.643803
     12          7           0       -2.151678   -1.598316   -0.671616
     13          8           0       -2.949760   -2.531411   -0.726718
     14          8           0       -0.951854   -1.677196   -0.926247
     15          6           0        3.296184    2.375290   -0.641820
     16          6           0        4.077085    1.287325   -1.045609
     17          6           0        3.791130   -0.001513   -0.585526
     18          6           0        2.711992   -0.166925    0.281300
     19          6           0        1.915343    0.896966    0.701746
     20          6           0        2.219702    2.176988    0.229033
     21          1           0        3.525469    3.373066   -1.004129
     22          1           0        4.913707    1.438354   -1.721849
     23          1           0        4.379250   -0.861492   -0.882119
     24          1           0        1.087803    0.715070    1.376660
     25          1           0        1.611522    3.020060    0.544299
     26          7           0        2.399522   -1.526693    0.775054
     27          8           0        1.443357   -1.645960    1.538050
     28          8           0        3.116689   -2.447465    0.389714
 ---------------------------------------------------------------------

 SCF Done:  E(RHF) =  -868.335763172     A.U. after   16 cycles
 E2 =    -0.2602971630D+01 EUMP2 =    -0.87093873480269D+03

 The electronic state is 1-A.
 Alpha  occ. eigenvalues --  -20.60435 -20.60384 -20.60301 -20.60263 -15.85473
 Alpha  occ. eigenvalues --  -15.85358 -11.31181 -11.31113 -11.27849 -11.27733
 Alpha  occ. eigenvalues --  -11.27727 -11.27705 -11.27618 -11.27554 -11.27039
 Alpha  occ. eigenvalues --  -11.26909 -11.26852 -11.26779  -1.59464  -1.59323
 Alpha  occ. eigenvalues --   -1.39019  -1.38876  -1.19400  -1.19324  -1.08689
 Alpha  occ. eigenvalues --   -1.08669  -1.04929  -1.04763  -0.95492  -0.95425
 Alpha  occ. eigenvalues --   -0.86289  -0.86138  -0.82380  -0.82243  -0.77417
 Alpha  occ. eigenvalues --   -0.77170  -0.71741  -0.71586  -0.70825  -0.70610
 Alpha  occ. eigenvalues --   -0.70537  -0.70338  -0.65063  -0.65003  -0.64974
 Alpha  occ. eigenvalues --   -0.64724  -0.62447  -0.61935  -0.55375  -0.55263
 Alpha  occ. eigenvalues --   -0.53285  -0.53103  -0.53011  -0.52704  -0.48487
 Alpha  occ. eigenvalues --   -0.48449  -0.48357  -0.48283  -0.44557  -0.43967
 Alpha  occ. eigenvalues --   -0.37363  -0.37308  -0.36556  -0.36359
 Alpha virt. eigenvalues --    0.05103   0.05416   0.10946   0.11346   0.16526
 Alpha virt. eigenvalues --    0.16748   0.19852   0.22088   0.25301   0.27968
 Alpha virt. eigenvalues --    0.28281   0.29140   0.29629   0.32058   0.32130

 Mulliken charges:
               1
     1  C   -0.170556
     2  C   -0.222514
     3  C   -0.177211
     4  C    0.161304
     5  C   -0.169331
     6  C   -0.218440
     7  H    0.224253
     8  H    0.214469
     9  H    0.280138
    10  H    0.277157
    11  H    0.223754
    12  N    0.489182
    13  O   -0.459725
    14  O   -0.456133
    15  C   -0.170934
    16  C   -0.217283
    17  C   -0.168965
    18  C    0.168362
    19  C   -0.183385
    20  C   -0.222377
    21  H    0.224611
    22  H    0.224552
    23  H    0.278519
    24  H    0.276139
    25  H    0.216319
    26  N    0.492812
    27  O   -0.456211
    28  O   -0.458505
 Sum of Mulliken charges =  -0.00000

 Dipole moment (field-independent basis, Debye):
    X=             -0.6362    Y=              8.9922    Z=             -0.3615  Tot=              9.0219
 Quadrupole moment (field-independent basis, Debye-Ang):
   XX=            -81.3010   YY=           -109.0065   ZZ=           -106.6418
   XY=              1.1783   XZ=            -10.8828   YZ=              0.8022

 Normal termination of Gaussian 16 at Wed May  5 16:30:43 2021.
