 Gaussian 16, Revision A.03,
 Gaussian 16:  EM64L-G16RevA.03 25-Dec-2016

 -------------
 #p 6-31g* mp2
 -------------

 ------------------------------------------------------
 Input file generated by CHIRIPA (05-May-2021 14:55:24)
 ------------------------------------------------------
 Symbolic Z-matrix:
 Charge =  0 Multiplicity = 1

                         Standard orientation:
 ---------------------------------------------------------------------
 Center     Atomic      Atomic             Coordinates (Angstroms)
 Number     Number       Type             X           Y           Z
 ---------------------------------------------------------------------
      1          6           0       -4.995438   -0.844832   -0.616837
      2          6           0       -4.450303    0.324792   -1.156585
      3          6           0       -3.192976    0.777463   -0.745772
      4          6           0       -2.505203    0.032533    0.210960
      5          6           0       -3.021598   -1.136652    0.767406
      6          6           0       -4.280606   -1.570541    0.341746
      7          1           0       -5.972813   -1.189182   -0.941733
      8          1           0       -5.003191    0.890412   -1.901188
      9          1           0       -2.747359    1.679541   -1.147143
     10          1           0       -2.446641   -1.679159    1.508034
     11          1           0       -4.701492   -2.479244    0.762650
     12          7           0       -1.173237    0.501814    0.653728
     13          8           0       -0.587410   -0.172479    1.497987
     14          8           0       -0.740291    1.535043    0.148128
     15          6           0        3.718188   -0.593906    0.149169
     16          6           0        4.022999   -1.701811   -0.859604
     17          6           0        4.483018   -2.998447   -0.192587
     18          1           0        4.615348   -0.399234    0.752620
     19          1           0        2.943368   -0.944262    0.845085
     20          1           0        4.796025   -1.348967   -1.554260
     21          1           0        3.125067   -1.893736   -1.460851
     22          1           0        3.712181   -3.376822    0.486564
     23          1           0        5.392634   -2.828957    0.392626
     24          1           0        4.695465   -3.776869   -0.932035
     25          6           0        3.257112    0.708620   -0.502415
     26          6           0        2.952302    1.816525    0.506358
     27          6           0        2.492283    3.113161   -0.160660
     28          1           0        4.031932    1.058976   -1.198330
     29          1           0        2.359953    0.513947   -1.105866
     30          1           0        3.850233    2.008450    1.107606
     31          1           0        2.179275    1.463680    1.201013
     32          1           0        1.582667    2.943671   -0.745872
     33          1           0        3.263119    3.491536   -0.839810
     34          1           0        2.279836    3.891582    0.578789
 ---------------------------------------------------------------------

 SCF Done:  E(RHF) =  -669.536986271     A.U. after   15 cycles
 E2 =    -0.2092294177D+01 EUMP2 =    -0.67162928044832D+03

 The electronic state is 1-A.
 Alpha  occ. eigenvalues --  -20.61203 -20.61194 -15.86192 -11.31436 -11.27983
 Alpha  occ. eigenvalues --  -11.27980 -11.27705 -11.26970 -11.26960 -11.20637
 Alpha  occ. eigenvalues --  -11.20296 -11.20047 -11.19846 -11.19628 -11.19189
 Alpha  occ. eigenvalues --   -1.60230  -1.39790  -1.19591  -1.09012  -1.07013
 Alpha  occ. eigenvalues --   -1.04973  -1.02101  -0.95866  -0.94591  -0.86378
 Alpha  occ. eigenvalues --   -0.85628  -0.82703  -0.78242  -0.77765  -0.76757
 Alpha  occ. eigenvalues --   -0.72411  -0.71533  -0.70699  -0.65249  -0.64979
 Alpha  occ. eigenvalues --   -0.63628  -0.62320  -0.59475  -0.58042  -0.56190
 Alpha  occ. eigenvalues --   -0.55479  -0.53868  -0.53309  -0.53061  -0.51341
 Alpha  occ. eigenvalues --   -0.51030  -0.49170  -0.49142  -0.48536  -0.46539
 Alpha  occ. eigenvalues --   -0.45248  -0.45230  -0.44315  -0.44094  -0.42373
 Alpha  occ. eigenvalues --   -0.37565  -0.36569
 Alpha virt. eigenvalues --    0.04743   0.11087   0.16249   0.21211   0.24203
 Alpha virt. eigenvalues --    0.25792   0.27158   0.27854   0.28317   0.28851
 Alpha virt. eigenvalues --    0.29315   0.30816   0.32290   0.32820   0.32970

 Mulliken charges:
               1
     1  C   -0.170255
     2  C   -0.218572
     3  C   -0.170557
     4  C    0.157981
     5  C   -0.170343
     6  C   -0.218613
     7  H    0.226564
     8  H    0.224403
     9  H    0.276052
    10  H    0.276049
    11  H    0.224346
    12  N    0.491987
    13  O   -0.459542
    14  O   -0.461281
    15  C   -0.300871
    16  C   -0.297952
    17  C   -0.474893
    18  H    0.145346
    19  H    0.159333
    20  H    0.148732
    21  H    0.148804
    22  H    0.154820
    23  H    0.153866
    24  H    0.155779
    25  C   -0.296073
    26  C   -0.302237
    27  C   -0.475539
    28  H    0.141559
    29  H    0.150146
    30  H    0.140955
    31  H    0.174719
    32  H    0.168746
    33  H    0.142300
    34  H    0.154243
 Sum of Mulliken charges =  -0.00000

 Dipole moment (field-independent basis, Debye):
    X=             -5.2316    Y=             -1.6801    Z=             -1.4379  Tot=              5.6798
 Quadrupole moment (field-independent basis, Debye-Ang):
   XX=            -72.5514   YY=            -93.8461   ZZ=            -94.2360
   XY=              4.2316   XZ=              3.5803   YZ=             -2.9765

 Normal termination of Gaussian 16 at Thu May  6 01:35:43 2021.
