 Gaussian 16, Revision A.03,
 Gaussian 16:  EM64L-G16RevA.03 25-Dec-2016

 -------------
 #p 6-31g* mp2
 -------------

 ------------------------------------------------------
 Input file generated by CHIRIPA (05-May-2021 14:55:19)
 ------------------------------------------------------
 Symbolic Z-matrix:
 Charge =  0 Multiplicity = 1

                         Standard orientation:
 ---------------------------------------------------------------------
 Center     Atomic      Atomic             Coordinates (Angstroms)
 Number     Number       Type             X           Y           Z
 ---------------------------------------------------------------------
      1          6           0       -0.651280   -2.362528    0.378225
      2          6           0       -0.537605   -1.575620   -0.772589
      3          6           0       -1.445822   -0.541514   -1.018178
      4          6           0       -2.460079   -0.321071   -0.087599
      5          6           0       -2.599679   -1.087788    1.068233
      6          6           0       -1.680141   -2.116534    1.293351
      7          1           0        0.058642   -3.163764    0.561053
      8          1           0        0.260421   -1.764382   -1.485028
      9          1           0       -1.381063    0.082949   -1.900942
     10          1           0       -3.405739   -0.875599    1.760088
     11          1           0       -1.770859   -2.726057    2.187944
     12          7           0       -3.427561    0.770853   -0.336756
     13          8           0       -4.312217    0.944784    0.498569
     14          8           0       -3.282897    1.432098   -1.362654
     15          6           0        2.391407    1.166821    0.027329
     16          6           0        2.828440    2.539814    0.539068
     17          6           0        1.710448    3.580424    0.468228
     18          1           0        2.043316    1.263051   -1.010224
     19          1           0        1.529833    0.821311    0.615298
     20          1           0        3.689802    2.882016   -0.048785
     21          1           0        3.175711    2.440270    1.575460
     22          1           0        0.851737    3.264828    1.069573
     23          1           0        1.368747    3.709084   -0.563902
     24          1           0        2.044566    4.554501    0.838899
     25          6           0        3.498195    0.115825    0.091799
     26          6           0        3.061163   -1.257169   -0.419940
     27          6           0        4.179155   -2.297778   -0.349099
     28          1           0        4.359769    0.461335   -0.496170
     29          1           0        3.846287    0.019594    1.129352
     30          1           0        2.713891   -1.157624   -1.456333
     31          1           0        2.199801   -1.599371    0.167913
     32          1           0        4.520855   -2.426438    0.683029
     33          1           0        5.037865   -1.982182   -0.950445
     34          1           0        3.845036   -3.271856   -0.719772
 ---------------------------------------------------------------------

 SCF Done:  E(RHF) =  -669.534158000     A.U. after   15 cycles
 E2 =    -0.2093857292D+01 EUMP2 =    -0.67162801529214D+03

 The electronic state is 1-A.
 Alpha  occ. eigenvalues --  -20.60755 -20.60749 -15.85806 -11.31181 -11.27731
 Alpha  occ. eigenvalues --  -11.27704 -11.27460 -11.26774 -11.26684 -11.22489
 Alpha  occ. eigenvalues --  -11.21974 -11.21905 -11.21821 -11.21733 -11.21097
 Alpha  occ. eigenvalues --   -1.59829  -1.39382  -1.19346  -1.08979  -1.08730
 Alpha  occ. eigenvalues --   -1.04744  -1.04038  -0.96449  -0.95579  -0.87474
 Alpha  occ. eigenvalues --   -0.86150  -0.82406  -0.80189  -0.78751  -0.77427
 Alpha  occ. eigenvalues --   -0.72025  -0.71152  -0.70462  -0.65604  -0.64988
 Alpha  occ. eigenvalues --   -0.64757  -0.62106  -0.61437  -0.59860  -0.58063
 Alpha  occ. eigenvalues --   -0.55719  -0.55249  -0.53280  -0.53035  -0.52934
 Alpha  occ. eigenvalues --   -0.52742  -0.50392  -0.48809  -0.48780  -0.48399
 Alpha  occ. eigenvalues --   -0.47212  -0.46256  -0.46151  -0.44785  -0.44273
 Alpha  occ. eigenvalues --   -0.37281  -0.36285
 Alpha virt. eigenvalues --    0.05031   0.11240   0.16438   0.20394   0.22732
 Alpha virt. eigenvalues --    0.23896   0.24891   0.26417   0.27322   0.28539
 Alpha virt. eigenvalues --    0.29065   0.29525   0.31226   0.31500   0.31763

 Mulliken charges:
               1
     1  C   -0.175134
     2  C   -0.213941
     3  C   -0.172592
     4  C    0.158422
     5  C   -0.171930
     6  C   -0.219143
     7  H    0.225893
     8  H    0.229802
     9  H    0.275335
    10  H    0.275392
    11  H    0.223287
    12  N    0.488074
    13  O   -0.460577
    14  O   -0.460196
    15  C   -0.300501
    16  C   -0.300346
    17  C   -0.476066
    18  H    0.146181
    19  H    0.154343
    20  H    0.151931
    21  H    0.151844
    22  H    0.157375
    23  H    0.157401
    24  H    0.161530
    25  C   -0.297113
    26  C   -0.307222
    27  C   -0.475568
    28  H    0.151502
    29  H    0.151164
    30  H    0.145899
    31  H    0.152157
    32  H    0.157409
    33  H    0.159324
    34  H    0.156066
 Sum of Mulliken charges =  -0.00000

 Dipole moment (field-independent basis, Debye):
    X=              3.4558    Y=             -3.7457    Z=              0.9137  Tot=              5.1776
 Quadrupole moment (field-independent basis, Debye-Ang):
   XX=           -111.3883   YY=            -93.2999   ZZ=            -90.6241
   XY=              9.8265   XZ=             -4.9514   YZ=             -1.3390

 Normal termination of Gaussian 16 at Thu May  6 06:04:11 2021.
