 Gaussian 16, Revision A.03,
 Gaussian 16:  EM64L-G16RevA.03 25-Dec-2016

 -------------
 #p 6-31g* mp2
 -------------

 ------------------------------------------------------
 Input file generated by CHIRIPA (05-May-2021 14:55:20)
 ------------------------------------------------------
 Symbolic Z-matrix:
 Charge =  0 Multiplicity = 1

                         Standard orientation:
 ---------------------------------------------------------------------
 Center     Atomic      Atomic             Coordinates (Angstroms)
 Number     Number       Type             X           Y           Z
 ---------------------------------------------------------------------
      1          6           0       -1.051426   -1.149858    1.190179
      2          6           0       -2.340671   -1.382559    1.680300
      3          6           0       -3.447221   -0.766250    1.088474
      4          6           0       -3.227080    0.080645    0.003302
      5          6           0       -1.954889    0.332522   -0.507948
      6          6           0       -0.862982   -0.294569    0.099542
      7          1           0       -0.197519   -1.632810    1.656008
      8          1           0       -2.490015   -2.046302    2.527168
      9          1           0       -4.456178   -0.928723    1.447676
     10          1           0       -1.837581    0.999293   -1.353569
     11          1           0        0.137124   -0.111998   -0.283213
     12          7           0       -4.390784    0.738811   -0.631530
     13          8           0       -4.170191    1.480604   -1.586369
     14          8           0       -5.501454    0.500425   -0.162251
     15          6           0        4.071526   -0.590553   -0.533888
     16          6           0        3.125213   -1.766419   -0.289320
     17          6           0        3.511100   -3.011802   -1.088010
     18          1           0        4.080222   -0.352036   -1.606259
     19          1           0        5.095255   -0.892290   -0.272483
     20          1           0        2.103369   -1.462114   -0.549798
     21          1           0        3.118624   -2.002040    0.782620
     22          1           0        4.520246   -3.342665   -0.822015
     23          1           0        3.499223   -2.799670   -2.162003
     24          1           0        2.821416   -3.840146   -0.898160
     25          6           0        3.698811    0.661794    0.257589
     26          6           0        4.645125    1.837661    0.013021
     27          6           0        4.259237    3.083044    0.811710
     28          1           0        2.675083    0.963532   -0.003816
     29          1           0        3.690115    0.423277    1.329960
     30          1           0        4.651713    2.073283   -1.058920
     31          1           0        5.666969    1.533356    0.273498
     32          1           0        4.271114    2.870913    1.885704
     33          1           0        3.250091    3.413908    0.545716
     34          1           0        4.948921    3.911388    0.621860
 ---------------------------------------------------------------------

 SCF Done:  E(RHF) =  -669.535473016     A.U. after   15 cycles
 E2 =    -0.2091672285D+01 EUMP2 =    -0.67162714530125D+03

 The electronic state is 1-A.
 Alpha  occ. eigenvalues --  -20.60729 -20.60724 -15.85782 -11.31137 -11.27711
 Alpha  occ. eigenvalues --  -11.27705 -11.27428 -11.26715 -11.26682 -11.22779
 Alpha  occ. eigenvalues --  -11.22385 -11.22317 -11.22288 -11.21955 -11.21649
 Alpha  occ. eigenvalues --   -1.59805  -1.39359  -1.19308  -1.09371  -1.08700
 Alpha  occ. eigenvalues --   -1.04714  -1.04390  -0.96805  -0.95538  -0.87822
 Alpha  occ. eigenvalues --   -0.86114  -0.82373  -0.80490  -0.79201  -0.77423
 Alpha  occ. eigenvalues --   -0.72001  -0.71128  -0.70405  -0.66053  -0.64958
 Alpha  occ. eigenvalues --   -0.64699  -0.62105  -0.61746  -0.60185  -0.58430
 Alpha  occ. eigenvalues --   -0.56080  -0.55197  -0.53496  -0.53225  -0.53036
 Alpha  occ. eigenvalues --   -0.52824  -0.50749  -0.48812  -0.48757  -0.48734
 Alpha  occ. eigenvalues --   -0.47521  -0.46696  -0.46626  -0.44767  -0.44658
 Alpha  occ. eigenvalues --   -0.37280  -0.36316
 Alpha virt. eigenvalues --    0.05113   0.11268   0.16601   0.19039   0.22631
 Alpha virt. eigenvalues --    0.23513   0.24290   0.25779   0.27019   0.28233
 Alpha virt. eigenvalues --    0.29311   0.30289   0.31076   0.31477   0.31614

 Mulliken charges:
               1
     1  C   -0.173257
     2  C   -0.218679
     3  C   -0.171083
     4  C    0.158882
     5  C   -0.172151
     6  C   -0.226144
     7  H    0.227374
     8  H    0.223189
     9  H    0.275413
    10  H    0.275514
    11  H    0.233142
    12  N    0.487992
    13  O   -0.460623
    14  O   -0.460582
    15  C   -0.298670
    16  C   -0.305923
    17  C   -0.475318
    18  H    0.152510
    19  H    0.153864
    20  H    0.146053
    21  H    0.150198
    22  H    0.158685
    23  H    0.158585
    24  H    0.161304
    25  C   -0.301024
    26  C   -0.300260
    27  C   -0.476360
    28  H    0.143948
    29  H    0.150219
    30  H    0.153923
    31  H    0.154417
    32  H    0.155780
    33  H    0.155757
    34  H    0.163326
 Sum of Mulliken charges =  -0.00000

 Dipole moment (field-independent basis, Debye):
    X=              4.3566    Y=             -2.3213    Z=              2.2191  Tot=              5.4123
 Quadrupole moment (field-independent basis, Debye-Ang):
   XX=           -118.4092   YY=            -95.2432   ZZ=            -92.6391
   XY=              9.4237   XZ=             -9.1815   YZ=             -2.2258

 Normal termination of Gaussian 16 at Thu May  6 19:07:23 2021.
