 Gaussian 16, Revision A.03,
 Gaussian 16:  EM64L-G16RevA.03 25-Dec-2016

 -------------
 #p 6-31g* mp2
 -------------

 ------------------------------------------------------
 Input file generated by CHIRIPA (05-May-2021 14:53:18)
 ------------------------------------------------------
 Symbolic Z-matrix:
 Charge =  0 Multiplicity = 1

                         Standard orientation:
 ---------------------------------------------------------------------
 Center     Atomic      Atomic             Coordinates (Angstroms)
 Number     Number       Type             X           Y           Z
 ---------------------------------------------------------------------
      1          6           0       -3.372235    0.974444    0.441409
      2          6           0       -2.306565    0.974371    1.537918
      3          6           0       -1.929475    2.383582    1.995869
      4          1           0       -3.006301    1.554745   -0.416662
      5          1           0       -4.267952    1.493067    0.810348
      6          1           0       -1.413624    0.454690    1.167506
      7          1           0       -2.675001    0.393841    2.393404
      8          1           0       -2.805787    2.907715    2.390790
      9          1           0       -1.537243    2.968910    1.157927
     10          1           0       -1.166279    2.360131    2.779989
     11          6           0       -3.759734   -0.427087   -0.026870
     12          6           0       -4.825404   -0.427014   -1.123379
     13          6           0       -5.202494   -1.836225   -1.581331
     14          1           0       -2.864017   -0.945710   -0.395809
     15          1           0       -4.125668   -1.007388    0.831201
     16          1           0       -4.456968    0.153516   -1.978865
     17          1           0       -5.718345    0.092667   -0.752967
     18          1           0       -5.594726   -2.421553   -0.743388
     19          1           0       -4.326182   -2.360358   -1.976252
     20          1           0       -5.965690   -1.812774   -2.365450
     21          6           0        3.058871    1.924497   -1.473059
     22          6           0        1.790085    1.526650   -1.038986
     23          6           0        1.627027    0.343782   -0.311812
     24          6           0        2.759538   -0.420535   -0.035174
     25          6           0        4.036793   -0.050898   -0.453835
     26          6           0        4.176206    1.135843   -1.179615
     27          1           0        3.176354    2.844882   -2.037404
     28          1           0        0.920564    2.137146   -1.265424
     29          1           0        0.656362    0.012182    0.036426
     30          1           0        4.884783   -0.680362   -0.212783
     31          1           0        5.162777    1.442343   -1.515444
     32          7           0        2.599432   -1.674835    0.733915
     33          8           0        3.613041   -2.330560    0.964693
     34          8           0        1.463364   -1.978479    1.091387
 ---------------------------------------------------------------------

 SCF Done:  E(RHF) =  -669.535444092     A.U. after   15 cycles
 E2 =    -0.2091470592D+01 EUMP2 =    -0.67162691468445D+03

 The electronic state is 1-A.
 Alpha  occ. eigenvalues --  -20.60775 -20.60770 -15.85827 -11.31195 -11.27766
 Alpha  occ. eigenvalues --  -11.27759 -11.27513 -11.26788 -11.26779 -11.21928
 Alpha  occ. eigenvalues --  -11.21705 -11.21680 -11.21481 -11.21450 -11.21073
 Alpha  occ. eigenvalues --   -1.59850  -1.39403  -1.19371  -1.08766  -1.08647
 Alpha  occ. eigenvalues --   -1.04777  -1.03737  -0.96179  -0.95600  -0.87193
 Alpha  occ. eigenvalues --   -0.86176  -0.82432  -0.79799  -0.78436  -0.77478
 Alpha  occ. eigenvalues --   -0.72046  -0.71172  -0.70492  -0.65323  -0.65022
 Alpha  occ. eigenvalues --   -0.64774  -0.62172  -0.61108  -0.59540  -0.57775
 Alpha  occ. eigenvalues --   -0.55486  -0.55273  -0.53102  -0.52906  -0.52848
 Alpha  occ. eigenvalues --   -0.52588  -0.50126  -0.48806  -0.48802  -0.48098
 Alpha  occ. eigenvalues --   -0.46846  -0.45970  -0.45904  -0.44807  -0.43983
 Alpha  occ. eigenvalues --   -0.37353  -0.36376
 Alpha virt. eigenvalues --    0.05048   0.11261   0.16538   0.19245   0.22971
 Alpha virt. eigenvalues --    0.23953   0.25126   0.26230   0.27680   0.28168
 Alpha virt. eigenvalues --    0.29308   0.30362   0.31463   0.31661   0.32383

 Mulliken charges:
               1
     1  C   -0.297942
     2  C   -0.306269
     3  C   -0.475423
     4  H    0.142860
     5  H    0.151387
     6  H    0.151862
     7  H    0.159647
     8  H    0.157757
     9  H    0.147038
    10  H    0.164268
    11  C   -0.298842
    12  C   -0.299628
    13  C   -0.475963
    14  H    0.150839
    15  H    0.153663
    16  H    0.149448
    17  H    0.151975
    18  H    0.156947
    19  H    0.156831
    20  H    0.159912
    21  C   -0.170582
    22  C   -0.222222
    23  C   -0.179873
    24  C    0.158355
    25  C   -0.170052
    26  C   -0.218892
    27  H    0.225712
    28  H    0.223623
    29  H    0.288671
    30  H    0.275696
    31  H    0.223533
    32  N    0.486678
    33  O   -0.460249
    34  O   -0.460766
 Sum of Mulliken charges =  -0.00000

 Dipole moment (field-independent basis, Debye):
    X=              0.4821    Y=              4.3472    Z=             -2.6168  Tot=              5.0969
 Quadrupole moment (field-independent basis, Debye-Ang):
   XX=            -85.9070   YY=           -100.0332   ZZ=            -94.8184
   XY=             11.1090   XZ=             -8.9874   YZ=              0.5674

 Normal termination of Gaussian 16 at Thu May  6 07:35:08 2021.
