 Gaussian 16, Revision A.03,
 Gaussian 16:  EM64L-G16RevA.03 25-Dec-2016

 -------------
 #p 6-31g* mp2
 -------------

 ------------------------------------------------------
 Input file generated by CHIRIPA (05-May-2021 14:55:20)
 ------------------------------------------------------
 Symbolic Z-matrix:
 Charge =  0 Multiplicity = 1

                         Standard orientation:
 ---------------------------------------------------------------------
 Center     Atomic      Atomic             Coordinates (Angstroms)
 Number     Number       Type             X           Y           Z
 ---------------------------------------------------------------------
      1          6           0        1.134857   -1.256094    2.214256
      2          6           0        1.800026   -0.025884    2.188669
      3          6           0        2.442485    0.409844    1.025941
      4          6           0        2.399678   -0.413624   -0.098050
      5          6           0        1.745260   -1.644474   -0.103912
      6          6           0        1.109641   -2.060045    1.069901
      7          1           0        0.638436   -1.586749    3.121796
      8          1           0        1.821244    0.600553    3.075895
      9          1           0        2.964765    1.357678    0.978466
     10          1           0        1.741342   -2.247038   -1.004090
     11          1           0        0.593831   -3.015920    1.086872
     12          7           0        3.076200    0.036993   -1.334846
     13          8           0        3.023938   -0.706973   -2.311790
     14          8           0        3.645911    1.125619   -1.303883
     15          6           0       -3.670719    0.464584   -0.222118
     16          6           0       -3.939450   -1.002571   -0.558607
     17          6           0       -5.428120   -1.306905   -0.729018
     18          1           0       -4.207953    0.727144    0.699503
     19          1           0       -4.086713    1.098141   -1.017699
     20          1           0       -3.521857   -1.633238    0.236686
     21          1           0       -3.401360   -1.261722   -1.479430
     22          1           0       -5.855043   -0.702304   -1.535737
     23          1           0       -5.976225   -1.075931    0.190130
     24          1           0       -5.597436   -2.361196   -0.969147
     25          6           0       -2.187021    0.784417   -0.048700
     26          6           0       -1.918289    2.251572    0.287789
     27          6           0       -0.429620    2.555906    0.458200
     28          1           0       -1.771027    0.150860    0.746879
     29          1           0       -1.649787    0.521857   -0.970323
     30          1           0       -2.456379    2.510722    1.208611
     31          1           0       -2.335882    2.882239   -0.507504
     32          1           0        0.118485    2.324933   -0.460949
     33          1           0       -0.002697    1.951305    1.264918
     34          1           0       -0.260303    3.610198    0.698329
 ---------------------------------------------------------------------

 SCF Done:  E(RHF) =  -669.534390920     A.U. after   15 cycles
 E2 =    -0.2094005489D+01 EUMP2 =    -0.67162839640838D+03

 The electronic state is 1-A.
 Alpha  occ. eigenvalues --  -20.60805 -20.60798 -15.85856 -11.31208 -11.27805
 Alpha  occ. eigenvalues --  -11.27784 -11.27573 -11.26820 -11.26786 -11.21865
 Alpha  occ. eigenvalues --  -11.21691 -11.21566 -11.21472 -11.21299 -11.21033
 Alpha  occ. eigenvalues --   -1.59879  -1.39432  -1.19411  -1.08808  -1.08586
 Alpha  occ. eigenvalues --   -1.04826  -1.03680  -0.96131  -0.95633  -0.87152
 Alpha  occ. eigenvalues --   -0.86213  -0.82472  -0.79766  -0.78403  -0.77507
 Alpha  occ. eigenvalues --   -0.72074  -0.71203  -0.70522  -0.65232  -0.65063
 Alpha  occ. eigenvalues --   -0.64817  -0.62161  -0.61094  -0.59504  -0.57771
 Alpha  occ. eigenvalues --   -0.55439  -0.55324  -0.53353  -0.52910  -0.52819
 Alpha  occ. eigenvalues --   -0.52407  -0.50070  -0.48834  -0.48828  -0.48037
 Alpha  occ. eigenvalues --   -0.46801  -0.45907  -0.45861  -0.44832  -0.43937
 Alpha  occ. eigenvalues --   -0.37377  -0.36282
 Alpha virt. eigenvalues --    0.05017   0.11144   0.16420   0.21216   0.22726
 Alpha virt. eigenvalues --    0.24133   0.26411   0.26828   0.27245   0.28038
 Alpha virt. eigenvalues --    0.28433   0.30568   0.31434   0.31723   0.31847

 Mulliken charges:
               1
     1  C   -0.170799
     2  C   -0.222184
     3  C   -0.164207
     4  C    0.159093
     5  C   -0.170236
     6  C   -0.217666
     7  H    0.225821
     8  H    0.224208
     9  H    0.276843
    10  H    0.275815
    11  H    0.223867
    12  N    0.487560
    13  O   -0.460555
    14  O   -0.460094
    15  C   -0.298328
    16  C   -0.298884
    17  C   -0.475639
    18  H    0.148180
    19  H    0.151413
    20  H    0.146780
    21  H    0.153262
    22  H    0.156993
    23  H    0.154671
    24  H    0.159768
    25  C   -0.299330
    26  C   -0.299399
    27  C   -0.481148
    28  H    0.147078
    29  H    0.151746
    30  H    0.148887
    31  H    0.153730
    32  H    0.158913
    33  H    0.155106
    34  H    0.158735
 Sum of Mulliken charges =  -0.00000

 Dipole moment (field-independent basis, Debye):
    X=             -2.2920    Y=             -1.6117    Z=              4.3174  Tot=              5.1470
 Quadrupole moment (field-independent basis, Debye-Ang):
   XX=           -107.6842   YY=            -90.3821   ZZ=            -94.0751
   XY=             -1.8026   XZ=             11.5016   YZ=              0.1744

 Normal termination of Gaussian 16 at Thu May  6 17:28:16 2021.
