 Gaussian 16, Revision A.03,
 Gaussian 16:  EM64L-G16RevA.03 25-Dec-2016

 -------------
 #p 6-31g* mp2
 -------------

 ------------------------------------------------------
 Input file generated by CHIRIPA (05-May-2021 14:53:14)
 ------------------------------------------------------
 Symbolic Z-matrix:
 Charge =  0 Multiplicity = 1

                         Standard orientation:
 ---------------------------------------------------------------------
 Center     Atomic      Atomic             Coordinates (Angstroms)
 Number     Number       Type             X           Y           Z
 ---------------------------------------------------------------------
      1          6           0       -3.348872    1.167459    0.367322
      2          6           0       -2.569985    2.075166   -0.585247
      3          6           0       -2.332281    3.471431   -0.009285
      4          1           0       -4.313403    1.636939    0.604417
      5          1           0       -2.799730    1.085365    1.315531
      6          1           0       -3.119745    2.154412   -1.531873
      7          1           0       -1.607277    1.603381   -0.820253
      8          1           0       -1.763576    3.411364    0.924293
      9          1           0       -3.284638    3.965527    0.208630
     10          1           0       -1.773840    4.103648   -0.706641
     11          6           0       -3.594390   -0.231812   -0.194361
     12          6           0       -4.373277   -1.139519    0.758209
     13          6           0       -4.610981   -2.535784    0.182246
     14          1           0       -4.143531   -0.149718   -1.142569
     15          1           0       -2.629859   -0.701292   -0.431455
     16          1           0       -5.335985   -0.667734    0.993215
     17          1           0       -3.823516   -1.218765    1.704834
     18          1           0       -3.658624   -3.029880   -0.035668
     19          1           0       -5.179686   -2.475717   -0.751331
     20          1           0       -5.169421   -3.168001    0.879603
     21          6           0        4.838269    0.896600    0.435367
     22          6           0        4.844975   -0.501801    0.404531
     23          6           0        3.672870   -1.211492    0.126942
     24          6           0        2.506672   -0.487501   -0.116184
     25          6           0        2.467933    0.905781   -0.092605
     26          6           0        3.651861    1.594697    0.187138
     27          1           0        5.753380    1.439836    0.651841
     28          1           0        5.764889   -1.046584    0.596921
     29          1           0        3.649774   -2.294070    0.096767
     30          1           0        1.535470    1.421112   -0.288473
     31          1           0        3.643688    2.680716    0.210425
     32          7           0        1.259558   -1.227822   -0.411195
     33          8           0        0.245178   -0.566570   -0.621943
     34          8           0        1.320065   -2.455321   -0.426092
 ---------------------------------------------------------------------

 SCF Done:  E(RHF) =  -669.536508879     A.U. after   15 cycles
 E2 =    -0.2092019010D+01 EUMP2 =    -0.67162852788894D+03

 The electronic state is 1-A.
 Alpha  occ. eigenvalues --  -20.61112 -20.61106 -15.86134 -11.31382 -11.27935
 Alpha  occ. eigenvalues --  -11.27932 -11.27661 -11.26927 -11.26916 -11.20641
 Alpha  occ. eigenvalues --  -11.20572 -11.20465 -11.20338 -11.19966 -11.19903
 Alpha  occ. eigenvalues --   -1.60165  -1.39725  -1.19543  -1.08962  -1.07303
 Alpha  occ. eigenvalues --   -1.04928  -1.02556  -0.95817  -0.95018  -0.86332
 Alpha  occ. eigenvalues --   -0.86038  -0.82658  -0.78618  -0.77725  -0.77062
 Alpha  occ. eigenvalues --   -0.72369  -0.71470  -0.70652  -0.65209  -0.64930
 Alpha  occ. eigenvalues --   -0.63896  -0.62277  -0.59954  -0.58416  -0.56625
 Alpha  occ. eigenvalues --   -0.55436  -0.54308  -0.53264  -0.53017  -0.51774
 Alpha  occ. eigenvalues --   -0.51452  -0.49251  -0.49112  -0.48826  -0.46932
 Alpha  occ. eigenvalues --   -0.45608  -0.45163  -0.44659  -0.44395  -0.42754
 Alpha  occ. eigenvalues --   -0.37519  -0.36525
 Alpha virt. eigenvalues --    0.04811   0.11130   0.16320   0.20765   0.23475
 Alpha virt. eigenvalues --    0.24867   0.26859   0.27445   0.28062   0.28873
 Alpha virt. eigenvalues --    0.29260   0.30792   0.31672   0.32427   0.32497

 Mulliken charges:
               1
     1  C   -0.294068
     2  C   -0.309561
     3  C   -0.475616
     4  H    0.143552
     5  H    0.146629
     6  H    0.149184
     7  H    0.170704
     8  H    0.150003
     9  H    0.154299
    10  H    0.153737
    11  C   -0.311436
    12  C   -0.297898
    13  C   -0.476554
    14  H    0.143589
    15  H    0.181206
    16  H    0.145901
    17  H    0.149954
    18  H    0.162850
    19  H    0.152240
    20  H    0.155222
    21  C   -0.170239
    22  C   -0.218692
    23  C   -0.170313
    24  C    0.156839
    25  C   -0.171029
    26  C   -0.219142
    27  H    0.226399
    28  H    0.224126
    29  H    0.275978
    30  H    0.277719
    31  H    0.224654
    32  N    0.497198
    33  O   -0.469370
    34  O   -0.458064
 Sum of Mulliken charges =  -0.00000

 Dipole moment (field-independent basis, Debye):
    X=              4.7851    Y=              2.3900    Z=              0.9563  Tot=              5.4336
 Quadrupole moment (field-independent basis, Debye-Ang):
   XX=            -72.4457   YY=            -95.3949   ZZ=            -95.9284
   XY=              1.8452   XZ=              3.0447   YZ=             -1.6115

 Normal termination of Gaussian 16 at Wed May  5 15:34:59 2021.
