 Gaussian 16, Revision A.03,
 Gaussian 16:  EM64L-G16RevA.03 25-Dec-2016

 -------------
 #p 6-31g* mp2
 -------------

 ------------------------------------------------------
 Input file generated by CHIRIPA (05-May-2021 14:55:22)
 ------------------------------------------------------
 Symbolic Z-matrix:
 Charge =  0 Multiplicity = 1

                         Standard orientation:
 ---------------------------------------------------------------------
 Center     Atomic      Atomic             Coordinates (Angstroms)
 Number     Number       Type             X           Y           Z
 ---------------------------------------------------------------------
      1          6           0       -2.330320    0.934850   -2.187137
      2          6           0       -2.575338   -0.431838   -2.017877
      3          6           0       -2.408716   -1.033455   -0.766940
      4          6           0       -1.994058   -0.234903    0.297796
      5          6           0       -1.742001    1.129290    0.160927
      6          6           0       -1.915165    1.709687   -1.099114
      7          1           0       -2.462296    1.393958   -3.162431
      8          1           0       -2.897848   -1.036043   -2.861066
      9          1           0       -2.591396   -2.089269   -0.607871
     10          1           0       -1.421511    1.705704    1.020259
     11          1           0       -1.724146    2.771309   -1.227625
     12          7           0       -1.814200   -0.860575    1.626926
     13          8           0       -1.448039   -0.135194    2.549089
     14          8           0       -2.042794   -2.064512    1.721367
     15          6           0        2.536072   -0.419648   -0.584886
     16          6           0        3.206620   -1.693280   -0.068932
     17          6           0        3.089610   -2.861415   -1.048505
     18          1           0        1.476042   -0.626617   -0.785996
     19          1           0        2.987787   -0.139561   -1.546604
     20          1           0        2.754723   -1.970107    0.892200
     21          1           0        4.265132   -1.483204    0.131154
     22          1           0        3.557351   -2.609717   -2.005828
     23          1           0        2.038361   -3.099385   -1.240458
     24          1           0        3.575714   -3.761634   -0.659700
     25          6           0        2.644602    0.757017    0.383314
     26          6           0        1.974055    2.030649   -0.132641
     27          6           0        2.091064    3.198784    0.846932
     28          1           0        2.192887    0.476931    1.345031
     29          1           0        3.704632    0.963987    0.584423
     30          1           0        0.915541    1.820573   -0.332726
     31          1           0        2.425951    2.307476   -1.093773
     32          1           0        3.142314    3.436755    1.038885
     33          1           0        1.623322    2.947086    1.804255
     34          1           0        1.604959    4.099003    0.458128
 ---------------------------------------------------------------------

 SCF Done:  E(RHF) =  -669.535007168     A.U. after   15 cycles
 E2 =    -0.2093929606D+01 EUMP2 =    -0.67162893677355D+03

 The electronic state is 1-A.
 Alpha  occ. eigenvalues --  -20.60901 -20.60895 -15.85953 -11.31324 -11.27890
 Alpha  occ. eigenvalues --  -11.27878 -11.27609 -11.26889 -11.26875 -11.21602
 Alpha  occ. eigenvalues --  -11.21391 -11.21284 -11.21231 -11.21222 -11.20926
 Alpha  occ. eigenvalues --   -1.59975  -1.39527  -1.19503  -1.08883  -1.08346
 Alpha  occ. eigenvalues --   -1.04910  -1.03485  -0.95943  -0.95720  -0.86958
 Alpha  occ. eigenvalues --   -0.86289  -0.82556  -0.79555  -0.78153  -0.77595
 Alpha  occ. eigenvalues --   -0.72168  -0.71302  -0.70593  -0.65164  -0.65004
 Alpha  occ. eigenvalues --   -0.64862  -0.62263  -0.60876  -0.59326  -0.57552
 Alpha  occ. eigenvalues --   -0.55387  -0.55220  -0.53289  -0.52974  -0.52640
 Alpha  occ. eigenvalues --   -0.52365  -0.49883  -0.48928  -0.48924  -0.47873
 Alpha  occ. eigenvalues --   -0.46590  -0.45687  -0.45583  -0.44923  -0.43724
 Alpha  occ. eigenvalues --   -0.37467  -0.36382
 Alpha virt. eigenvalues --    0.04906   0.11108   0.16322   0.20717   0.22898
 Alpha virt. eigenvalues --    0.24083   0.26532   0.27118   0.27424   0.28039
 Alpha virt. eigenvalues --    0.29119   0.30087   0.31434   0.31753   0.32259

 Mulliken charges:
               1
     1  C   -0.170612
     2  C   -0.218193
     3  C   -0.172133
     4  C    0.159580
     5  C   -0.173310
     6  C   -0.216677
     7  H    0.226520
     8  H    0.224215
     9  H    0.276126
    10  H    0.278207
    11  H    0.225535
    12  N    0.487861
    13  O   -0.460695
    14  O   -0.459806
    15  C   -0.299216
    16  C   -0.300947
    17  C   -0.475176
    18  H    0.148859
    19  H    0.146695
    20  H    0.158289
    21  H    0.151416
    22  H    0.152639
    23  H    0.154260
    24  H    0.161475
    25  C   -0.300465
    26  C   -0.308152
    27  C   -0.478386
    28  H    0.157847
    29  H    0.149580
    30  H    0.154480
    31  H    0.149071
    32  H    0.158058
    33  H    0.159521
    34  H    0.153534
 Sum of Mulliken charges =  -0.00000

 Dipole moment (field-independent basis, Debye):
    X=             -0.7284    Y=              2.1231    Z=             -4.6214  Tot=              5.1377
 Quadrupole moment (field-independent basis, Debye-Ang):
   XX=            -91.7524   YY=            -93.1030   ZZ=            -97.4651
   XY=             -2.8348   XZ=              9.8825   YZ=              2.9227

 Normal termination of Gaussian 16 at Thu May  6 14:15:04 2021.
