 Gaussian 16, Revision A.03,
 Gaussian 16:  EM64L-G16RevA.03 25-Dec-2016

 -------------
 #p 6-31g* mp2
 -------------

 ------------------------------------------------------
 Input file generated by CHIRIPA (05-May-2021 14:55:25)
 ------------------------------------------------------
 Symbolic Z-matrix:
 Charge =  0 Multiplicity = 1

                         Standard orientation:
 ---------------------------------------------------------------------
 Center     Atomic      Atomic             Coordinates (Angstroms)
 Number     Number       Type             X           Y           Z
 ---------------------------------------------------------------------
      1          6           0       -4.114305    2.452598    0.021340
      2          6           0       -3.407250    1.975445    1.129907
      3          6           0       -2.895312    0.674530    1.139313
      4          6           0       -3.109932   -0.125680    0.018201
      5          6           0       -3.810223    0.320853   -1.101393
      6          6           0       -4.313184    1.625238   -1.088815
      7          1           0       -4.508504    3.464527    0.022572
      8          1           0       -3.251275    2.615753    1.993458
      9          1           0       -2.344258    0.279662    1.984203
     10          1           0       -3.949654   -0.340935   -1.947569
     11          1           0       -4.861907    1.993131   -1.951139
     12          7           0       -2.572718   -1.504737    0.016522
     13          8           0       -2.775351   -2.189885   -0.983552
     14          8           0       -1.959188   -1.874381    1.015312
     15          6           0        4.632971    0.204513   -0.449154
     16          6           0        5.705087    0.914295    0.378349
     17          6           0        6.776241    1.578752   -0.487051
     18          1           0        5.111657   -0.551022   -1.087098
     19          1           0        4.160934    0.930799   -1.125235
     20          1           0        6.174010    0.187179    1.053648
     21          1           0        5.223772    1.668096    1.014537
     22          1           0        6.327224    2.324894   -1.150569
     23          1           0        7.282861    0.835563   -1.111236
     24          1           0        7.532566    2.080211    0.124809
     25          6           0        3.555115   -0.464623    0.401851
     26          6           0        2.483000   -1.174405   -0.425652
     27          6           0        1.411845   -1.838863    0.439748
     28          1           0        4.027154   -1.190909    1.077931
     29          1           0        3.076430    0.290911    1.039796
     30          1           0        2.964315   -1.928207   -1.061841
     31          1           0        2.014076   -0.447290   -1.100951
     32          1           0        0.905226   -1.095673    1.063933
     33          1           0        1.860863   -2.585005    1.103266
     34          1           0        0.655520   -2.340321   -0.172112
 ---------------------------------------------------------------------

 SCF Done:  E(RHF) =  -669.535636461     A.U. after   15 cycles
 E2 =    -0.2091499555D+01 EUMP2 =    -0.67162713601562D+03

 The electronic state is 1-A.
 Alpha  occ. eigenvalues --  -20.60904 -20.60869 -15.85903 -11.31265 -11.27830
 Alpha  occ. eigenvalues --  -11.27826 -11.27571 -11.26844 -11.26834 -11.21314
 Alpha  occ. eigenvalues --  -11.20982 -11.20854 -11.20833 -11.20758 -11.19753
 Alpha  occ. eigenvalues --   -1.59945  -1.39500  -1.19434  -1.08833  -1.07915
 Alpha  occ. eigenvalues --   -1.04835  -1.02920  -0.95678  -0.95327  -0.86342
 Alpha  occ. eigenvalues --   -0.86232  -0.82504  -0.79003  -0.77715  -0.77547
 Alpha  occ. eigenvalues --   -0.72131  -0.71265  -0.70543  -0.65089  -0.64839
 Alpha  occ. eigenvalues --   -0.64561  -0.62183  -0.60333  -0.58747  -0.56939
 Alpha  occ. eigenvalues --   -0.55338  -0.54645  -0.53170  -0.52928  -0.51974
 Alpha  occ. eigenvalues --   -0.51762  -0.49322  -0.48890  -0.48878  -0.47296
 Alpha  occ. eigenvalues --   -0.46106  -0.45284  -0.45206  -0.44776  -0.43099
 Alpha  occ. eigenvalues --   -0.37412  -0.36438
 Alpha virt. eigenvalues --    0.04953   0.11207   0.16434   0.21307   0.23306
 Alpha virt. eigenvalues --    0.24868   0.26969   0.27262   0.27852   0.28052
 Alpha virt. eigenvalues --    0.28869   0.30820   0.31725   0.32202   0.32617

 Mulliken charges:
               1
     1  C   -0.170708
     2  C   -0.218556
     3  C   -0.171307
     4  C    0.159099
     5  C   -0.170946
     6  C   -0.218547
     7  H    0.225868
     8  H    0.223704
     9  H    0.275811
    10  H    0.275799
    11  H    0.223724
    12  N    0.487869
    13  O   -0.460868
    14  O   -0.456559
    15  C   -0.297398
    16  C   -0.298984
    17  C   -0.475303
    18  H    0.149619
    19  H    0.147456
    20  H    0.151933
    21  H    0.150054
    22  H    0.153999
    23  H    0.155282
    24  H    0.158969
    25  C   -0.296881
    26  C   -0.301267
    27  C   -0.473581
    28  H    0.149249
    29  H    0.145833
    30  H    0.150359
    31  H    0.146631
    32  H    0.152109
    33  H    0.152125
    34  H    0.175410
 Sum of Mulliken charges =  -0.00000

 Dipole moment (field-independent basis, Debye):
    X=             -2.1402    Y=              4.7547    Z=              0.0303  Tot=              5.2142
 Quadrupole moment (field-independent basis, Debye-Ang):
   XX=            -84.1533   YY=            -95.8228   ZZ=            -90.9941
   XY=            -15.9378   XZ=              2.4227   YZ=              1.0786

 Normal termination of Gaussian 16 at Wed May  5 17:38:17 2021.
