 Gaussian 16, Revision A.03,
 Gaussian 16:  EM64L-G16RevA.03 25-Dec-2016

 -------------
 #p 6-31g* mp2
 -------------

 ------------------------------------------------------
 Input file generated by CHIRIPA (05-May-2021 14:53:15)
 ------------------------------------------------------
 Symbolic Z-matrix:
 Charge =  0 Multiplicity = 1

                         Standard orientation:
 ---------------------------------------------------------------------
 Center     Atomic      Atomic             Coordinates (Angstroms)
 Number     Number       Type             X           Y           Z
 ---------------------------------------------------------------------
      1          6           0        3.279503    0.846647    0.064642
      2          6           0        3.275845    2.015163   -0.921533
      3          6           0        2.458062    3.206966   -0.422906
      4          1           0        2.244317    0.530123    0.252117
      5          1           0        3.680623    1.190356    1.028158
      6          1           0        2.876141    1.669005   -1.883317
      7          1           0        4.311172    2.328817   -1.106830
      8          1           0        2.859094    3.579716    0.525161
      9          1           0        1.415909    2.916155   -0.255737
     10          1           0        2.469000    4.030893   -1.143244
     11          6           0        4.092872   -0.352327   -0.419734
     12          6           0        4.096530   -1.520843    0.566442
     13          6           0        4.914313   -2.712647    0.067814
     14          1           0        3.691752   -0.696037   -1.383249
     15          1           0        5.128058   -0.035803   -0.607209
     16          1           0        3.061203   -1.834498    0.751738
     17          1           0        4.496234   -1.174685    1.528225
     18          1           0        5.956466   -2.421835   -0.099355
     19          1           0        4.513281   -3.085397   -0.880253
     20          1           0        4.903375   -3.536573    0.788152
     21          6           0       -5.230113   -0.383668   -0.758951
     22          6           0       -4.167721   -0.979566   -1.446519
     23          6           0       -2.861400   -0.880400   -0.958420
     24          6           0       -2.652618   -0.174669    0.225490
     25          6           0       -3.690199    0.429998    0.933368
     26          6           0       -4.988388    0.317975    0.426708
     27          1           0       -6.241737   -0.465697   -1.145328
     28          1           0       -4.352484   -1.525087   -2.367559
     29          1           0       -2.020484   -1.332053   -1.470561
     30          1           0       -3.474780    0.967305    1.848963
     31          1           0       -5.811523    0.781770    0.962794
     32          7           0       -1.273979   -0.062881    0.752043
     33          8           0       -1.116416    0.564354    1.797218
     34          8           0       -0.377070   -0.604612    0.109612
 ---------------------------------------------------------------------

 SCF Done:  E(RHF) =  -669.536783555     A.U. after   15 cycles
 E2 =    -0.2091443981D+01 EUMP2 =    -0.67162822753595D+03

 The electronic state is 1-A.
 Alpha  occ. eigenvalues --  -20.61134 -20.61119 -15.86136 -11.31398 -11.27951
 Alpha  occ. eigenvalues --  -11.27945 -11.27676 -11.26942 -11.26932 -11.20367
 Alpha  occ. eigenvalues --  -11.20308 -11.20098 -11.20064 -11.19953 -11.19651
 Alpha  occ. eigenvalues --   -1.60173  -1.39730  -1.19557  -1.08974  -1.07058
 Alpha  occ. eigenvalues --   -1.04943  -1.02317  -0.95825  -0.94765  -0.86346
 Alpha  occ. eigenvalues --   -0.85793  -0.82660  -0.78370  -0.77721  -0.76834
 Alpha  occ. eigenvalues --   -0.72351  -0.71480  -0.70665  -0.65213  -0.64946
 Alpha  occ. eigenvalues --   -0.63674  -0.62290  -0.59720  -0.58146  -0.56380
 Alpha  occ. eigenvalues --   -0.55450  -0.54053  -0.53278  -0.53033  -0.51531
 Alpha  occ. eigenvalues --   -0.51203  -0.49189  -0.49106  -0.48672  -0.46697
 Alpha  occ. eigenvalues --   -0.45400  -0.45151  -0.44419  -0.44137  -0.42513
 Alpha  occ. eigenvalues --   -0.37532  -0.36540
 Alpha virt. eigenvalues --    0.04790   0.11116   0.16299   0.21253   0.24203
 Alpha virt. eigenvalues --    0.25432   0.27182   0.27899   0.28208   0.28875
 Alpha virt. eigenvalues --    0.29271   0.30855   0.32381   0.32497   0.32885

 Mulliken charges:
               1
     1  C   -0.312651
     2  C   -0.297583
     3  C   -0.474804
     4  H    0.182685
     5  H    0.144443
     6  H    0.148034
     7  H    0.145872
     8  H    0.153997
     9  H    0.159054
    10  H    0.153119
    11  C   -0.295480
    12  C   -0.301760
    13  C   -0.474817
    14  H    0.146468
    15  H    0.142820
    16  H    0.163704
    17  H    0.149194
    18  H    0.151625
    19  H    0.152496
    20  H    0.156920
    21  C   -0.170323
    22  C   -0.218545
    23  C   -0.170622
    24  C    0.157824
    25  C   -0.170491
    26  C   -0.218595
    27  H    0.226416
    28  H    0.224202
    29  H    0.275795
    30  H    0.276206
    31  H    0.224243
    32  N    0.488877
    33  O   -0.457575
    34  O   -0.460748
 Sum of Mulliken charges =  -0.00000

 Dipole moment (field-independent basis, Debye):
    X=             -5.3407    Y=             -0.4700    Z=             -1.7327  Tot=              5.6343
 Quadrupole moment (field-independent basis, Debye-Ang):
   XX=            -70.0686   YY=            -95.3485   ZZ=            -92.8778
   XY=              1.6087   XZ=              3.2852   YZ=              2.8986

 Normal termination of Gaussian 16 at Wed May  5 15:36:37 2021.
