 Gaussian 16, Revision A.03,
 Gaussian 16:  EM64L-G16RevA.03 25-Dec-2016

 -------------
 #p 6-31g* mp2
 -------------

 ------------------------------------------------------
 Input file generated by CHIRIPA (05-May-2021 14:57:27)
 ------------------------------------------------------
 Symbolic Z-matrix:
 Charge =  0 Multiplicity = 1

                         Standard orientation:
 ---------------------------------------------------------------------
 Center     Atomic      Atomic             Coordinates (Angstroms)
 Number     Number       Type             X           Y           Z
 ---------------------------------------------------------------------
      1          6           0       -5.239040    1.279349    0.763534
      2          6           0       -4.532294    1.671564   -0.378043
      3          6           0       -3.457578    0.908835   -0.844709
      4          6           0       -3.115225   -0.245546   -0.142222
      5          6           0       -3.799856   -0.662555    0.998249
      6          6           0       -4.871214    0.115592    1.446832
      7          1           0       -6.072601    1.877844    1.119028
      8          1           0       -4.815722    2.574882   -0.910708
      9          1           0       -2.893218    1.189327   -1.725753
     10          1           0       -3.493813   -1.567995    1.508087
     11          1           0       -5.418277   -0.191434    2.333681
     12          7           0       -1.979249   -1.061175   -0.626689
     13          8           0       -1.697483   -2.073992    0.010058
     14          8           0       -1.392147   -0.672203   -1.633987
     15          6           0        3.886559    2.564854    0.125096
     16          6           0        4.698088    1.635058    0.783444
     17          6           0        4.384088    0.273014    0.755388
     18          6           0        3.245978   -0.126097    0.056312
     19          6           0        2.417625    0.776019   -0.609502
     20          6           0        2.750919    2.133127   -0.568053
     21          1           0        4.137975    3.621005    0.152093
     22          1           0        5.580655    1.967472    1.322537
     23          1           0        4.994871   -0.468212    1.256334
     24          1           0        1.544314    0.414411   -1.138639
     25          1           0        2.118843    2.852974   -1.080249
     26          7           0        2.903347   -1.565420    0.019522
     27          8           0        1.895204   -1.891507   -0.603336
     28          8           0        3.649425   -2.340221    0.614239
 ---------------------------------------------------------------------

 SCF Done:  E(RHF) =  -868.336326473     A.U. after   16 cycles
 E2 =    -0.2600525371D+01 EUMP2 =    -0.87093685184400D+03

 The electronic state is 1-A.
 Alpha  occ. eigenvalues --  -20.60528 -20.60434 -20.59594 -20.59466 -15.85532
 Alpha  occ. eigenvalues --  -15.84583 -11.31107 -11.30279 -11.27732 -11.27662
 Alpha  occ. eigenvalues --  -11.27467 -11.26956 -11.26784 -11.26775 -11.26773
 Alpha  occ. eigenvalues --  -11.26726 -11.26044 -11.25997  -1.59523  -1.58618
 Alpha  occ. eigenvalues --   -1.39084  -1.38150  -1.19294  -1.18508  -1.08644
 Alpha  occ. eigenvalues --   -1.07858  -1.04728  -1.03954  -0.95443  -0.94620
 Alpha  occ. eigenvalues --   -0.86115  -0.85338  -0.82278  -0.81440  -0.77297
 Alpha  occ. eigenvalues --   -0.76414  -0.71726  -0.70924  -0.70730  -0.70397
 Alpha  occ. eigenvalues --   -0.69963  -0.69610  -0.64942  -0.64727  -0.64148
 Alpha  occ. eigenvalues --   -0.63969  -0.62074  -0.61270  -0.55212  -0.54479
 Alpha  occ. eigenvalues --   -0.53046  -0.52821  -0.52288  -0.52045  -0.48495
 Alpha  occ. eigenvalues --   -0.48451  -0.47606  -0.47502  -0.44443  -0.43475
 Alpha  occ. eigenvalues --   -0.37284  -0.36542  -0.36343  -0.35582
 Alpha virt. eigenvalues --    0.05203   0.06107   0.11308   0.12063   0.16637
 Alpha virt. eigenvalues --    0.17514   0.21412   0.22181   0.27319   0.27962
 Alpha virt. eigenvalues --    0.28341   0.29180   0.30943   0.31694   0.32536

 Mulliken charges:
               1
     1  C   -0.171471
     2  C   -0.218451
     3  C   -0.172688
     4  C    0.158725
     5  C   -0.170941
     6  C   -0.218421
     7  H    0.224953
     8  H    0.221822
     9  H    0.272151
    10  H    0.277862
    11  H    0.223732
    12  N    0.487804
    13  O   -0.446086
    14  O   -0.465180
    15  C   -0.171883
    16  C   -0.219426
    17  C   -0.171648
    18  C    0.156892
    19  C   -0.178591
    20  C   -0.220498
    21  H    0.221301
    22  H    0.219892
    23  H    0.273710
    24  H    0.292414
    25  H    0.219485
    26  N    0.485224
    27  O   -0.442356
    28  O   -0.468326
 Sum of Mulliken charges =  -0.00000

 Dipole moment (field-independent basis, Debye):
    X=             -3.0929    Y=              7.5869    Z=              1.7845  Tot=              8.3851
 Quadrupole moment (field-independent basis, Debye-Ang):
   XX=            -71.3037   YY=           -106.4424   ZZ=           -101.9458
   XY=              7.8817   XZ=             -2.8839   YZ=             -3.9244

 Normal termination of Gaussian 16 at Fri May  7 09:44:44 2021.
