 Gaussian 16, Revision A.03,
 Gaussian 16:  EM64L-G16RevA.03 25-Dec-2016

 -------------
 #p 6-31g* mp2
 -------------

 ------------------------------------------------------
 Input file generated by CHIRIPA (05-May-2021 14:57:22)
 ------------------------------------------------------
 Symbolic Z-matrix:
 Charge =  0 Multiplicity = 1

                         Standard orientation:
 ---------------------------------------------------------------------
 Center     Atomic      Atomic             Coordinates (Angstroms)
 Number     Number       Type             X           Y           Z
 ---------------------------------------------------------------------
      1          6           0       -5.865684   -2.006234    0.066984
      2          6           0       -6.452265   -0.745187   -0.082034
      3          6           0       -5.660344    0.406350   -0.119042
      4          6           0       -4.278892    0.259464   -0.003693
      5          6           0       -3.664744   -0.983015    0.145832
      6          6           0       -4.476245   -2.120921    0.180241
      7          1           0       -6.488473   -2.895481    0.094723
      8          1           0       -7.531055   -0.653103   -0.170222
      9          1           0       -6.088228    1.394904   -0.233475
     10          1           0       -2.586545   -1.043018    0.231299
     11          1           0       -4.017950   -3.098977    0.296067
     12          7           0       -3.430157    1.471329   -0.041496
     13          8           0       -2.215466    1.315081    0.062189
     14          8           0       -3.995679    2.554491   -0.174096
     15          6           0        1.964488    0.523465    0.045197
     16          6           0        2.364704   -0.808455   -0.104258
     17          6           0        3.721806   -1.143191   -0.132057
     18          6           0        4.656046   -0.116115   -0.007152
     19          6           0        4.288765    1.220234    0.143066
     20          6           0        2.926100    1.531781    0.168165
     21          1           0        0.908097    0.774490    0.065743
     22          1           0        1.620108   -1.593604   -0.199978
     23          1           0        4.059404   -2.166091   -0.246602
     24          1           0        5.054248    1.981015    0.236156
     25          1           0        2.618197    2.567030    0.284355
     26          7           0        6.095694   -0.458211   -0.035152
     27          8           0        6.899145    0.465130    0.076854
     28          8           0        6.393379   -1.643208   -0.168574
 ---------------------------------------------------------------------

 SCF Done:  E(RHF) =  -868.339674052     A.U. after   16 cycles
 E2 =    -0.2598257143D+01 EUMP2 =    -0.87093793119535D+03

 The electronic state is 1-A.
 Alpha  occ. eigenvalues --  -20.61829 -20.61767 -20.60335 -20.60326 -15.86850
 Alpha  occ. eigenvalues --  -15.85385 -11.31995 -11.30612 -11.28586 -11.28499
 Alpha  occ. eigenvalues --  -11.28210 -11.27511 -11.27465 -11.27229 -11.27165
 Alpha  occ. eigenvalues --  -11.26708 -11.26176 -11.26047  -1.60858  -1.59413
 Alpha  occ. eigenvalues --   -1.40424  -1.38970  -1.20139  -1.18768  -1.09566
 Alpha  occ. eigenvalues --   -1.08149  -1.05515  -1.04168  -0.96444  -0.95008
 Alpha  occ. eigenvalues --   -0.86921  -0.85551  -0.83294  -0.81862  -0.78370
 Alpha  occ. eigenvalues --   -0.76965  -0.73089  -0.72161  -0.71604  -0.71245
 Alpha  occ. eigenvalues --   -0.70736  -0.69752  -0.65798  -0.65512  -0.64405
 Alpha  occ. eigenvalues --   -0.64164  -0.62875  -0.61533  -0.56006  -0.54500
 Alpha  occ. eigenvalues --   -0.53846  -0.53606  -0.52490  -0.52250  -0.49847
 Alpha  occ. eigenvalues --   -0.49787  -0.48368  -0.48348  -0.45875  -0.44408
 Alpha  occ. eigenvalues --   -0.38092  -0.37106  -0.36685  -0.35794
 Alpha virt. eigenvalues --    0.04169   0.05592   0.10553   0.11874   0.15714
 Alpha virt. eigenvalues --    0.17133   0.20405   0.22061   0.26344   0.27100
 Alpha virt. eigenvalues --    0.27977   0.29022   0.30606   0.31435   0.32279

 Mulliken charges:
               1
     1  C   -0.169878
     2  C   -0.218195
     3  C   -0.170207
     4  C    0.158498
     5  C   -0.169227
     6  C   -0.217905
     7  H    0.228418
     8  H    0.226193
     9  H    0.277236
    10  H    0.268545
    11  H    0.224608
    12  N    0.494945
    13  O   -0.476325
    14  O   -0.454816
    15  C   -0.178715
    16  C   -0.220132
    17  C   -0.171436
    18  C    0.157145
    19  C   -0.171271
    20  C   -0.220737
    21  H    0.249086
    22  H    0.216529
    23  H    0.272304
    24  H    0.274187
    25  H    0.227305
    26  N    0.488293
    27  O   -0.461492
    28  O   -0.462954
 Sum of Mulliken charges =  -0.00000

 Dipole moment (field-independent basis, Debye):
    X=             -8.6066    Y=             -2.9508    Z=              0.2333  Tot=              9.1014
 Quadrupole moment (field-independent basis, Debye-Ang):
   XX=           -123.0422   YY=           -101.1870   ZZ=           -106.5038
   XY=             23.0487   XZ=              0.6662   YZ=              0.2747

 Normal termination of Gaussian 16 at Fri May  7 07:54:09 2021.
