 Gaussian 16, Revision A.03,
 Gaussian 16:  EM64L-G16RevA.03 25-Dec-2016

 -------------
 #p 6-31g* mp2
 -------------

 ------------------------------------------------------
 Input file generated by CHIRIPA (05-May-2021 14:55:25)
 ------------------------------------------------------
 Symbolic Z-matrix:
 Charge =  0 Multiplicity = 1

                         Standard orientation:
 ---------------------------------------------------------------------
 Center     Atomic      Atomic             Coordinates (Angstroms)
 Number     Number       Type             X           Y           Z
 ---------------------------------------------------------------------
      1          6           0       -5.357577   -0.187712    0.414745
      2          6           0       -4.707567    0.920731   -0.137851
      3          6           0       -3.343245    0.866855   -0.438302
      4          6           0       -2.656582   -0.316727   -0.171999
      5          6           0       -3.276001   -1.437922    0.378028
      6          6           0       -4.640983   -1.361432    0.670470
      7          1           0       -6.417672   -0.137076    0.645031
      8          1           0       -5.261559    1.833569   -0.337516
      9          1           0       -2.815145    1.710127   -0.866578
     10          1           0       -2.697152   -2.334069    0.565838
     11          1           0       -5.143181   -2.223820    1.099573
     12          7           0       -1.211886   -0.385734   -0.485833
     13          8           0       -0.629394   -1.440134   -0.241743
     14          8           0       -0.689381    0.615886   -0.969965
     15          6           0        4.395341    0.072118    0.228398
     16          6           0        4.423790   -1.408407   -0.152678
     17          6           0        5.811307   -2.031958    0.001511
     18          1           0        5.115885    0.618650   -0.395351
     19          1           0        4.734592    0.182649    1.267670
     20          1           0        4.083268   -1.516250   -1.190479
     21          1           0        3.702955   -1.951446    0.471919
     22          1           0        6.155810   -1.953758    1.037755
     23          1           0        6.538283   -1.516090   -0.634088
     24          1           0        5.808810   -3.090603   -0.276202
     25          6           0        3.015053    0.709587    0.079506
     26          6           0        2.986604    2.190112    0.460582
     27          6           0        1.599086    2.813663    0.306394
     28          1           0        2.675801    0.599056   -0.959765
     29          1           0        2.294508    0.163055    0.703255
     30          1           0        3.707439    2.733151   -0.164015
     31          1           0        3.327127    2.297956    1.498383
     32          1           0        0.872110    2.297794    0.941992
     33          1           0        1.254583    2.735464   -0.729851
     34          1           0        1.601584    3.872308    0.584105
 ---------------------------------------------------------------------

 SCF Done:  E(RHF) =  -669.535736091     A.U. after   15 cycles
 E2 =    -0.2092055953D+01 EUMP2 =    -0.67162779204421D+03

 The electronic state is 1-A.
 Alpha  occ. eigenvalues --  -20.60971 -20.60941 -15.85972 -11.31300 -11.27863
 Alpha  occ. eigenvalues --  -11.27857 -11.27600 -11.26869 -11.26859 -11.20363
 Alpha  occ. eigenvalues --  -11.20216 -11.20116 -11.20081 -11.19652 -11.19519
 Alpha  occ. eigenvalues --   -1.60009  -1.39567  -1.19468  -1.08873  -1.07024
 Alpha  occ. eigenvalues --   -1.04863  -1.02212  -0.95716  -0.94653  -0.86264
 Alpha  occ. eigenvalues --   -0.85672  -0.82552  -0.78290  -0.77597  -0.76764
 Alpha  occ. eigenvalues --   -0.72197  -0.71324  -0.70576  -0.65124  -0.64865
 Alpha  occ. eigenvalues --   -0.63674  -0.62210  -0.59630  -0.58040  -0.56246
 Alpha  occ. eigenvalues --   -0.55368  -0.53947  -0.53197  -0.52954  -0.51418
 Alpha  occ. eigenvalues --   -0.51052  -0.49007  -0.48953  -0.48578  -0.46598
 Alpha  occ. eigenvalues --   -0.45334  -0.44942  -0.44247  -0.44203  -0.42445
 Alpha  occ. eigenvalues --   -0.37446  -0.36465
 Alpha virt. eigenvalues --    0.04910   0.11189   0.16399   0.21308   0.24172
 Alpha virt. eigenvalues --    0.25569   0.27231   0.28015   0.28056   0.28968
 Alpha virt. eigenvalues --    0.29300   0.30951   0.32349   0.32588   0.32981

 Mulliken charges:
               1
     1  C   -0.170596
     2  C   -0.218557
     3  C   -0.170767
     4  C    0.157801
     5  C   -0.170782
     6  C   -0.218590
     7  H    0.226014
     8  H    0.223942
     9  H    0.276190
    10  H    0.275747
    11  H    0.223801
    12  N    0.490390
    13  O   -0.459853
    14  O   -0.459728
    15  C   -0.298515
    16  C   -0.298190
    17  C   -0.475000
    18  H    0.144644
    19  H    0.143944
    20  H    0.153811
    21  H    0.155367
    22  H    0.152138
    23  H    0.152411
    24  H    0.157376
    25  C   -0.295806
    26  C   -0.300673
    27  C   -0.469025
    28  H    0.159856
    29  H    0.156228
    30  H    0.145869
    31  H    0.144555
    32  H    0.152177
    33  H    0.166925
    34  H    0.146895
 Sum of Mulliken charges =  -0.00000

 Dipole moment (field-independent basis, Debye):
    X=             -5.4830    Y=              0.1121    Z=              0.9539  Tot=              5.5665
 Quadrupole moment (field-independent basis, Debye-Ang):
   XX=            -70.8159   YY=            -91.6821   ZZ=            -94.5328
   XY=              1.1306   XZ=             -2.7633   YZ=             -2.8045

 Normal termination of Gaussian 16 at Thu May  6 00:03:29 2021.
