 Gaussian 16, Revision A.03,
 Gaussian 16:  EM64L-G16RevA.03 25-Dec-2016

 -------------
 #p 6-31g* mp2
 -------------

 ------------------------------------------------------
 Input file generated by CHIRIPA (05-May-2021 14:55:24)
 ------------------------------------------------------
 Symbolic Z-matrix:
 Charge =  0 Multiplicity = 1

                         Standard orientation:
 ---------------------------------------------------------------------
 Center     Atomic      Atomic             Coordinates (Angstroms)
 Number     Number       Type             X           Y           Z
 ---------------------------------------------------------------------
      1          6           0       -1.287442   -2.502449   -0.256224
      2          6           0       -2.581346   -2.628030    0.260073
      3          6           0       -3.417530   -1.512029    0.359510
      4          6           0       -2.925212   -0.280108   -0.068607
      5          6           0       -1.640941   -0.122814   -0.587448
      6          6           0       -0.822189   -1.252446   -0.677594
      7          1           0       -0.644646   -3.374680   -0.329860
      8          1           0       -2.945329   -3.597551    0.588082
      9          1           0       -4.423531   -1.580859    0.755291
     10          1           0       -1.306148    0.856798   -0.906338
     11          1           0        0.182222   -1.151942   -1.078968
     12          7           0       -3.801215    0.908567    0.031744
     13          8           0       -3.343807    1.982792   -0.352254
     14          8           0       -4.928646    0.743517    0.492498
     15          6           0        4.210542    0.308302   -0.153572
     16          6           0        4.542876   -1.050379    0.464102
     17          6           0        5.848248   -1.639698   -0.071158
     18          1           0        4.146031    0.201809   -1.245105
     19          1           0        5.036793    1.005145    0.044204
     20          1           0        3.715627   -1.744060    0.266411
     21          1           0        4.606416   -0.940677    1.554307
     22          1           0        6.688230   -0.969861    0.139432
     23          1           0        5.792381   -1.777807   -1.155781
     24          1           0        6.066532   -2.610935    0.383715
     25          6           0        2.908399    0.910300    0.371547
     26          6           0        2.576065    2.268981   -0.246128
     27          6           0        1.270694    2.858300    0.289134
     28          1           0        2.082148    0.213457    0.173771
     29          1           0        2.972911    1.016794    1.463080
     30          1           0        2.512526    2.159280   -1.336331
     31          1           0        3.403313    2.962662   -0.048436
     32          1           0        1.326560    2.996410    1.373755
     33          1           0        0.430711    2.188462    0.078543
     34          1           0        1.052410    3.829537   -0.165741
 ---------------------------------------------------------------------

 SCF Done:  E(RHF) =  -669.535143901     A.U. after   15 cycles
 E2 =    -0.2092187624D+01 EUMP2 =    -0.67162733152471D+03

 The electronic state is 1-A.
 Alpha  occ. eigenvalues --  -20.60764 -20.60759 -15.85818 -11.31208 -11.27786
 Alpha  occ. eigenvalues --  -11.27778 -11.27531 -11.26809 -11.26798 -11.22216
 Alpha  occ. eigenvalues --  -11.22051 -11.21990 -11.21932 -11.21594 -11.21353
 Alpha  occ. eigenvalues --   -1.59839  -1.39391  -1.19389  -1.08991  -1.08776
 Alpha  occ. eigenvalues --   -1.04801  -1.04025  -0.96460  -0.95607  -0.87470
 Alpha  occ. eigenvalues --   -0.86192  -0.82442  -0.80085  -0.78810  -0.77481
 Alpha  occ. eigenvalues --   -0.72037  -0.71161  -0.70505  -0.65663  -0.65040
 Alpha  occ. eigenvalues --   -0.64811  -0.62218  -0.61375  -0.59819  -0.58065
 Alpha  occ. eigenvalues --   -0.55790  -0.55289  -0.53129  -0.53113  -0.53052
 Alpha  occ. eigenvalues --   -0.52701  -0.50385  -0.48800  -0.48790  -0.48388
 Alpha  occ. eigenvalues --   -0.47139  -0.46332  -0.46283  -0.44789  -0.44283
 Alpha  occ. eigenvalues --   -0.37363  -0.36380
 Alpha virt. eigenvalues --    0.05013   0.11163   0.16403   0.19230   0.22788
 Alpha virt. eigenvalues --    0.23654   0.25204   0.26165   0.26715   0.28531
 Alpha virt. eigenvalues --    0.29245   0.31039   0.31276   0.31518   0.31555

 Mulliken charges:
               1
     1  C   -0.171067
     2  C   -0.218368
     3  C   -0.170531
     4  C    0.158852
     5  C   -0.175500
     6  C   -0.220848
     7  H    0.225849
     8  H    0.223655
     9  H    0.275820
    10  H    0.281224
    11  H    0.225604
    12  N    0.487747
    13  O   -0.460019
    14  O   -0.460426
    15  C   -0.298764
    16  C   -0.298299
    17  C   -0.475939
    18  H    0.148015
    19  H    0.152912
    20  H    0.145027
    21  H    0.154409
    22  H    0.157558
    23  H    0.154862
    24  H    0.160833
    25  C   -0.300675
    26  C   -0.301634
    27  C   -0.477259
    28  H    0.142093
    29  H    0.153652
    30  H    0.149564
    31  H    0.155196
    32  H    0.159053
    33  H    0.150716
    34  H    0.166688
 Sum of Mulliken charges =  -0.00000

 Dipole moment (field-independent basis, Debye):
    X=              3.1518    Y=             -4.0919    Z=             -0.2798  Tot=              5.1726
 Quadrupole moment (field-independent basis, Debye-Ang):
   XX=           -110.5640   YY=            -90.8217   ZZ=            -94.2195
   XY=             14.8658   XZ=              0.0296   YZ=             -0.6059

 Normal termination of Gaussian 16 at Thu May  6 04:44:27 2021.
