 Gaussian 16, Revision A.03,
 Gaussian 16:  EM64L-G16RevA.03 25-Dec-2016

 -------------
 #p 6-31g* mp2
 -------------

 ------------------------------------------------------
 Input file generated by CHIRIPA (05-May-2021 14:57:25)
 ------------------------------------------------------
 Symbolic Z-matrix:
 Charge =  0 Multiplicity = 1

                         Standard orientation:
 ---------------------------------------------------------------------
 Center     Atomic      Atomic             Coordinates (Angstroms)
 Number     Number       Type             X           Y           Z
 ---------------------------------------------------------------------
      1          6           0       -5.551598    0.014793    0.968594
      2          6           0       -5.089135   -1.261734    0.632247
      3          6           0       -3.847278   -1.426282    0.011551
      4          6           0       -3.090504   -0.287353   -0.259419
      5          6           0       -3.523808    0.997680    0.063425
      6          6           0       -4.768838    1.138445    0.683612
      7          1           0       -6.517535    0.133380    1.450568
      8          1           0       -5.694899   -2.136171    0.852369
      9          1           0       -3.465025   -2.402880   -0.259662
     10          1           0       -2.897431    1.850450   -0.168639
     11          1           0       -5.125453    2.131033    0.943689
     12          7           0       -1.774126   -0.448963   -0.916252
     13          8           0       -1.126421    0.570402   -1.144310
     14          8           0       -1.414979   -1.591938   -1.190584
     15          6           0        1.762152    2.200870   -0.311171
     16          6           0        2.275319    1.446612   -1.371490
     17          6           0        3.132387    0.369461   -1.127094
     18          6           0        3.456854    0.073151    0.195861
     19          6           0        2.961837    0.805712    1.273638
     20          6           0        2.106442    1.878582    1.005687
     21          1           0        1.097010    3.035964   -0.510173
     22          1           0        2.009654    1.694612   -2.395191
     23          1           0        3.544014   -0.231160   -1.929113
     24          1           0        3.244750    0.534329    2.283455
     25          1           0        1.709414    2.462598    1.831119
     26          7           0        4.363308   -1.064914    0.467061
     27          8           0        4.633895   -1.305565    1.641585
     28          8           0        4.786037   -1.694729   -0.500032
 ---------------------------------------------------------------------

 SCF Done:  E(RHF) =  -868.338032116     A.U. after   16 cycles
 E2 =    -0.2600052767D+01 EUMP2 =    -0.87093808488232D+03

 The electronic state is 1-A.
 Alpha  occ. eigenvalues --  -20.61329 -20.61297 -20.59775 -20.59756 -15.86354
 Alpha  occ. eigenvalues --  -15.84816 -11.31658 -11.29952 -11.28263 -11.28177
 Alpha  occ. eigenvalues --  -11.27927 -11.27234 -11.27178 -11.26583 -11.26447
 Alpha  occ. eigenvalues --  -11.26221 -11.25573 -11.25386  -1.60377  -1.58847
 Alpha  occ. eigenvalues --   -1.39939  -1.38408  -1.19819  -1.18103  -1.09222
 Alpha  occ. eigenvalues --   -1.07538  -1.05214  -1.03493  -0.96074  -0.94419
 Alpha  occ. eigenvalues --   -0.86614  -0.84911  -0.82914  -0.81275  -0.77973
 Alpha  occ. eigenvalues --   -0.76353  -0.72601  -0.71690  -0.71048  -0.70926
 Alpha  occ. eigenvalues --   -0.70161  -0.69248  -0.65476  -0.65215  -0.63778
 Alpha  occ. eigenvalues --   -0.63531  -0.62569  -0.60878  -0.55707  -0.54025
 Alpha  occ. eigenvalues --   -0.53543  -0.53307  -0.51814  -0.51620  -0.49342
 Alpha  occ. eigenvalues --   -0.49303  -0.47809  -0.47783  -0.45355  -0.43867
 Alpha  occ. eigenvalues --   -0.37789  -0.36815  -0.35973  -0.35045
 Alpha virt. eigenvalues --    0.04548   0.06218   0.10841   0.12607   0.16060
 Alpha virt. eigenvalues --    0.17784   0.20955   0.22511   0.26845   0.27756
 Alpha virt. eigenvalues --    0.28433   0.29323   0.30631   0.31779   0.32491

 Mulliken charges:
               1
     1  C   -0.170471
     2  C   -0.218272
     3  C   -0.170289
     4  C    0.158869
     5  C   -0.170923
     6  C   -0.218266
     7  H    0.227070
     8  H    0.225562
     9  H    0.277789
    10  H    0.269930
    11  H    0.223275
    12  N    0.490620
    13  O   -0.468083
    14  O   -0.455634
    15  C   -0.155935
    16  C   -0.201992
    17  C   -0.169497
    18  C    0.157999
    19  C   -0.172791
    20  C   -0.221924
    21  H    0.220018
    22  H    0.223034
    23  H    0.273362
    24  H    0.270198
    25  H    0.215210
    26  N    0.488457
    27  O   -0.465405
    28  O   -0.461912
 Sum of Mulliken charges =  -0.00000

 Dipole moment (field-independent basis, Debye):
    X=             -8.1911    Y=              4.4847    Z=              1.1406  Tot=              9.4078
 Quadrupole moment (field-independent basis, Debye-Ang):
   XX=           -100.0831   YY=           -100.2773   ZZ=           -102.5651
   XY=             14.2366   XZ=            -11.1832   YZ=              0.8510

 Normal termination of Gaussian 16 at Thu May  6 06:45:07 2021.
