 Gaussian 16, Revision A.03,
 Gaussian 16:  EM64L-G16RevA.03 25-Dec-2016

 -------------
 #p 6-31g* mp2
 -------------

 ------------------------------------------------------
 Input file generated by CHIRIPA (05-May-2021 14:55:19)
 ------------------------------------------------------
 Symbolic Z-matrix:
 Charge =  0 Multiplicity = 1

                         Standard orientation:
 ---------------------------------------------------------------------
 Center     Atomic      Atomic             Coordinates (Angstroms)
 Number     Number       Type             X           Y           Z
 ---------------------------------------------------------------------
      1          6           0        5.157544    0.587769   -0.812369
      2          6           0        5.017993   -0.779292   -0.551232
      3          6           0        3.821271   -1.284951   -0.034790
      4          6           0        2.779863   -0.391105    0.209752
      5          6           0        2.888198    0.976081   -0.039959
      6          6           0        4.094075    1.459555   -0.556350
      7          1           0        6.090742    0.971960   -1.213533
      8          1           0        5.842217   -1.458669   -0.749084
      9          1           0        3.686144   -2.338739    0.176609
     10          1           0        2.048879    1.628697    0.167538
     11          1           0        4.199613    2.521708   -0.758185
     12          7           0        1.508100   -0.914681    0.756459
     13          8           0        0.605555   -0.106415    0.963231
     14          8           0        1.437920   -2.123411    0.967843
     15          6           0       -3.784926   -0.354879   -0.316293
     16          6           0       -5.146083   -1.051451   -0.321156
     17          6           0       -5.046442   -2.541508   -0.649174
     18          1           0       -3.310251   -0.484614   -1.298534
     19          1           0       -3.130443   -0.849268    0.414889
     20          1           0       -5.798254   -0.555020   -1.051120
     21          1           0       -5.617656   -0.919879    0.661148
     22          1           0       -4.417665   -3.056269    0.084489
     23          1           0       -4.599290   -2.689337   -1.637508
     24          1           0       -6.030906   -3.019719   -0.647240
     25          6           0       -3.868105    1.135203    0.009994
     26          6           0       -2.506947    1.831774    0.014858
     27          6           0       -2.606589    3.321831    0.342876
     28          1           0       -4.522587    1.629592   -0.721187
     29          1           0       -4.342780    1.264938    0.992236
     30          1           0       -2.035374    1.700203   -0.967447
     31          1           0       -1.854776    1.335343    0.744821
     32          1           0       -3.053740    3.469661    1.331210
     33          1           0       -3.235364    3.836592   -0.390788
     34          1           0       -1.622124    3.800043    0.340941
 ---------------------------------------------------------------------

 SCF Done:  E(RHF) =  -669.536037226     A.U. after   15 cycles
 E2 =    -0.2090956698D+01 EUMP2 =    -0.67162699392407D+03

 The electronic state is 1-A.
 Alpha  occ. eigenvalues --  -20.60912 -20.60905 -15.85954 -11.31275 -11.27839
 Alpha  occ. eigenvalues --  -11.27835 -11.27579 -11.26849 -11.26839 -11.20736
 Alpha  occ. eigenvalues --  -11.20447 -11.20393 -11.20335 -11.20276 -11.20261
 Alpha  occ. eigenvalues --   -1.59976  -1.39532  -1.19444  -1.08849  -1.07434
 Alpha  occ. eigenvalues --   -1.04842  -1.02614  -0.95691  -0.95101  -0.86242
 Alpha  occ. eigenvalues --   -0.86117  -0.82528  -0.78656  -0.77585  -0.77201
 Alpha  occ. eigenvalues --   -0.72180  -0.71291  -0.70554  -0.65102  -0.64845
 Alpha  occ. eigenvalues --   -0.64061  -0.62188  -0.60009  -0.58468  -0.56701
 Alpha  occ. eigenvalues --   -0.55347  -0.54394  -0.53174  -0.52934  -0.51829
 Alpha  occ. eigenvalues --   -0.51519  -0.49052  -0.48939  -0.48921  -0.46977
 Alpha  occ. eigenvalues --   -0.45658  -0.45009  -0.44766  -0.44577  -0.42858
 Alpha  occ. eigenvalues --   -0.37424  -0.36443
 Alpha virt. eigenvalues --    0.04953   0.11212   0.16447   0.21263   0.23806
 Alpha virt. eigenvalues --    0.24978   0.27185   0.27602   0.27839   0.28833
 Alpha virt. eigenvalues --    0.28908   0.30857   0.31942   0.32250   0.32738

 Mulliken charges:
               1
     1  C   -0.170639
     2  C   -0.218602
     3  C   -0.170689
     4  C    0.157622
     5  C   -0.170666
     6  C   -0.218570
     7  H    0.225924
     8  H    0.223731
     9  H    0.275795
    10  H    0.275969
    11  H    0.223830
    12  N    0.494735
    13  O   -0.466478
    14  O   -0.459611
    15  C   -0.299849
    16  C   -0.299048
    17  C   -0.475396
    18  H    0.146818
    19  H    0.162801
    20  H    0.148099
    21  H    0.150443
    22  H    0.158682
    23  H    0.153520
    24  H    0.156658
    25  C   -0.297633
    26  C   -0.307876
    27  C   -0.473959
    28  H    0.143901
    29  H    0.147530
    30  H    0.146018
    31  H    0.179094
    32  H    0.154093
    33  H    0.150845
    34  H    0.152908
 Sum of Mulliken charges =  -0.00000

 Dipole moment (field-independent basis, Debye):
    X=              4.7465    Y=              1.6962    Z=             -1.8112  Tot=              5.3560
 Quadrupole moment (field-independent basis, Debye-Ang):
   XX=            -70.7206   YY=            -93.8427   ZZ=            -95.5746
   XY=              1.6485   XZ=             -4.9268   YZ=              0.6504

 Normal termination of Gaussian 16 at Thu May  6 12:22:58 2021.
