 Gaussian 16, Revision A.03,
 Gaussian 16:  EM64L-G16RevA.03 25-Dec-2016

 -------------
 #p 6-31g* mp2
 -------------

 ------------------------------------------------------
 Input file generated by CHIRIPA (05-May-2021 14:53:12)
 ------------------------------------------------------
 Symbolic Z-matrix:
 Charge =  0 Multiplicity = 1

                         Standard orientation:
 ---------------------------------------------------------------------
 Center     Atomic      Atomic             Coordinates (Angstroms)
 Number     Number       Type             X           Y           Z
 ---------------------------------------------------------------------
      1          6           0       -3.285993   -0.483519   -0.576879
      2          6           0       -2.246489   -1.473260   -0.049784
      3          6           0       -1.181362   -1.821771   -1.089899
      4          1           0       -3.767316   -0.907395   -1.468845
      5          1           0       -2.776432    0.433823   -0.902802
      6          1           0       -2.758003   -2.387929    0.276330
      7          1           0       -1.767721   -1.047061    0.841142
      8          1           0       -0.645031   -0.922058   -1.408439
      9          1           0       -1.640940   -2.270545   -1.976461
     10          1           0       -0.448485   -2.530616   -0.692045
     11          6           0       -4.357472   -0.125333    0.451402
     12          6           0       -5.396976    0.864408   -0.075693
     13          6           0       -6.462103    1.212918    0.964422
     14          1           0       -4.867033   -1.042676    0.777324
     15          1           0       -3.876150    0.298543    1.343368
     16          1           0       -5.875745    0.438209   -0.966620
     17          1           0       -4.885463    1.779077   -0.401807
     18          1           0       -6.002526    1.661693    1.850983
     19          1           0       -6.998435    0.313206    1.282962
     20          1           0       -7.194981    1.921764    0.566568
     21          6           0        3.061152   -2.228347    0.576452
     22          6           0        2.412148   -1.779007   -0.578280
     23          6           0        2.364132   -0.414861   -0.880518
     24          6           0        2.978437    0.476254   -0.001976
     25          6           0        3.632739    0.059542    1.156268
     26          6           0        3.668306   -1.309259    1.438521
     27          1           0        3.093617   -3.289856    0.803475
     28          1           0        1.939756   -2.490507   -1.249590
     29          1           0        1.868473   -0.039662   -1.767629
     30          1           0        4.094499    0.792772    1.806322
     31          1           0        4.173043   -1.655358    2.336019
     32          7           0        2.934194    1.922879   -0.311363
     33          8           0        3.483116    2.687714    0.478794
     34          8           0        2.351433    2.264515   -1.338160
 ---------------------------------------------------------------------

 SCF Done:  E(RHF) =  -669.534371805     A.U. after   15 cycles
 E2 =    -0.2092334380D+01 EUMP2 =    -0.67162670618529D+03

 The electronic state is 1-A.
 Alpha  occ. eigenvalues --  -20.60778 -20.60772 -15.85830 -11.31182 -11.27729
 Alpha  occ. eigenvalues --  -11.27718 -11.27468 -11.26762 -11.26710 -11.21941
 Alpha  occ. eigenvalues --  -11.21636 -11.21611 -11.21543 -11.21450 -11.21062
 Alpha  occ. eigenvalues --   -1.59854  -1.39407  -1.19348  -1.08749  -1.08588
 Alpha  occ. eigenvalues --   -1.04755  -1.03734  -0.96215  -0.95584  -0.87256
 Alpha  occ. eigenvalues --   -0.86146  -0.82417  -0.79820  -0.78377  -0.77459
 Alpha  occ. eigenvalues --   -0.72048  -0.71177  -0.70459  -0.65220  -0.64993
 Alpha  occ. eigenvalues --   -0.64784  -0.62149  -0.61112  -0.59593  -0.57808
 Alpha  occ. eigenvalues --   -0.55523  -0.55239  -0.53314  -0.52977  -0.52696
 Alpha  occ. eigenvalues --   -0.52469  -0.50133  -0.48806  -0.48804  -0.48123
 Alpha  occ. eigenvalues --   -0.46819  -0.45929  -0.45825  -0.44815  -0.43988
 Alpha  occ. eigenvalues --   -0.37327  -0.36276
 Alpha virt. eigenvalues --    0.05049   0.11190   0.16517   0.20841   0.22811
 Alpha virt. eigenvalues --    0.24206   0.25895   0.26543   0.26975   0.27894
 Alpha virt. eigenvalues --    0.28958   0.29655   0.31381   0.31538   0.32253

 Mulliken charges:
               1
     1  C   -0.299944
     2  C   -0.299117
     3  C   -0.478403
     4  H    0.149427
     5  H    0.153980
     6  H    0.151481
     7  H    0.154548
     8  H    0.155521
     9  H    0.155206
    10  H    0.153320
    11  C   -0.298616
    12  C   -0.300222
    13  C   -0.475888
    14  H    0.148560
    15  H    0.150796
    16  H    0.151638
    17  H    0.154526
    18  H    0.155873
    19  H    0.154386
    20  H    0.161022
    21  C   -0.173188
    22  C   -0.213995
    23  C   -0.171325
    24  C    0.157794
    25  C   -0.171617
    26  C   -0.218076
    27  H    0.225323
    28  H    0.226074
    29  H    0.275357
    30  H    0.275355
    31  H    0.223306
    32  N    0.488068
    33  O   -0.460363
    34  O   -0.460804
 Sum of Mulliken charges =  -0.00000

 Dipole moment (field-independent basis, Debye):
    X=              0.0875    Y=             -5.0519    Z=              1.1114  Tot=              5.1735
 Quadrupole moment (field-independent basis, Debye-Ang):
   XX=            -93.3307   YY=            -99.7316   ZZ=            -91.9140
   XY=            -14.1448   XZ=              6.5117   YZ=              1.4252

 Normal termination of Gaussian 16 at Thu May  6 18:40:54 2021.
