 Gaussian 16, Revision A.03,
 Gaussian 16:  EM64L-G16RevA.03 25-Dec-2016

 -------------
 #p 6-31g* mp2
 -------------

 ------------------------------------------------------
 Input file generated by CHIRIPA (05-May-2021 14:51:08)
 ------------------------------------------------------
 Symbolic Z-matrix:
 Charge =  0 Multiplicity = 1

                         Standard orientation:
 ---------------------------------------------------------------------
 Center     Atomic      Atomic             Coordinates (Angstroms)
 Number     Number       Type             X           Y           Z
 ---------------------------------------------------------------------
      1          6           0       -3.897491   -0.327920    0.310057
      2          6           0       -5.005669   -1.115074   -0.390168
      3          6           0       -5.153449   -2.537223    0.151540
      4          1           0       -2.946354   -0.865827    0.196304
      5          1           0       -4.108573   -0.290683    1.387765
      6          1           0       -4.793282   -1.149633   -1.466418
      7          1           0       -5.954243   -0.575134   -0.274898
      8          1           0       -5.389350   -2.519716    1.220486
      9          1           0       -4.221793   -3.097479    0.022196
     10          1           0       -5.951144   -3.081966   -0.363046
     11          6           0       -3.737556    1.095683   -0.220509
     12          6           0       -2.629378    1.882837    0.479717
     13          6           0       -2.481598    3.304986   -0.061992
     14          1           0       -3.526474    1.058446   -1.298216
     15          1           0       -4.688693    1.633590   -0.106755
     16          1           0       -1.680804    1.342897    0.364447
     17          1           0       -2.841765    1.917396    1.555966
     18          1           0       -3.413254    3.865242    0.067352
     19          1           0       -2.245696    3.287479   -1.130937
     20          1           0       -1.683903    3.849729    0.452594
     21          6           0        3.116677   -0.212317   -0.295396
     22          6           0        2.040306   -1.174751    0.207724
     23          6           0        0.643589   -0.818424   -0.302184
     24          1           0        2.860598    0.809526    0.016381
     25          1           0        3.115126   -0.213494   -1.394210
     26          1           0        2.044819   -1.172800    1.305263
     27          1           0        2.299077   -2.194448   -0.105124
     28          1           0        0.616048   -0.839244   -1.396446
     29          1           0        0.360346    0.188209    0.021954
     30          1           0       -0.110403   -1.519257    0.069556
     31          6           0        4.518370   -0.555446    0.205848
     32          6           0        5.594741    0.406989   -0.297273
     33          6           0        6.991459    0.050661    0.212636
     34          1           0        4.519921   -0.554268    1.304662
     35          1           0        4.774449   -1.577289   -0.105928
     36          1           0        5.335970    1.426685    0.015575
     37          1           0        5.590227    0.405037   -1.394811
     38          1           0        7.274701   -0.955971   -0.111502
     39          1           0        7.018999    0.071482    1.306897
     40          1           0        7.745450    0.751494   -0.159104
 ---------------------------------------------------------------------

 SCF Done:  E(RHF) =  -470.733222125     A.U. after   11 cycles
 E2 =    -0.1582865654D+01 EUMP2 =    -0.47231608777868D+03

 The electronic state is 1-A.
 Alpha  occ. eigenvalues --  -11.21659 -11.21624 -11.21555 -11.21506 -11.21442
 Alpha  occ. eigenvalues --  -11.21382 -11.21337 -11.21277 -11.21156 -11.21088
 Alpha  occ. eigenvalues --  -11.21042 -11.21029  -1.08471  -1.08367  -1.03578
 Alpha  occ. eigenvalues --   -1.03476  -0.96031  -0.95929  -0.87054  -0.86943
 Alpha  occ. eigenvalues --   -0.79668  -0.79522  -0.78291  -0.78167  -0.65122
 Alpha  occ. eigenvalues --   -0.64984  -0.61048  -0.60819  -0.59398  -0.59301
 Alpha  occ. eigenvalues --   -0.57659  -0.57521  -0.55342  -0.55201  -0.52746
 Alpha  occ. eigenvalues --   -0.52617  -0.52481  -0.52335  -0.50058  -0.49819
 Alpha  occ. eigenvalues --   -0.48043  -0.47790  -0.46795  -0.46448  -0.45878
 Alpha  occ. eigenvalues --   -0.45762  -0.45691  -0.45510  -0.43811  -0.43724
 Alpha virt. eigenvalues --    0.21486   0.22966   0.23887   0.24261   0.25647
 Alpha virt. eigenvalues --    0.26609   0.27164   0.27320   0.27917   0.28953
 Alpha virt. eigenvalues --    0.29701   0.31603   0.31698   0.31864   0.32154

 Mulliken charges:
               1
     1  C   -0.301727
     2  C   -0.299527
     3  C   -0.475607
     4  H    0.153413
     5  H    0.149072
     6  H    0.151942
     7  H    0.151789
     8  H    0.155059
     9  H    0.154851
    10  H    0.160121
    11  C   -0.297169
    12  C   -0.308621
    13  C   -0.475237
    14  H    0.149495
    15  H    0.149237
    16  H    0.160975
    17  H    0.151282
    18  H    0.155064
    19  H    0.155158
    20  H    0.159403
    21  C   -0.298660
    22  C   -0.299544
    23  C   -0.482744
    24  H    0.149920
    25  H    0.149571
    26  H    0.152459
    27  H    0.152126
    28  H    0.155345
    29  H    0.160418
    30  H    0.161699
    31  C   -0.298325
    32  C   -0.299691
    33  C   -0.475735
    34  H    0.149670
    35  H    0.149729
    36  H    0.152036
    37  H    0.151958
    38  H    0.155207
    39  H    0.155244
    40  H    0.160346
 Sum of Mulliken charges =  -0.00000

 Dipole moment (field-independent basis, Debye):
    X=              0.0477    Y=             -0.0148    Z=             -0.0046  Tot=              0.0501
 Quadrupole moment (field-independent basis, Debye-Ang):
   XX=            -85.6025   YY=            -85.5372   ZZ=            -83.7940
   XY=             -0.3944   XZ=             -0.8069   YZ=              1.0606

 Normal termination of Gaussian 16 at Wed May  5 18:06:33 2021.
