 Gaussian 16, Revision A.03,
 Gaussian 16:  EM64L-G16RevA.03 25-Dec-2016

 -------------
 #p 6-31g* mp2
 -------------

 ------------------------------------------------------
 Input file generated by CHIRIPA (05-May-2021 14:55:25)
 ------------------------------------------------------
 Symbolic Z-matrix:
 Charge =  0 Multiplicity = 1

                         Standard orientation:
 ---------------------------------------------------------------------
 Center     Atomic      Atomic             Coordinates (Angstroms)
 Number     Number       Type             X           Y           Z
 ---------------------------------------------------------------------
      1          6           0        4.270932    1.238904   -0.283424
      2          6           0        3.188275    1.482377    0.568101
      3          6           0        2.219245    0.497999    0.783802
      4          6           0        2.364749   -0.723948    0.128847
      5          6           0        3.432000   -0.996745   -0.725463
      6          6           0        4.389131    0.002299   -0.926355
      7          1           0        5.019077    2.009289   -0.445233
      8          1           0        3.093915    2.441805    1.068741
      9          1           0        1.371005    0.659824    1.437805
     10          1           0        3.499028   -1.963006   -1.210505
     11          1           0        5.228880   -0.189580   -1.588208
     12          7           0        1.345178   -1.773829    0.349361
     13          8           0        1.496192   -2.842044   -0.239491
     14          8           0        0.414331   -1.508630    1.106877
     15          6           0       -3.910900    0.466602   -0.399555
     16          6           0       -4.381829   -0.859398    0.198725
     17          6           0       -5.721490   -1.323558   -0.373690
     18          1           0       -4.674728    1.235151   -0.218325
     19          1           0       -3.827514    0.359802   -1.489984
     20          1           0       -4.462973   -0.750535    1.287844
     21          1           0       -3.616705   -1.624834    0.016217
     22          1           0       -5.650725   -1.460037   -1.457649
     23          1           0       -6.501801   -0.580770   -0.178797
     24          1           0       -6.039276   -2.273275    0.067795
     25          6           0       -2.573033    0.943740    0.162744
     26          6           0       -2.102103    2.269739   -0.435535
     27          6           0       -0.762443    2.733900    0.136879
     28          1           0       -2.656419    1.050540    1.253172
     29          1           0       -1.809205    0.175191   -0.018486
     30          1           0       -2.867227    3.035175   -0.253028
     31          1           0       -2.020960    2.160877   -1.524655
     32          1           0        0.017868    1.991113   -0.058014
     33          1           0       -0.833208    2.870378    1.220838
     34          1           0       -0.444657    3.683617   -0.304606
 ---------------------------------------------------------------------

 SCF Done:  E(RHF) =  -669.535227871     A.U. after   15 cycles
 E2 =    -0.2093086013D+01 EUMP2 =    -0.67162831388396D+03

 The electronic state is 1-A.
 Alpha  occ. eigenvalues --  -20.60933 -20.60922 -15.85952 -11.31258 -11.27828
 Alpha  occ. eigenvalues --  -11.27776 -11.27555 -11.26827 -11.26803 -11.21361
 Alpha  occ. eigenvalues --  -11.21150 -11.20821 -11.20760 -11.20679 -11.20435
 Alpha  occ. eigenvalues --   -1.59989  -1.39544  -1.19437  -1.08837  -1.07885
 Alpha  occ. eigenvalues --   -1.04831  -1.03099  -0.95695  -0.95565  -0.86629
 Alpha  occ. eigenvalues --   -0.86215  -0.82509  -0.79177  -0.77706  -0.77483
 Alpha  occ. eigenvalues --   -0.72171  -0.71304  -0.70546  -0.65083  -0.64834
 Alpha  occ. eigenvalues --   -0.64510  -0.62198  -0.60500  -0.58959  -0.57169
 Alpha  occ. eigenvalues --   -0.55337  -0.54909  -0.53192  -0.52927  -0.52301
 Alpha  occ. eigenvalues --   -0.51941  -0.49534  -0.48936  -0.48929  -0.47476
 Alpha  occ. eigenvalues --   -0.46187  -0.45368  -0.45157  -0.44636  -0.43304
 Alpha  occ. eigenvalues --   -0.37413  -0.36362
 Alpha virt. eigenvalues --    0.04908   0.11162   0.16356   0.21157   0.23380
 Alpha virt. eigenvalues --    0.24543   0.26666   0.27279   0.27769   0.28427
 Alpha virt. eigenvalues --    0.29360   0.30908   0.31716   0.31969   0.32203

 Mulliken charges:
               1
     1  C   -0.170546
     2  C   -0.218217
     3  C   -0.173211
     4  C    0.157052
     5  C   -0.171042
     6  C   -0.218487
     7  H    0.226015
     8  H    0.225412
     9  H    0.280532
    10  H    0.275600
    11  H    0.223678
    12  N    0.488000
    13  O   -0.459314
    14  O   -0.459439
    15  C   -0.298199
    16  C   -0.300859
    17  C   -0.475599
    18  H    0.145881
    19  H    0.147525
    20  H    0.151672
    21  H    0.162370
    22  H    0.153816
    23  H    0.152113
    24  H    0.160356
    25  C   -0.304654
    26  C   -0.298065
    27  C   -0.483201
    28  H    0.148466
    29  H    0.165708
    30  H    0.150473
    31  H    0.151215
    32  H    0.156814
    33  H    0.151132
    34  H    0.157005
 Sum of Mulliken charges =  -0.00000

 Dipole moment (field-independent basis, Debye):
    X=              3.7288    Y=              3.5153    Z=             -0.7453  Tot=              5.1785
 Quadrupole moment (field-independent basis, Debye-Ang):
   XX=            -78.0662   YY=            -99.0408   ZZ=            -93.1983
   XY=              4.2428   XZ=             -3.9883   YZ=              3.4565

 Normal termination of Gaussian 16 at Thu May  6 16:05:43 2021.
