 Gaussian 16, Revision A.03,
 Gaussian 16:  EM64L-G16RevA.03 25-Dec-2016

 -------------
 #p 6-31g* mp2
 -------------

 ------------------------------------------------------
 Input file generated by CHIRIPA (05-May-2021 14:51:08)
 ------------------------------------------------------
 Symbolic Z-matrix:
 Charge =  0 Multiplicity = 1

                         Standard orientation:
 ---------------------------------------------------------------------
 Center     Atomic      Atomic             Coordinates (Angstroms)
 Number     Number       Type             X           Y           Z
 ---------------------------------------------------------------------
      1          6           0       -2.419649    0.863470   -0.024272
      2          6           0       -3.505520    1.754371    0.580017
      3          6           0       -2.964944    3.100982    1.061901
      4          1           0       -1.632126    0.697659    0.723565
      5          1           0       -1.947086    1.391632   -0.863988
      6          1           0       -3.976833    1.224132    1.417470
      7          1           0       -4.290643    1.917923   -0.169281
      8          1           0       -2.512081    3.653474    0.232282
      9          1           0       -2.196488    2.955741    1.828048
     10          1           0       -3.757962    3.721889    1.490220
     11          6           0       -2.944579   -0.486221   -0.510596
     12          6           0       -1.858708   -1.377123   -1.114885
     13          6           0       -2.399284   -2.723733   -1.596768
     14          1           0       -3.417142   -1.014384    0.329121
     15          1           0       -3.732102   -0.320411   -1.258432
     16          1           0       -1.073585   -1.540675   -0.365586
     17          1           0       -1.387395   -0.846884   -1.952337
     18          1           0       -3.167740   -2.578493   -2.362915
     19          1           0       -2.852147   -3.276226   -0.767149
     20          1           0       -1.606266   -3.344640   -2.025088
     21          6           0        2.987349    0.511378    0.251315
     22          6           0        3.477999    0.927140   -1.135908
     23          6           0        4.086045    2.329928   -1.152009
     24          1           0        2.243445    1.239073    0.603466
     25          1           0        3.827333    0.556056    0.958300
     26          1           0        2.637651    0.880360   -1.840354
     27          1           0        4.220681    0.198266   -1.484879
     28          1           0        4.941623    2.386778   -0.471306
     29          1           0        3.349598    3.072748   -0.828800
     30          1           0        4.430218    2.606833   -2.153372
     31          6           0        2.376879   -0.888626    0.283552
     32          6           0        1.886229   -1.304388    1.670777
     33          6           0        1.278182   -2.707177    1.686877
     34          1           0        1.536895   -0.933304   -0.423432
     35          1           0        3.120783   -1.616322   -0.068599
     36          1           0        1.143546   -0.575514    2.019746
     37          1           0        2.726576   -1.257608    2.375221
     38          1           0        2.014630   -3.449997    1.363668
     39          1           0        0.422605   -2.764026    1.006173
     40          1           0        0.934010   -2.984081    2.688240
 ---------------------------------------------------------------------

 SCF Done:  E(RHF) =  -470.733206177     A.U. after   11 cycles
 E2 =    -0.1583663269D+01 EUMP2 =    -0.47231686944594D+03

 The electronic state is 1-A.
 Alpha  occ. eigenvalues --  -11.21665 -11.21656 -11.21619 -11.21577 -11.21476
 Alpha  occ. eigenvalues --  -11.21415 -11.21369 -11.21307 -11.21123 -11.21119
 Alpha  occ. eigenvalues --  -11.21082 -11.21051  -1.08505  -1.08407  -1.03603
 Alpha  occ. eigenvalues --   -1.03516  -0.96038  -0.95969  -0.87052  -0.86988
 Alpha  occ. eigenvalues --   -0.79699  -0.79556  -0.78349  -0.78188  -0.65248
 Alpha  occ. eigenvalues --   -0.64946  -0.61151  -0.60790  -0.59427  -0.59312
 Alpha  occ. eigenvalues --   -0.57661  -0.57569  -0.55368  -0.55218  -0.52728
 Alpha  occ. eigenvalues --   -0.52670  -0.52462  -0.52397  -0.50027  -0.49879
 Alpha  occ. eigenvalues --   -0.48100  -0.47853  -0.46859  -0.46469  -0.46045
 Alpha  occ. eigenvalues --   -0.45796  -0.45705  -0.45382  -0.43843  -0.43770
 Alpha virt. eigenvalues --    0.19892   0.23275   0.23482   0.24292   0.25843
 Alpha virt. eigenvalues --    0.26397   0.26953   0.27903   0.28383   0.29617
 Alpha virt. eigenvalues --    0.30734   0.31460   0.31643   0.31759   0.31999

 Mulliken charges:
               1
     1  C   -0.299444
     2  C   -0.299679
     3  C   -0.475789
     4  H    0.149754
     5  H    0.149397
     6  H    0.152227
     7  H    0.152252
     8  H    0.155166
     9  H    0.155086
    10  H    0.160578
    11  C   -0.297539
    12  C   -0.310712
    13  C   -0.475629
    14  H    0.149854
    15  H    0.150053
    16  H    0.161445
    17  H    0.151945
    18  H    0.155611
    19  H    0.155500
    20  H    0.160810
    21  C   -0.298162
    22  C   -0.299609
    23  C   -0.475754
    24  H    0.149979
    25  H    0.149241
    26  H    0.152035
    27  H    0.151789
    28  H    0.155111
    29  H    0.155316
    30  H    0.160083
    31  C   -0.302694
    32  C   -0.300079
    33  C   -0.481491
    34  H    0.154443
    35  H    0.149362
    36  H    0.151472
    37  H    0.152273
    38  H    0.155701
    39  H    0.159938
    40  H    0.160161
 Sum of Mulliken charges =  -0.00000

 Dipole moment (field-independent basis, Debye):
    X=             -0.0313    Y=             -0.0078    Z=             -0.0148  Tot=              0.0355
 Quadrupole moment (field-independent basis, Debye-Ang):
   XX=            -84.1306   YY=            -86.4518   ZZ=            -84.0948
   XY=             -1.1530   XZ=              0.3463   YZ=             -0.6546

 Normal termination of Gaussian 16 at Wed May  5 21:17:18 2021.
