 Gaussian 16, Revision A.03,
 Gaussian 16:  EM64L-G16RevA.03 25-Dec-2016

 -------------
 #p 6-31g* mp2
 -------------

 ------------------------------------------------------
 Input file generated by CHIRIPA (05-May-2021 14:51:10)
 ------------------------------------------------------
 Symbolic Z-matrix:
 Charge =  0 Multiplicity = 1

                         Standard orientation:
 ---------------------------------------------------------------------
 Center     Atomic      Atomic             Coordinates (Angstroms)
 Number     Number       Type             X           Y           Z
 ---------------------------------------------------------------------
      1          6           0        3.470348   -0.065557    0.056664
      2          6           0        2.788407    1.213052   -0.431292
      3          6           0        1.276219    1.199570   -0.205684
      4          1           0        3.028842   -0.928966   -0.459615
      5          1           0        3.259509   -0.199843    1.126668
      6          1           0        3.001618    1.345617   -1.499741
      7          1           0        3.231720    2.073533    0.086069
      8          1           0        1.046556    1.091794    0.859324
      9          1           0        0.815147    0.359742   -0.735496
     10          1           0        0.808939    2.123001   -0.561753
     11          6           0        4.982270   -0.067103   -0.162008
     12          6           0        5.664211   -1.345712    0.325947
     13          6           0        7.176399   -1.332231    0.100339
     14          1           0        5.193109    0.067182   -1.232012
     15          1           0        5.423776    0.796305    0.354271
     16          1           0        5.220898   -2.206194   -0.191413
     17          1           0        5.451001   -1.478278    1.394396
     18          1           0        7.637471   -0.492402    0.630152
     19          1           0        7.406062   -1.224454   -0.964668
     20          1           0        7.643679   -2.255662    0.456408
     21          6           0       -3.867190    0.612971    0.447197
     22          6           0       -2.820427    1.365777   -0.374726
     23          6           0       -2.110562    2.456196    0.428313
     24          1           0       -4.607329    1.328689    0.830453
     25          1           0       -3.381317    0.165436    1.325282
     26          1           0       -3.307874    1.810598   -1.251735
     27          1           0       -2.082801    0.648157   -0.756229
     28          1           0       -1.598669    2.025055    1.294732
     29          1           0       -2.830702    3.194101    0.796410
     30          1           0       -1.366545    2.981647   -0.178482
     31          6           0       -4.585428   -0.480310   -0.341853
     32          6           0       -5.632191   -1.233116    0.480070
     33          6           0       -6.342056   -2.323535   -0.322968
     34          1           0       -5.071301   -0.032775   -1.219939
     35          1           0       -3.845289   -1.196028   -0.725108
     36          1           0       -6.369818   -0.515496    0.861573
     37          1           0       -5.144744   -1.677937    1.357080
     38          1           0       -5.621916   -3.061440   -0.691066
     39          1           0       -6.853950   -1.892395   -1.189388
     40          1           0       -7.086074   -2.848986    0.283827
 ---------------------------------------------------------------------

 SCF Done:  E(RHF) =  -470.732478436     A.U. after   11 cycles
 E2 =    -0.1582965855D+01 EUMP2 =    -0.47231544429143D+03

 The electronic state is 1-A.
 Alpha  occ. eigenvalues --  -11.21604 -11.21579 -11.21571 -11.21503 -11.21404
 Alpha  occ. eigenvalues --  -11.21355 -11.21345 -11.21292 -11.21073 -11.21049
 Alpha  occ. eigenvalues --  -11.21024 -11.20930  -1.08430  -1.08370  -1.03553
 Alpha  occ. eigenvalues --   -1.03438  -0.96051  -0.95845  -0.87090  -0.86842
 Alpha  occ. eigenvalues --   -0.79614  -0.79508  -0.78242  -0.78186  -0.65058
 Alpha  occ. eigenvalues --   -0.65003  -0.60928  -0.60872  -0.59624  -0.59080
 Alpha  occ. eigenvalues --   -0.57684  -0.57423  -0.55324  -0.55169  -0.52972
 Alpha  occ. eigenvalues --   -0.52444  -0.52403  -0.52140  -0.50040  -0.49731
 Alpha  occ. eigenvalues --   -0.48002  -0.47748  -0.46723  -0.46456  -0.45806
 Alpha  occ. eigenvalues --   -0.45721  -0.45703  -0.45618  -0.43909  -0.43552
 Alpha virt. eigenvalues --    0.21807   0.22978   0.23510   0.24897   0.26138
 Alpha virt. eigenvalues --    0.26370   0.27054   0.27440   0.27582   0.28781
 Alpha virt. eigenvalues --    0.29311   0.30479   0.31468   0.32199   0.32328

 Mulliken charges:
               1
     1  C   -0.298602
     2  C   -0.300729
     3  C   -0.476077
     4  H    0.149362
     5  H    0.149321
     6  H    0.151646
     7  H    0.151903
     8  H    0.155263
     9  H    0.154590
    10  H    0.163759
    11  C   -0.298203
    12  C   -0.299599
    13  C   -0.475694
    14  H    0.149519
    15  H    0.149677
    16  H    0.151861
    17  H    0.151872
    18  H    0.155198
    19  H    0.155187
    20  H    0.160233
    21  C   -0.298244
    22  C   -0.302486
    23  C   -0.474839
    24  H    0.149428
    25  H    0.149400
    26  H    0.151119
    27  H    0.155103
    28  H    0.156086
    29  H    0.153572
    30  H    0.160947
    31  C   -0.298174
    32  C   -0.299600
    33  C   -0.475665
    34  H    0.149386
    35  H    0.149394
    36  H    0.151887
    37  H    0.151862
    38  H    0.155077
    39  H    0.155118
    40  H    0.160141
 Sum of Mulliken charges =  -0.00000

 Dipole moment (field-independent basis, Debye):
    X=              0.0193    Y=              0.0095    Z=              0.0010  Tot=              0.0216
 Quadrupole moment (field-independent basis, Debye-Ang):
   XX=            -86.0810   YY=            -84.8881   ZZ=            -84.0693
   XY=             -0.7188   XZ=              0.1882   YZ=             -0.1878

 Normal termination of Gaussian 16 at Wed May  5 18:14:04 2021.
