 Gaussian 16, Revision A.03,
 Gaussian 16:  EM64L-G16RevA.03 25-Dec-2016

 -------------
 #p 6-31g* mp2
 -------------

 ------------------------------------------------------
 Input file generated by CHIRIPA (05-May-2021 14:55:25)
 ------------------------------------------------------
 Symbolic Z-matrix:
 Charge =  0 Multiplicity = 1

                         Standard orientation:
 ---------------------------------------------------------------------
 Center     Atomic      Atomic             Coordinates (Angstroms)
 Number     Number       Type             X           Y           Z
 ---------------------------------------------------------------------
      1          6           0       -3.094505    1.825871   -0.396865
      2          6           0       -3.519474    0.737732   -1.166200
      3          6           0       -3.037495   -0.548245   -0.904463
      4          6           0       -2.127410   -0.710651    0.138926
      5          6           0       -1.684971    0.353493    0.923230
      6          6           0       -2.180221    1.630623    0.643560
      7          1           0       -3.474073    2.821412   -0.607154
      8          1           0       -4.229441    0.886393   -1.974836
      9          1           0       -3.349698   -1.408289   -1.484353
     10          1           0       -0.976423    0.173993    1.722703
     11          1           0       -1.848424    2.473836    1.242682
     12          7           0       -1.610136   -2.067375    0.425507
     13          8           0       -0.809041   -2.184023    1.350319
     14          8           0       -2.015585   -2.988436   -0.280109
     15          6           0        3.487288    0.244407   -0.220582
     16          6           0        3.306950   -1.272752   -0.281345
     17          6           0        4.626407   -2.017090   -0.488190
     18          1           0        3.962194    0.588318   -1.149632
     19          1           0        4.180712    0.491857    0.595094
     20          1           0        2.612994   -1.517172   -1.095778
     21          1           0        2.832241   -1.613066    0.647878
     22          1           0        5.322106   -1.802398    0.329436
     23          1           0        5.101612   -1.705959   -1.424127
     24          1           0        4.474287   -3.100180   -0.528628
     25          6           0        2.177131    1.002433   -0.014153
     26          6           0        2.357470    2.519592    0.046609
     27          6           0        1.038012    3.263931    0.253453
     28          1           0        1.483706    0.754984   -0.829830
     29          1           0        1.702224    0.658523    0.914896
     30          1           0        2.832177    2.859907   -0.882614
     31          1           0        3.051424    2.764012    0.861042
     32          1           0        0.562807    2.952799    1.189391
     33          1           0        0.342313    3.049239   -0.564172
     34          1           0        1.190132    4.347021    0.293892
 ---------------------------------------------------------------------

 SCF Done:  E(RHF) =  -669.534700194     A.U. after   15 cycles
 E2 =    -0.2093440882D+01 EUMP2 =    -0.67162814107631D+03

 The electronic state is 1-A.
 Alpha  occ. eigenvalues --  -20.60767 -20.60761 -15.85813 -11.31161 -11.27708
 Alpha  occ. eigenvalues --  -11.27696 -11.27438 -11.26742 -11.26678 -11.21889
 Alpha  occ. eigenvalues --  -11.21660 -11.21451 -11.21222 -11.21105 -11.20641
 Alpha  occ. eigenvalues --   -1.59835  -1.39390  -1.19324  -1.08723  -1.08403
 Alpha  occ. eigenvalues --   -1.04727  -1.03505  -0.96010  -0.95561  -0.87059
 Alpha  occ. eigenvalues --   -0.86103  -0.82401  -0.79619  -0.78156  -0.77423
 Alpha  occ. eigenvalues --   -0.72033  -0.71152  -0.70430  -0.65050  -0.64967
 Alpha  occ. eigenvalues --   -0.64744  -0.62102  -0.60896  -0.59405  -0.57580
 Alpha  occ. eigenvalues --   -0.55329  -0.55219  -0.53145  -0.52957  -0.52663
 Alpha  occ. eigenvalues --   -0.52238  -0.49970  -0.48794  -0.48790  -0.47881
 Alpha  occ. eigenvalues --   -0.46632  -0.45713  -0.45574  -0.44771  -0.43752
 Alpha  occ. eigenvalues --   -0.37295  -0.36247
 Alpha virt. eigenvalues --    0.05057   0.11264   0.16524   0.20404   0.22923
 Alpha virt. eigenvalues --    0.24283   0.25384   0.26567   0.27130   0.28519
 Alpha virt. eigenvalues --    0.29259   0.30392   0.31385   0.31850   0.32130

 Mulliken charges:
               1
     1  C   -0.173888
     2  C   -0.218334
     3  C   -0.171915
     4  C    0.157701
     5  C   -0.169278
     6  C   -0.214743
     7  H    0.225671
     8  H    0.223146
     9  H    0.275202
    10  H    0.274801
    11  H    0.226802
    12  N    0.488460
    13  O   -0.461055
    14  O   -0.460465
    15  C   -0.298633
    16  C   -0.301607
    17  C   -0.476162
    18  H    0.148246
    19  H    0.148801
    20  H    0.152643
    21  H    0.162734
    22  H    0.153660
    23  H    0.152477
    24  H    0.163750
    25  C   -0.299633
    26  C   -0.299330
    27  C   -0.476911
    28  H    0.150609
    29  H    0.149043
    30  H    0.153478
    31  H    0.153033
    32  H    0.143826
    33  H    0.157933
    34  H    0.159936
 Sum of Mulliken charges =  -0.00000

 Dipole moment (field-independent basis, Debye):
    X=             -1.7879    Y=              4.6812    Z=             -1.0242  Tot=              5.1146
 Quadrupole moment (field-independent basis, Debye-Ang):
   XX=            -86.8333   YY=           -102.0411   ZZ=            -91.6959
   XY=             -7.5058   XZ=              4.6519   YZ=              2.6664

 Normal termination of Gaussian 16 at Thu May  6 01:38:01 2021.
