 Gaussian 16, Revision A.03,
 Gaussian 16:  EM64L-G16RevA.03 25-Dec-2016

 -------------
 #p 6-31g* mp2
 -------------

 ------------------------------------------------------
 Input file generated by CHIRIPA (05-May-2021 14:55:24)
 ------------------------------------------------------
 Symbolic Z-matrix:
 Charge =  0 Multiplicity = 1

                         Standard orientation:
 ---------------------------------------------------------------------
 Center     Atomic      Atomic             Coordinates (Angstroms)
 Number     Number       Type             X           Y           Z
 ---------------------------------------------------------------------
      1          6           0       -5.024270   -0.420470   -1.014075
      2          6           0       -4.445216   -1.545559   -0.417928
      3          6           0       -3.227740   -1.441706    0.261422
      4          6           0       -2.613972   -0.191717    0.325487
      5          6           0       -3.165718    0.947658   -0.258202
      6          6           0       -4.383802    0.820360   -0.932453
      7          1           0       -5.970270   -0.510252   -1.539830
      8          1           0       -4.940360   -2.510473   -0.479720
      9          1           0       -2.757238   -2.296460    0.731999
     10          1           0       -2.648407    1.896161   -0.179786
     11          1           0       -4.831174    1.695823   -1.394479
     12          7           0       -1.324763   -0.069362    1.041985
     13          8           0       -0.804063    1.043169    1.084227
     14          8           0       -0.859392   -1.088308    1.547767
     15          6           0        3.144482    0.792030   -0.562280
     16          6           0        2.969397    2.026550    0.322757
     17          6           0        2.019522    3.059384   -0.284522
     18          1           0        3.520604    1.104390   -1.546104
     19          1           0        2.162113    0.331095   -0.735154
     20          1           0        3.951976    2.484227    0.495048
     21          1           0        2.593830    1.711195    1.304651
     22          1           0        1.026848    2.624882   -0.440748
     23          1           0        2.392711    3.402306   -1.254952
     24          1           0        1.908875    3.933607    0.364593
     25          6           0        4.091227   -0.249613    0.031338
     26          6           0        4.266313   -1.484131   -0.853699
     27          6           0        5.216187   -2.516966   -0.246420
     28          1           0        5.073596    0.211322    0.204211
     29          1           0        3.715106   -0.561972    1.015162
     30          1           0        4.641880   -1.168778   -1.835594
     31          1           0        3.283733   -1.941809   -1.025989
     32          1           0        4.842998   -2.859888    0.724010
     33          1           0        6.208862   -2.082464   -0.090194
     34          1           0        5.326835   -3.391189   -0.895536
 ---------------------------------------------------------------------

 SCF Done:  E(RHF) =  -669.536427155     A.U. after   15 cycles
 E2 =    -0.2091304270D+01 EUMP2 =    -0.67162773142482D+03

 The electronic state is 1-A.
 Alpha  occ. eigenvalues --  -20.61046 -20.61038 -15.86067 -11.31347 -11.27906
 Alpha  occ. eigenvalues --  -11.27902 -11.27636 -11.26904 -11.26894 -11.20742
 Alpha  occ. eigenvalues --  -11.20337 -11.20311 -11.20227 -11.20161 -11.19716
 Alpha  occ. eigenvalues --   -1.60101  -1.39658  -1.19512  -1.08925  -1.07303
 Alpha  occ. eigenvalues --   -1.04902  -1.02419  -0.95774  -0.94891  -0.86304
 Alpha  occ. eigenvalues --   -0.85922  -0.82607  -0.78519  -0.77665  -0.77108
 Alpha  occ. eigenvalues --   -0.72294  -0.71413  -0.70621  -0.65170  -0.64905
 Alpha  occ. eigenvalues --   -0.63904  -0.62249  -0.59781  -0.58296  -0.56510
 Alpha  occ. eigenvalues --   -0.55408  -0.54154  -0.53235  -0.52992  -0.51623
 Alpha  occ. eigenvalues --   -0.51338  -0.49084  -0.49040  -0.48792  -0.46847
 Alpha  occ. eigenvalues --   -0.45551  -0.45076  -0.44638  -0.44491  -0.42689
 Alpha  occ. eigenvalues --   -0.37489  -0.36501
 Alpha virt. eigenvalues --    0.04826   0.11154   0.16303   0.21226   0.23981
 Alpha virt. eigenvalues --    0.25338   0.27080   0.27574   0.28151   0.28593
 Alpha virt. eigenvalues --    0.29149   0.30739   0.31879   0.32734   0.32798

 Mulliken charges:
               1
     1  C   -0.170440
     2  C   -0.218561
     3  C   -0.170739
     4  C    0.157777
     5  C   -0.170794
     6  C   -0.218526
     7  H    0.226248
     8  H    0.224015
     9  H    0.275846
    10  H    0.276183
    11  H    0.224204
    12  N    0.490389
    13  O   -0.462082
    14  O   -0.459217
    15  C   -0.297234
    16  C   -0.297813
    17  C   -0.478948
    18  H    0.142666
    19  H    0.153037
    20  H    0.144204
    21  H    0.165305
    22  H    0.167890
    23  H    0.144906
    24  H    0.155509
    25  C   -0.298835
    26  C   -0.298824
    27  C   -0.475370
    28  H    0.145536
    29  H    0.156376
    30  H    0.148193
    31  H    0.152412
    32  H    0.156761
    33  H    0.153273
    34  H    0.156654
 Sum of Mulliken charges =  -0.00000

 Dipole moment (field-independent basis, Debye):
    X=             -4.8876    Y=             -0.5152    Z=             -2.3623  Tot=              5.4530
 Quadrupole moment (field-independent basis, Debye-Ang):
   XX=            -72.4464   YY=            -90.9954   ZZ=            -96.9639
   XY=              2.8728   XZ=              5.3218   YZ=             -0.6897

 Normal termination of Gaussian 16 at Thu May  6 12:40:29 2021.
