 Gaussian 16, Revision A.03,
 Gaussian 16:  EM64L-G16RevA.03 25-Dec-2016

 -------------
 #p 6-31g* mp2
 -------------

 ------------------------------------------------------
 Input file generated by CHIRIPA (05-May-2021 14:55:19)
 ------------------------------------------------------
 Symbolic Z-matrix:
 Charge =  0 Multiplicity = 1

                         Standard orientation:
 ---------------------------------------------------------------------
 Center     Atomic      Atomic             Coordinates (Angstroms)
 Number     Number       Type             X           Y           Z
 ---------------------------------------------------------------------
      1          6           0       -1.157597   -1.809843    0.025874
      2          6           0       -1.101726   -0.525418   -0.525173
      3          6           0       -2.250519    0.268392   -0.593638
      4          6           0       -3.443792   -0.256172   -0.099451
      5          6           0       -3.531562   -1.532023    0.455338
      6          6           0       -2.370199   -2.308167    0.513511
      7          1           0       -0.260305   -2.419632    0.075062
      8          1           0       -0.161378   -0.135817   -0.904650
      9          1           0       -2.235592    1.266150   -1.015151
     10          1           0       -4.483441   -1.893040    0.825488
     11          1           0       -2.416559   -3.305312    0.941994
     12          7           0       -4.666622    0.574849   -0.166485
     13          8           0       -5.705661    0.089611    0.275759
     14          8           0       -4.562882    1.695704   -0.660000
     15          6           0        4.864430    0.369374   -0.121862
     16          6           0        5.275991   -1.098650   -0.005644
     17          6           0        6.707666   -1.350528   -0.479623
     18          1           0        4.968032    0.690969   -1.167227
     19          1           0        5.559697    0.985432    0.465055
     20          1           0        4.579330   -1.711896   -0.591484
     21          1           0        5.171214   -1.416841    1.039532
     22          1           0        7.418035   -0.763407    0.111365
     23          1           0        6.822789   -1.060140   -1.528919
     24          1           0        6.981057   -2.406318   -0.387839
     25          6           0        3.435744    0.637048    0.348175
     26          6           0        3.024184    2.105073    0.231956
     27          6           0        1.592508    2.356951    0.705936
     28          1           0        2.740476    0.020991   -0.238742
     29          1           0        3.332142    0.315454    1.393540
     30          1           0        3.128960    2.423264   -0.813219
     31          1           0        3.720843    2.718319    0.817798
     32          1           0        1.477385    2.066563    1.755232
     33          1           0        0.882139    1.769831    0.114949
     34          1           0        1.319117    3.412741    0.614152
 ---------------------------------------------------------------------

 SCF Done:  E(RHF) =  -669.535219909     A.U. after   15 cycles
 E2 =    -0.2091514101D+01 EUMP2 =    -0.67162673400960D+03

 The electronic state is 1-A.
 Alpha  occ. eigenvalues --  -20.60737 -20.60731 -15.85791 -11.31160 -11.27737
 Alpha  occ. eigenvalues --  -11.27731 -11.27474 -11.26750 -11.26733 -11.22329
 Alpha  occ. eigenvalues --  -11.22280 -11.22246 -11.22064 -11.21801 -11.21621
 Alpha  occ. eigenvalues --   -1.59812  -1.39365  -1.19337  -1.09173  -1.08729
 Alpha  occ. eigenvalues --   -1.04747  -1.04222  -0.96672  -0.95563  -0.87686
 Alpha  occ. eigenvalues --   -0.86142  -0.82402  -0.80286  -0.78998  -0.77445
 Alpha  occ. eigenvalues --   -0.72009  -0.71135  -0.70441  -0.65831  -0.64991
 Alpha  occ. eigenvalues --   -0.64759  -0.62168  -0.61562  -0.60030  -0.58280
 Alpha  occ. eigenvalues --   -0.55985  -0.55235  -0.53334  -0.53203  -0.53006
 Alpha  occ. eigenvalues --   -0.52802  -0.50611  -0.48779  -0.48763  -0.48579
 Alpha  occ. eigenvalues --   -0.47318  -0.46526  -0.46457  -0.44770  -0.44486
 Alpha  occ. eigenvalues --   -0.37312  -0.36328
 Alpha virt. eigenvalues --    0.05080   0.11273   0.16472   0.19204   0.22594
 Alpha virt. eigenvalues --    0.23693   0.25199   0.26487   0.26526   0.28424
 Alpha virt. eigenvalues --    0.28921   0.30238   0.31150   0.31407   0.31676

 Mulliken charges:
               1
     1  C   -0.171728
     2  C   -0.219469
     3  C   -0.171202
     4  C    0.158402
     5  C   -0.170834
     6  C   -0.218726
     7  H    0.225891
     8  H    0.226606
     9  H    0.275978
    10  H    0.275579
    11  H    0.223359
    12  N    0.488107
    13  O   -0.460607
    14  O   -0.460299
    15  C   -0.298630
    16  C   -0.299650
    17  C   -0.476035
    18  H    0.150951
    19  H    0.152663
    20  H    0.148491
    21  H    0.152384
    22  H    0.156971
    23  H    0.156234
    24  H    0.161242
    25  C   -0.297646
    26  C   -0.301126
    27  C   -0.477242
    28  H    0.138909
    29  H    0.151750
    30  H    0.152734
    31  H    0.156010
    32  H    0.159153
    33  H    0.146205
    34  H    0.165577
 Sum of Mulliken charges =  -0.00000

 Dipole moment (field-independent basis, Debye):
    X=              4.4663    Y=             -2.8655    Z=              0.3074  Tot=              5.3155
 Quadrupole moment (field-independent basis, Debye-Ang):
   XX=           -123.6981   YY=            -90.6617   ZZ=            -93.7488
   XY=             11.8780   XZ=             -1.7849   YZ=             -1.4775

 Normal termination of Gaussian 16 at Wed May  5 18:52:52 2021.
