 Gaussian 16, Revision A.03,
 Gaussian 16:  EM64L-G16RevA.03 25-Dec-2016

 -------------
 #p 6-31g* mp2
 -------------

 ------------------------------------------------------
 Input file generated by CHIRIPA (05-May-2021 14:51:08)
 ------------------------------------------------------
 Symbolic Z-matrix:
 Charge =  0 Multiplicity = 1

                         Standard orientation:
 ---------------------------------------------------------------------
 Center     Atomic      Atomic             Coordinates (Angstroms)
 Number     Number       Type             X           Y           Z
 ---------------------------------------------------------------------
      1          6           0        3.861149    0.420000    0.302240
      2          6           0        4.489120    1.679071   -0.296406
      3          6           0        5.299324    2.478353    0.724629
      4          1           0        3.214573    0.704884    1.143503
      5          1           0        4.655299   -0.214631    0.719332
      6          1           0        3.694148    2.310489   -0.713476
      7          1           0        5.134127    1.391173   -1.136463
      8          1           0        6.112228    1.869364    1.133190
      9          1           0        4.664067    2.793903    1.558581
     10          1           0        5.739291    3.374181    0.275429
     11          6           0        3.048016   -0.389651   -0.706229
     12          6           0        2.420046   -1.648722   -0.107583
     13          6           0        1.609841   -2.448004   -1.128618
     14          1           0        2.253867    0.244980   -1.123321
     15          1           0        3.694593   -0.674535   -1.547492
     16          1           0        1.775039   -1.360824    0.732474
     17          1           0        3.215018   -2.280140    0.309487
     18          1           0        2.245099   -2.763555   -1.962570
     19          1           0        0.796938   -1.839015   -1.537179
     20          1           0        1.169874   -3.343832   -0.679418
     21          6           0       -3.803045    0.424227   -0.316593
     22          6           0       -4.787717    1.420656    0.296216
     23          6           0       -5.476882    2.292556   -0.753848
     24          1           0       -3.046235    0.973684   -0.893030
     25          1           0       -4.337440   -0.215637   -1.032408
     26          1           0       -4.251905    2.057541    1.011687
     27          1           0       -5.542160    0.868774    0.871420
     28          1           0       -6.036154    1.672896   -1.462254
     29          1           0       -4.738568    2.868418   -1.321190
     30          1           0       -6.176412    2.997540   -0.293940
     31          6           0       -3.106120   -0.454575    0.720582
     32          6           0       -2.121448   -1.451004    0.107773
     33          6           0       -1.432284   -2.322905    1.157837
     34          1           0       -2.571726    0.185289    1.436397
     35          1           0       -3.862930   -1.004034    1.297019
     36          1           0       -1.367006   -0.899123   -0.467431
     37          1           0       -2.657261   -2.087890   -0.607698
     38          1           0       -2.170598   -2.898767    1.725178
     39          1           0       -0.873012   -1.703246    1.866242
     40          1           0       -0.732754   -3.027889    0.697930
 ---------------------------------------------------------------------

 SCF Done:  E(RHF) =  -470.732490207     A.U. after   11 cycles
 E2 =    -0.1583603718D+01 EUMP2 =    -0.47231609392489D+03

 The electronic state is 1-A.
 Alpha  occ. eigenvalues --  -11.21616 -11.21615 -11.21598 -11.21578 -11.21417
 Alpha  occ. eigenvalues --  -11.21416 -11.21357 -11.21357 -11.21084 -11.21083
 Alpha  occ. eigenvalues --  -11.21043 -11.21005  -1.08461  -1.08416  -1.03603
 Alpha  occ. eigenvalues --   -1.03464  -0.96082  -0.95887  -0.87061  -0.86943
 Alpha  occ. eigenvalues --   -0.79638  -0.79559  -0.78276  -0.78224  -0.65177
 Alpha  occ. eigenvalues --   -0.64982  -0.61189  -0.60731  -0.59655  -0.59113
 Alpha  occ. eigenvalues --   -0.57749  -0.57435  -0.55398  -0.55093  -0.52948
 Alpha  occ. eigenvalues --   -0.52541  -0.52465  -0.52172  -0.50008  -0.49841
 Alpha  occ. eigenvalues --   -0.48063  -0.47758  -0.46802  -0.46467  -0.45848
 Alpha  occ. eigenvalues --   -0.45766  -0.45732  -0.45621  -0.43894  -0.43662
 Alpha virt. eigenvalues --    0.20580   0.23220   0.23430   0.25365   0.25893
 Alpha virt. eigenvalues --    0.26441   0.26868   0.27180   0.28028   0.28938
 Alpha virt. eigenvalues --    0.29402   0.30905   0.31350   0.32199   0.32675

 Mulliken charges:
               1
     1  C   -0.298200
     2  C   -0.299633
     3  C   -0.475703
     4  H    0.149321
     5  H    0.149712
     6  H    0.151744
     7  H    0.152044
     8  H    0.155267
     9  H    0.155098
    10  H    0.160284
    11  C   -0.298164
    12  C   -0.302973
    13  C   -0.479319
    14  H    0.148695
    15  H    0.149797
    16  H    0.155674
    17  H    0.151891
    18  H    0.155098
    19  H    0.158614
    20  H    0.160842
    21  C   -0.298225
    22  C   -0.299627
    23  C   -0.475707
    24  H    0.149199
    25  H    0.149679
    26  H    0.151825
    27  H    0.152047
    28  H    0.155255
    29  H    0.155102
    30  H    0.160297
    31  C   -0.298167
    32  C   -0.301835
    33  C   -0.479916
    34  H    0.149113
    35  H    0.149835
    36  H    0.153438
    37  H    0.152111
    38  H    0.154582
    39  H    0.154357
    40  H    0.166545
 Sum of Mulliken charges =  -0.00000

 Dipole moment (field-independent basis, Debye):
    X=              0.0031    Y=             -0.0193    Z=             -0.0058  Tot=              0.0203
 Quadrupole moment (field-independent basis, Debye-Ang):
   XX=            -84.2603   YY=            -84.9600   ZZ=            -85.5698
   XY=              0.0672   XZ=             -0.8536   YZ=              0.2244

 Normal termination of Gaussian 16 at Wed May  5 15:03:43 2021.
