 Gaussian 16, Revision A.03,
 Gaussian 16:  EM64L-G16RevA.03 25-Dec-2016

 -------------
 #p 6-31g* mp2
 -------------

 ------------------------------------------------------
 Input file generated by CHIRIPA (05-May-2021 14:55:19)
 ------------------------------------------------------
 Symbolic Z-matrix:
 Charge =  0 Multiplicity = 1

                         Standard orientation:
 ---------------------------------------------------------------------
 Center     Atomic      Atomic             Coordinates (Angstroms)
 Number     Number       Type             X           Y           Z
 ---------------------------------------------------------------------
      1          6           0        4.457669    0.990672    0.669732
      2          6           0        4.393926    0.371959   -0.583126
      3          6           0        3.323703   -0.467284   -0.906916
      4          6           0        2.330116   -0.666493    0.050367
      5          6           0        2.365320   -0.064370    1.307148
      6          6           0        3.444947    0.770920    1.609214
      7          1           0        5.292697    1.641080    0.912823
      8          1           0        5.178994    0.540796   -1.314705
      9          1           0        3.249381   -0.958901   -1.869313
     10          1           0        1.567706   -0.251908    2.015709
     11          1           0        3.491833    1.250096    2.582989
     12          7           0        1.192140   -1.552869   -0.280917
     13          8           0        0.329470   -1.712134    0.579938
     14          8           0        1.184413   -2.071561   -1.395159
     15          6           0       -2.862405    1.289595   -0.389229
     16          6           0       -1.341568    1.136866   -0.430660
     17          6           0       -0.635083    2.392444   -0.942712
     18          1           0       -3.227710    1.532633   -1.396418
     19          1           0       -3.120811    2.143973    0.251599
     20          1           0       -1.086163    0.282181   -1.070112
     21          1           0       -0.979861    0.893974    0.576706
     22          1           0       -0.860789    3.250270   -0.301000
     23          1           0       -0.967695    2.635000   -1.957176
     24          1           0        0.451290    2.261320   -0.964124
     25          6           0       -3.582825    0.042647    0.120516
     26          6           0       -5.103661    0.195376    0.161947
     27          6           0       -5.810146   -1.060202    0.673998
     28          1           0       -3.324418   -0.811731   -0.520312
     29          1           0       -3.217520   -0.200392    1.127705
     30          1           0       -5.465369    0.438267   -0.845419
     31          1           0       -5.359067    1.050061    0.801399
     32          1           0       -5.477533   -1.302758    1.688462
     33          1           0       -5.584440   -1.918028    0.032287
     34          1           0       -6.896520   -0.929078    0.695411
 ---------------------------------------------------------------------

 SCF Done:  E(RHF) =  -669.535643807     A.U. after   15 cycles
 E2 =    -0.2093237300D+01 EUMP2 =    -0.67162888110692D+03

 The electronic state is 1-A.
 Alpha  occ. eigenvalues --  -20.60879 -20.60869 -15.85887 -11.31265 -11.27829
 Alpha  occ. eigenvalues --  -11.27822 -11.27561 -11.26836 -11.26826 -11.20889
 Alpha  occ. eigenvalues --  -11.20814 -11.20673 -11.20642 -11.20440 -11.20392
 Alpha  occ. eigenvalues --   -1.59933  -1.39489  -1.19430  -1.08824  -1.07670
 Alpha  occ. eigenvalues --   -1.04829  -1.02868  -0.95663  -0.95332  -0.86345
 Alpha  occ. eigenvalues --   -0.86227  -0.82500  -0.78932  -0.77588  -0.77418
 Alpha  occ. eigenvalues --   -0.72127  -0.71236  -0.70535  -0.65084  -0.64834
 Alpha  occ. eigenvalues --   -0.64304  -0.62179  -0.60268  -0.58704  -0.56942
 Alpha  occ. eigenvalues --   -0.55329  -0.54624  -0.53171  -0.52921  -0.52045
 Alpha  occ. eigenvalues --   -0.51736  -0.49281  -0.48900  -0.48887  -0.47277
 Alpha  occ. eigenvalues --   -0.45941  -0.45304  -0.44899  -0.44467  -0.43087
 Alpha  occ. eigenvalues --   -0.37397  -0.36426
 Alpha virt. eigenvalues --    0.04950   0.11179   0.16439   0.21265   0.23525
 Alpha virt. eigenvalues --    0.24711   0.26766   0.27556   0.27766   0.28328
 Alpha virt. eigenvalues --    0.28892   0.30802   0.31608   0.31953   0.32298

 Mulliken charges:
               1
     1  C   -0.170638
     2  C   -0.218512
     3  C   -0.171557
     4  C    0.159870
     5  C   -0.170965
     6  C   -0.218521
     7  H    0.225973
     8  H    0.223820
     9  H    0.275854
    10  H    0.275527
    11  H    0.223778
    12  N    0.488459
    13  O   -0.457014
    14  O   -0.460687
    15  C   -0.298343
    16  C   -0.305189
    17  C   -0.476779
    18  H    0.147506
    19  H    0.144543
    20  H    0.162353
    21  H    0.153626
    22  H    0.151207
    23  H    0.154561
    24  H    0.155221
    25  C   -0.297839
    26  C   -0.299513
    27  C   -0.475088
    28  H    0.158807
    29  H    0.152027
    30  H    0.149952
    31  H    0.148175
    32  H    0.154946
    33  H    0.157443
    34  H    0.156995
 Sum of Mulliken charges =  -0.00000

 Dipole moment (field-independent basis, Debye):
    X=              4.1310    Y=              2.9092    Z=              1.1846  Tot=              5.1896
 Quadrupole moment (field-independent basis, Debye-Ang):
   XX=            -76.7501   YY=           -100.5670   ZZ=            -89.8820
   XY=              4.2937   XZ=              1.3122   YZ=              1.0363

 Normal termination of Gaussian 16 at Thu May  6 06:07:31 2021.
