 Gaussian 16, Revision A.03,
 Gaussian 16:  EM64L-G16RevA.03 25-Dec-2016

 -------------
 #p 6-31g* mp2
 -------------

 ------------------------------------------------------
 Input file generated by CHIRIPA (05-May-2021 14:53:17)
 ------------------------------------------------------
 Symbolic Z-matrix:
 Charge =  0 Multiplicity = 1

                         Standard orientation:
 ---------------------------------------------------------------------
 Center     Atomic      Atomic             Coordinates (Angstroms)
 Number     Number       Type             X           Y           Z
 ---------------------------------------------------------------------
      1          6           0        3.774283   -0.632059   -0.071529
      2          6           0        4.807431   -1.517719   -0.768806
      3          6           0        4.595649   -3.005844   -0.488757
      4          1           0        3.817071   -0.812567    1.011306
      5          1           0        2.767749   -0.927975   -0.398207
      6          1           0        5.811790   -1.219304   -0.441963
      7          1           0        4.762310   -1.334942   -1.850089
      8          1           0        3.606007   -3.325241   -0.831096
      9          1           0        4.661451   -3.208947    0.585031
     10          1           0        5.345140   -3.620617   -0.996869
     11          6           0        3.972828    0.858313   -0.341897
     12          6           0        2.939679    1.743974    0.355380
     13          6           0        3.151461    3.232098    0.075331
     14          1           0        4.979361    1.154229   -0.015219
     15          1           0        3.930039    1.038821   -1.424731
     16          1           0        2.984800    1.561196    1.436663
     17          1           0        1.935320    1.445559    0.028537
     18          1           0        3.085660    3.435201   -0.998457
     19          1           0        4.141103    3.551496    0.417670
     20          1           0        2.401971    3.846871    0.583443
     21          6           0       -1.381970   -0.144641    2.074403
     22          6           0       -1.157284    0.700671    0.982852
     23          6           0       -2.061588    0.740066   -0.082619
     24          6           0       -3.185175   -0.082941   -0.023438
     25          6           0       -3.436810   -0.935784    1.050167
     26          6           0       -2.519012   -0.958736    2.104523
     27          1           0       -0.674244   -0.168858    2.897769
     28          1           0       -0.275100    1.334009    0.956762
     29          1           0       -1.912151    1.385093   -0.939957
     30          1           0       -4.325255   -1.555525    1.047745
     31          1           0       -2.696076   -1.616201    2.950948
     32          7           0       -4.149664   -0.049940   -1.145522
     33          8           0       -5.131911   -0.784805   -1.069382
     34          8           0       -3.905120    0.710169   -2.079905
 ---------------------------------------------------------------------

 SCF Done:  E(RHF) =  -669.535601568     A.U. after   15 cycles
 E2 =    -0.2091070063D+01 EUMP2 =    -0.67162667163045D+03

 The electronic state is 1-A.
 Alpha  occ. eigenvalues --  -20.60745 -20.60740 -15.85798 -11.31157 -11.27728
 Alpha  occ. eigenvalues --  -11.27719 -11.27458 -11.26739 -11.26689 -11.22587
 Alpha  occ. eigenvalues --  -11.22088 -11.22063 -11.21967 -11.21871 -11.21462
 Alpha  occ. eigenvalues --   -1.59821  -1.39375  -1.19327  -1.09107  -1.08720
 Alpha  occ. eigenvalues --   -1.04730  -1.04195  -0.96609  -0.95558  -0.87626
 Alpha  occ. eigenvalues --   -0.86127  -0.82394  -0.80298  -0.78913  -0.77438
 Alpha  occ. eigenvalues --   -0.72016  -0.71144  -0.70433  -0.65752  -0.64977
 Alpha  occ. eigenvalues --   -0.64732  -0.62120  -0.61555  -0.59999  -0.58231
 Alpha  occ. eigenvalues --   -0.55877  -0.55225  -0.53322  -0.53065  -0.53034
 Alpha  occ. eigenvalues --   -0.52822  -0.50541  -0.48795  -0.48772  -0.48561
 Alpha  occ. eigenvalues --   -0.47319  -0.46439  -0.46347  -0.44782  -0.44438
 Alpha  occ. eigenvalues --   -0.37304  -0.36330
 Alpha virt. eigenvalues --    0.05089   0.11273   0.16541   0.20225   0.22512
 Alpha virt. eigenvalues --    0.23662   0.25435   0.26198   0.27226   0.28238
 Alpha virt. eigenvalues --    0.28670   0.30166   0.30860   0.31375   0.31985

 Mulliken charges:
               1
     1  C   -0.299402
     2  C   -0.300179
     3  C   -0.476227
     4  H    0.147501
     5  H    0.150612
     6  H    0.152735
     7  H    0.154056
     8  H    0.156467
     9  H    0.154290
    10  H    0.162230
    11  C   -0.297767
    12  C   -0.305612
    13  C   -0.476465
    14  H    0.152164
    15  H    0.152990
    16  H    0.149569
    17  H    0.146869
    18  H    0.159037
    19  H    0.159200
    20  H    0.158372
    21  C   -0.171998
    22  C   -0.224260
    23  C   -0.172990
    24  C    0.158674
    25  C   -0.171097
    26  C   -0.218547
    27  H    0.226023
    28  H    0.232832
    29  H    0.275243
    30  H    0.275478
    31  H    0.223261
    32  N    0.488103
    33  O   -0.460561
    34  O   -0.460599
 Sum of Mulliken charges =  -0.00000

 Dipole moment (field-independent basis, Debye):
    X=              3.5833    Y=             -0.1316    Z=              3.9063  Tot=              5.3025
 Quadrupole moment (field-independent basis, Debye-Ang):
   XX=           -114.3529   YY=            -93.8686   ZZ=            -93.7160
   XY=              2.4509   XZ=            -13.9911   YZ=             -2.0647

 Normal termination of Gaussian 16 at Wed May  5 17:14:48 2021.
