 Gaussian 16, Revision A.03,
 Gaussian 16:  EM64L-G16RevA.03 25-Dec-2016

 -------------
 #p 6-31g* mp2
 -------------

 ------------------------------------------------------
 Input file generated by CHIRIPA (05-May-2021 14:53:17)
 ------------------------------------------------------
 Symbolic Z-matrix:
 Charge =  0 Multiplicity = 1

                         Standard orientation:
 ---------------------------------------------------------------------
 Center     Atomic      Atomic             Coordinates (Angstroms)
 Number     Number       Type             X           Y           Z
 ---------------------------------------------------------------------
      1          6           0        3.060768   -0.082478    0.588103
      2          6           0        3.848558   -1.336632    0.208010
      3          6           0        3.789049   -2.420941    1.284358
      4          1           0        3.452238    0.316033    1.534087
      5          1           0        2.013590   -0.358211    0.774607
      6          1           0        4.893642   -1.058392    0.020931
      7          1           0        3.455294   -1.732094   -0.737277
      8          1           0        2.753710   -2.726984    1.466050
      9          1           0        4.200230   -2.049454    2.228566
     10          1           0        4.358853   -3.308487    0.992045
     11          6           0        3.110740    1.010590   -0.477934
     12          6           0        2.322950    2.264744   -0.097842
     13          6           0        2.382459    3.349053   -1.174190
     14          1           0        4.157918    1.286323   -0.664438
     15          1           0        2.719270    0.612079   -1.423918
     16          1           0        2.716214    2.660206    0.847446
     17          1           0        1.277866    1.986504    0.089237
     18          1           0        1.971278    2.977566   -2.118398
     19          1           0        3.417798    3.655096   -1.355881
     20          1           0        1.812655    4.236599   -0.881876
     21          6           0       -3.945450    1.124941    1.297859
     22          6           0       -2.646793    0.869545    1.750390
     23          6           0       -1.787787    0.046911    1.015593
     24          6           0       -2.262376   -0.506348   -0.172667
     25          6           0       -3.550826   -0.270787   -0.649845
     26          6           0       -4.392533    0.554964    0.101295
     27          1           0       -4.606028    1.765194    1.875015
     28          1           0       -2.296887    1.310844    2.679296
     29          1           0       -0.777615   -0.167481    1.342713
     30          1           0       -3.871223   -0.724947   -1.579631
     31          1           0       -5.400584    0.751560   -0.252579
     32          7           0       -1.362141   -1.378885   -0.959215
     33          8           0       -1.804238   -1.854275   -2.002858
     34          8           0       -0.231486   -1.570866   -0.517175
 ---------------------------------------------------------------------

 SCF Done:  E(RHF) =  -669.536363807     A.U. after   15 cycles
 E2 =    -0.2092107427D+01 EUMP2 =    -0.67162847123344D+03

 The electronic state is 1-A.
 Alpha  occ. eigenvalues --  -20.60998 -20.60986 -15.86030 -11.31327 -11.27884
 Alpha  occ. eigenvalues --  -11.27879 -11.27610 -11.26888 -11.26877 -11.21291
 Alpha  occ. eigenvalues --  -11.20807 -11.20733 -11.20684 -11.20554 -11.20235
 Alpha  occ. eigenvalues --   -1.60057  -1.39614  -1.19490  -1.08898  -1.07757
 Alpha  occ. eigenvalues --   -1.04882  -1.02907  -0.95746  -0.95357  -0.86387
 Alpha  occ. eigenvalues --   -0.86284  -0.82581  -0.79007  -0.77723  -0.77481
 Alpha  occ. eigenvalues --   -0.72262  -0.71370  -0.70597  -0.65156  -0.64890
 Alpha  occ. eigenvalues --   -0.64333  -0.62228  -0.60280  -0.58764  -0.56979
 Alpha  occ. eigenvalues --   -0.55385  -0.54623  -0.53213  -0.52974  -0.52101
 Alpha  occ. eigenvalues --   -0.51801  -0.49325  -0.49007  -0.48990  -0.47328
 Alpha  occ. eigenvalues --   -0.46025  -0.45198  -0.45027  -0.44843  -0.43146
 Alpha  occ. eigenvalues --   -0.37465  -0.36477
 Alpha virt. eigenvalues --    0.04862   0.11118   0.16378   0.20561   0.23235
 Alpha virt. eigenvalues --    0.24789   0.25236   0.27505   0.27795   0.28566
 Alpha virt. eigenvalues --    0.29352   0.31179   0.31801   0.32247   0.32448

 Mulliken charges:
               1
     1  C   -0.306221
     2  C   -0.298548
     3  C   -0.477162
     4  H    0.141261
     5  H    0.164051
     6  H    0.146672
     7  H    0.163016
     8  H    0.161307
     9  H    0.148827
    10  H    0.158533
    11  C   -0.298062
    12  C   -0.299184
    13  C   -0.475266
    14  H    0.146782
    15  H    0.157531
    16  H    0.148183
    17  H    0.146257
    18  H    0.157132
    19  H    0.155263
    20  H    0.156332
    21  C   -0.170296
    22  C   -0.219881
    23  C   -0.172195
    24  C    0.156766
    25  C   -0.170497
    26  C   -0.218536
    27  H    0.226229
    28  H    0.224813
    29  H    0.280272
    30  H    0.275847
    31  H    0.223986
    32  N    0.491593
    33  O   -0.458708
    34  O   -0.466098
 Sum of Mulliken charges =  -0.00000

 Dipole moment (field-independent basis, Debye):
    X=             -3.3831    Y=              2.9262    Z=              2.6365  Tot=              5.1922
 Quadrupole moment (field-independent basis, Debye-Ang):
   XX=            -77.8732   YY=            -99.4972   ZZ=            -94.1204
   XY=             -4.8740   XZ=             -3.1945   YZ=             -0.4496

 Normal termination of Gaussian 16 at Thu May  6 15:36:48 2021.
