 Gaussian 16, Revision A.03,
 Gaussian 16:  EM64L-G16RevA.03 25-Dec-2016

 -------------
 #p 6-31g* mp2
 -------------

 ------------------------------------------------------
 Input file generated by CHIRIPA (05-May-2021 14:53:13)
 ------------------------------------------------------
 Symbolic Z-matrix:
 Charge =  0 Multiplicity = 1

                         Standard orientation:
 ---------------------------------------------------------------------
 Center     Atomic      Atomic             Coordinates (Angstroms)
 Number     Number       Type             X           Y           Z
 ---------------------------------------------------------------------
      1          6           0        3.062065   -0.710740   -0.421017
      2          6           0        2.041622   -1.655900    0.214085
      3          6           0        0.871693   -1.974910   -0.717201
      4          1           0        2.558037    0.221234   -0.711407
      5          1           0        3.442471   -1.162225   -1.347758
      6          1           0        1.664278   -1.203385    1.140075
      7          1           0        2.548177   -2.585657    0.503170
      8          1           0        1.229540   -2.449227   -1.636750
      9          1           0        0.340618   -1.059102   -0.996226
     10          1           0        0.154319   -2.652056   -0.243168
     11          6           0        4.237551   -0.382415    0.497765
     12          6           0        5.257994    0.562745   -0.137337
     13          6           0        6.427923    0.881755    0.793948
     14          1           0        3.857145    0.069070    1.424506
     15          1           0        4.741579   -1.314389    0.788155
     16          1           0        4.751439    1.492502   -0.426423
     17          1           0        5.635338    0.110230   -1.063327
     18          1           0        6.958998   -0.034053    1.072974
     19          1           0        6.070076    1.356072    1.713497
     20          1           0        7.145297    1.558901    0.319916
     21          6           0       -4.188252   -1.611339    0.621096
     22          6           0       -4.311930   -0.428556    1.357473
     23          6           0       -3.576109    0.706982    1.005807
     24          6           0       -2.722172    0.624074   -0.092923
     25          6           0       -2.577168   -0.539781   -0.846385
     26          6           0       -3.322791   -1.663086   -0.476546
     27          1           0       -4.763664   -2.488701    0.901337
     28          1           0       -4.983287   -0.385470    2.210390
     29          1           0       -3.652638    1.635518    1.558420
     30          1           0       -1.899794   -0.552178   -1.691625
     31          1           0       -3.224726   -2.580302   -1.050256
     32          7           0       -1.938001    1.819741   -0.474835
     33          8           0       -1.192547    1.720905   -1.447032
     34          8           0       -2.083671    2.833102    0.205252
 ---------------------------------------------------------------------

 SCF Done:  E(RHF) =  -669.535434138     A.U. after   15 cycles
 E2 =    -0.2092073340D+01 EUMP2 =    -0.67162750747722D+03

 The electronic state is 1-A.
 Alpha  occ. eigenvalues --  -20.60878 -20.60873 -15.85911 -11.31199 -11.27785
 Alpha  occ. eigenvalues --  -11.27753 -11.27520 -11.26776 -11.26756 -11.21468
 Alpha  occ. eigenvalues --  -11.21229 -11.21080 -11.21064 -11.20994 -11.20751
 Alpha  occ. eigenvalues --   -1.59941  -1.39498  -1.19383  -1.08790  -1.08137
 Alpha  occ. eigenvalues --   -1.04777  -1.03303  -0.95787  -0.95620  -0.86812
 Alpha  occ. eigenvalues --   -0.86173  -0.82466  -0.79384  -0.77933  -0.77515
 Alpha  occ. eigenvalues --   -0.72131  -0.71257  -0.70506  -0.65036  -0.64842
 Alpha  occ. eigenvalues --   -0.64710  -0.62160  -0.60682  -0.59143  -0.57368
 Alpha  occ. eigenvalues --   -0.55337  -0.55028  -0.53141  -0.52901  -0.52451
 Alpha  occ. eigenvalues --   -0.52158  -0.49690  -0.48893  -0.48882  -0.47685
 Alpha  occ. eigenvalues --   -0.46386  -0.45487  -0.45387  -0.44872  -0.43548
 Alpha  occ. eigenvalues --   -0.37363  -0.36331
 Alpha virt. eigenvalues --    0.04985   0.11210   0.16452   0.21205   0.23195
 Alpha virt. eigenvalues --    0.24515   0.26367   0.27062   0.27624   0.28121
 Alpha virt. eigenvalues --    0.29012   0.29934   0.31579   0.31833   0.32262

 Mulliken charges:
               1
     1  C   -0.301412
     2  C   -0.297945
     3  C   -0.484780
     4  H    0.160626
     5  H    0.148062
     6  H    0.152312
     7  H    0.149976
     8  H    0.153836
     9  H    0.162943
    10  H    0.153989
    11  C   -0.298257
    12  C   -0.300248
    13  C   -0.475650
    14  H    0.150008
    15  H    0.147239
    16  H    0.156125
    17  H    0.151011
    18  H    0.153538
    19  H    0.155416
    20  H    0.160154
    21  C   -0.170706
    22  C   -0.218784
    23  C   -0.170892
    24  C    0.157372
    25  C   -0.167194
    26  C   -0.219970
    27  H    0.225692
    28  H    0.223380
    29  H    0.275426
    30  H    0.277670
    31  H    0.224210
    32  N    0.488719
    33  O   -0.462390
    34  O   -0.459474
 Sum of Mulliken charges =  -0.00000

 Dipole moment (field-independent basis, Debye):
    X=             -2.8049    Y=             -4.1019    Z=              1.3296  Tot=              5.1440
 Quadrupole moment (field-independent basis, Debye-Ang):
   XX=            -80.1514   YY=            -98.9480   ZZ=            -92.7159
   XY=              8.3118   XZ=             -6.0860   YZ=              3.5631

 Normal termination of Gaussian 16 at Thu May  6 05:45:55 2021.
