 Gaussian 16, Revision A.03,
 Gaussian 16:  EM64L-G16RevA.03 25-Dec-2016

 -------------
 #p 6-31g* mp2
 -------------

 ------------------------------------------------------
 Input file generated by CHIRIPA (05-May-2021 14:57:27)
 ------------------------------------------------------
 Symbolic Z-matrix:
 Charge =  0 Multiplicity = 1

                         Standard orientation:
 ---------------------------------------------------------------------
 Center     Atomic      Atomic             Coordinates (Angstroms)
 Number     Number       Type             X           Y           Z
 ---------------------------------------------------------------------
      1          6           0        2.887536   -2.135225    0.994405
      2          6           0        1.728777   -1.927292    0.239050
      3          6           0        1.536151   -0.725914   -0.449524
      4          6           0        2.527219    0.250367   -0.360367
      5          6           0        3.692520    0.073081    0.383898
      6          6           0        3.863988   -1.136137    1.064295
      7          1           0        3.028954   -3.071530    1.526130
      8          1           0        0.968767   -2.701427    0.182967
      9          1           0        0.648608   -0.538571   -1.041630
     10          1           0        4.432394    0.863426    0.420778
     11          1           0        4.764895   -1.294857    1.650145
     12          7           0        2.334494    1.526362   -1.085001
     13          8           0        3.222604    2.370723   -0.990390
     14          8           0        1.298975    1.657965   -1.733860
     15          6           0       -2.169873    1.535989    2.172405
     16          6           0       -3.069140    1.880592    1.157965
     17          6           0       -3.292580    1.015071    0.083026
     18          6           0       -2.596600   -0.192435    0.054212
     19          6           0       -1.694273   -0.564151    1.049663
     20          6           0       -1.486514    0.316866    2.115117
     21          1           0       -2.002390    2.214366    3.003759
     22          1           0       -3.601245    2.826719    1.199841
     23          1           0       -3.983146    1.256810   -0.715785
     24          1           0       -1.178592   -1.514251    0.980375
     25          1           0       -0.787543    0.046618    2.901533
     26          7           0       -2.824845   -1.116927   -1.078757
     27          8           0       -2.199233   -2.174870   -1.080888
     28          8           0       -3.625034   -0.766095   -1.943195
 ---------------------------------------------------------------------

 SCF Done:  E(RHF) =  -868.338045062     A.U. after   16 cycles
 E2 =    -0.2602295211D+01 EUMP2 =    -0.87094034027323D+03

 The electronic state is 1-A.
 Alpha  occ. eigenvalues --  -20.61235 -20.61172 -20.60839 -20.60821 -15.86226
 Alpha  occ. eigenvalues --  -15.85885 -11.31384 -11.31259 -11.28003 -11.27889
 Alpha  occ. eigenvalues --  -11.27865 -11.27788 -11.27628 -11.27603 -11.26922
 Alpha  occ. eigenvalues --  -11.26887 -11.26832 -11.26796  -1.60259  -1.59909
 Alpha  occ. eigenvalues --   -1.39827  -1.39460  -1.19547  -1.19452  -1.08961
 Alpha  occ. eigenvalues --   -1.08855  -1.04991  -1.04785  -0.95843  -0.95674
 Alpha  occ. eigenvalues --   -0.86336  -0.86253  -0.82680  -0.82506  -0.77832
 Alpha  occ. eigenvalues --   -0.77484  -0.72451  -0.72106  -0.71580  -0.71235
 Alpha  occ. eigenvalues --   -0.70701  -0.70514  -0.65194  -0.65145  -0.64944
 Alpha  occ. eigenvalues --   -0.64796  -0.62479  -0.61970  -0.55436  -0.55346
 Alpha  occ. eigenvalues --   -0.53456  -0.53169  -0.52909  -0.52823  -0.49238
 Alpha  occ. eigenvalues --   -0.49169  -0.48867  -0.48854  -0.45261  -0.44861
 Alpha  occ. eigenvalues --   -0.37508  -0.37478  -0.36932  -0.35958
 Alpha virt. eigenvalues --    0.04576   0.05143   0.10894   0.11319   0.16178
 Alpha virt. eigenvalues --    0.16459   0.20526   0.21877   0.25791   0.27530
 Alpha virt. eigenvalues --    0.28132   0.28574   0.30311   0.31510   0.32093

 Mulliken charges:
               1
     1  C   -0.171947
     2  C   -0.233578
     3  C   -0.168635
     4  C    0.156887
     5  C   -0.171410
     6  C   -0.219965
     7  H    0.226044
     8  H    0.234184
     9  H    0.281007
    10  H    0.275289
    11  H    0.223086
    12  N    0.487886
    13  O   -0.461955
    14  O   -0.458356
    15  C   -0.168741
    16  C   -0.216231
    17  C   -0.166196
    18  C    0.158772
    19  C   -0.175101
    20  C   -0.218437
    21  H    0.227291
    22  H    0.226118
    23  H    0.277721
    24  H    0.268714
    25  H    0.223225
    26  N    0.489244
    27  O   -0.472262
    28  O   -0.452654
 Sum of Mulliken charges =  -0.00000

 Dipole moment (field-independent basis, Debye):
    X=              1.2779    Y=             -1.0121    Z=              6.4774  Tot=              6.6793
 Quadrupole moment (field-independent basis, Debye-Ang):
   XX=            -99.6351   YY=           -106.6676   ZZ=           -105.9751
   XY=            -21.3792   XZ=             -0.8640   YZ=              1.0667

 Normal termination of Gaussian 16 at Thu May  6 13:11:28 2021.
