 Gaussian 16, Revision A.03,
 Gaussian 16:  EM64L-G16RevA.03 25-Dec-2016

 -------------
 #p 6-31g* mp2
 -------------

 ------------------------------------------------------
 Input file generated by CHIRIPA (05-May-2021 14:57:23)
 ------------------------------------------------------
 Symbolic Z-matrix:
 Charge =  0 Multiplicity = 1

                         Standard orientation:
 ---------------------------------------------------------------------
 Center     Atomic      Atomic             Coordinates (Angstroms)
 Number     Number       Type             X           Y           Z
 ---------------------------------------------------------------------
      1          6           0        1.790851   -2.163498    1.190458
      2          6           0        2.899253   -2.346847    0.357182
      3          6           0        3.493099   -1.256060   -0.284751
      4          6           0        2.950239    0.009829   -0.070002
      5          6           0        1.846749    0.224793    0.754250
      6          6           0        1.269057   -0.880525    1.385989
      7          1           0        1.335811   -3.016491    1.685167
      8          1           0        3.306611   -3.342077    0.203487
      9          1           0        4.351926   -1.369514   -0.935106
     10          1           0        1.463074    1.228941    0.888031
     11          1           0        0.408335   -0.735147    2.032571
     12          7           0        3.570366    1.172288   -0.744191
     13          8           0        3.073195    2.277361   -0.538592
     14          8           0        4.541852    0.956339   -1.465453
     15          6           0       -2.233421    2.274845    1.226626
     16          6           0       -2.857310    2.370289   -0.021642
     17          6           0       -3.202351    1.217241   -0.732962
     18          6           0       -2.907453   -0.020594   -0.163672
     19          6           0       -2.286623   -0.148455    1.077903
     20          6           0       -1.950567    1.017993    1.771455
     21          1           0       -1.968875    3.175765    1.772295
     22          1           0       -3.078189    3.345046   -0.447210
     23          1           0       -3.686021    1.262217   -1.701186
     24          1           0       -2.079191   -1.134172    1.476341
     25          1           0       -1.466118    0.940839    2.740681
     26          7           0       -3.267975   -1.248367   -0.907310
     27          8           0       -2.997405   -2.327055   -0.383993
     28          8           0       -3.814297   -1.108760   -1.999408
 ---------------------------------------------------------------------

 SCF Done:  E(RHF) =  -868.336397537     A.U. after   16 cycles
 E2 =    -0.2601933362D+01 EUMP2 =    -0.87093833089897D+03

 The electronic state is 1-A.
 Alpha  occ. eigenvalues --  -20.61298 -20.61272 -20.60933 -20.60913 -15.86348
 Alpha  occ. eigenvalues --  -15.85981 -11.31798 -11.31307 -11.28518 -11.28325
 Alpha  occ. eigenvalues --  -11.28133 -11.27924 -11.27855 -11.27608 -11.27527
 Alpha  occ. eigenvalues --  -11.27302 -11.26945 -11.26834  -1.60358  -1.60000
 Alpha  occ. eigenvalues --   -1.39912  -1.39556  -1.20001  -1.19484  -1.09357
 Alpha  occ. eigenvalues --   -1.08884  -1.05470  -1.04878  -0.96182  -0.95721
 Alpha  occ. eigenvalues --   -0.86816  -0.86312  -0.83063  -0.82550  -0.78118
 Alpha  occ. eigenvalues --   -0.77592  -0.72569  -0.72203  -0.71678  -0.71321
 Alpha  occ. eigenvalues --   -0.71092  -0.70581  -0.65699  -0.65456  -0.65136
 Alpha  occ. eigenvalues --   -0.64959  -0.62885  -0.62141  -0.55880  -0.55386
 Alpha  occ. eigenvalues --   -0.53788  -0.53543  -0.53153  -0.52959  -0.49332
 Alpha  occ. eigenvalues --   -0.49313  -0.48960  -0.48952  -0.45300  -0.44971
 Alpha  occ. eigenvalues --   -0.37955  -0.37503  -0.37151  -0.36266
 Alpha virt. eigenvalues --    0.04445   0.04962   0.10363   0.11317   0.15782
 Alpha virt. eigenvalues --    0.16470   0.19214   0.22246   0.25273   0.27034
 Alpha virt. eigenvalues --    0.28298   0.29098   0.29827   0.31552   0.32297

 Mulliken charges:
               1
     1  C   -0.168909
     2  C   -0.217903
     3  C   -0.169974
     4  C    0.158407
     5  C   -0.170620
     6  C   -0.214958
     7  H    0.228144
     8  H    0.225621
     9  H    0.276471
    10  H    0.271408
    11  H    0.211956
    12  N    0.488464
    13  O   -0.463155
    14  O   -0.459115
    15  C   -0.170463
    16  C   -0.216864
    17  C   -0.168561
    18  C    0.159208
    19  C   -0.168197
    20  C   -0.226986
    21  H    0.230254
    22  H    0.228629
    23  H    0.279022
    24  H    0.269715
    25  H    0.219414
    26  N    0.488731
    27  O   -0.462924
    28  O   -0.456814
 Sum of Mulliken charges =  -0.00000

 Dipole moment (field-independent basis, Debye):
    X=             -1.0532    Y=              0.2863    Z=              4.7446  Tot=              4.8685
 Quadrupole moment (field-independent basis, Debye-Ang):
   XX=           -122.5118   YY=           -101.8688   ZZ=           -103.5994
   XY=            -29.2004   XZ=             -0.4541   YZ=             -1.3399

 Normal termination of Gaussian 16 at Thu May  6 11:19:18 2021.
