 Gaussian 16, Revision A.03,
 Gaussian 16:  EM64L-G16RevA.03 25-Dec-2016

 -------------
 #p 6-31g* mp2
 -------------

 ------------------------------------------------------
 Input file generated by CHIRIPA (05-May-2021 14:57:24)
 ------------------------------------------------------
 Symbolic Z-matrix:
 Charge =  0 Multiplicity = 1

                         Standard orientation:
 ---------------------------------------------------------------------
 Center     Atomic      Atomic             Coordinates (Angstroms)
 Number     Number       Type             X           Y           Z
 ---------------------------------------------------------------------
      1          6           0        1.176180   -1.537953   -0.749804
      2          6           0        1.073014   -0.301721   -0.103579
      3          6           0        2.221543    0.395328    0.283140
      4          6           0        3.462783   -0.175802    0.006691
      5          6           0        3.598322   -1.405609   -0.635566
      6          6           0        2.436283   -2.084987   -1.013271
      7          1           0        0.278728   -2.072574   -1.046715
      8          1           0        0.095718    0.125528    0.102324
      9          1           0        2.170574    1.354039    0.784832
     10          1           0        4.586409   -1.806069   -0.827223
     11          1           0        2.519433   -3.044887   -1.514991
     12          7           0        4.685830    0.552778    0.411322
     13          8           0        5.767653    0.028132    0.156291
     14          8           0        4.539472    1.634691    0.975840
     15          6           0       -4.134521   -1.861608    1.033902
     16          6           0       -3.505188   -0.924743    1.860187
     17          6           0       -3.017464    0.274041    1.331426
     18          6           0       -3.176782    0.504459   -0.034157
     19          6           0       -3.799219   -0.409250   -0.883273
     20          6           0       -4.279273   -1.601329   -0.332781
     21          1           0       -4.510417   -2.790248    1.453097
     22          1           0       -3.391376   -1.124206    2.921934
     23          1           0       -2.526213    1.016724    1.948282
     24          1           0       -3.897959   -0.182246   -1.937852
     25          1           0       -4.767597   -2.327088   -0.976877
     26          7           0       -2.664509    1.770010   -0.605435
     27          8           0       -2.817290    1.949227   -1.811742
     28          8           0       -2.119911    2.558769    0.163921
 ---------------------------------------------------------------------

 SCF Done:  E(RHF) =  -868.338105284     A.U. after   16 cycles
 E2 =    -0.2600273629D+01 EUMP2 =    -0.87093837891277D+03

 The electronic state is 1-A.
 Alpha  occ. eigenvalues --  -20.61780 -20.61758 -20.60491 -20.60478 -15.86810
 Alpha  occ. eigenvalues --  -15.85540 -11.32227 -11.30901 -11.28762 -11.28749
 Alpha  occ. eigenvalues --  -11.28450 -11.27751 -11.27731 -11.27504 -11.27421
 Alpha  occ. eigenvalues --  -11.27257 -11.26540 -11.26452  -1.60847  -1.59563
 Alpha  occ. eigenvalues --   -1.40394  -1.39116  -1.20384  -1.19082  -1.09757
 Alpha  occ. eigenvalues --   -1.08489  -1.05760  -1.04477  -0.96581  -0.95319
 Alpha  occ. eigenvalues --   -0.87150  -0.85888  -0.83392  -0.82144  -0.78453
 Alpha  occ. eigenvalues --   -0.77186  -0.73004  -0.72205  -0.71759  -0.71429
 Alpha  occ. eigenvalues --   -0.70886  -0.70207  -0.66003  -0.65720  -0.64736
 Alpha  occ. eigenvalues --   -0.64493  -0.63084  -0.61822  -0.56216  -0.55017
 Alpha  occ. eigenvalues --   -0.54130  -0.53817  -0.52818  -0.52562  -0.49777
 Alpha  occ. eigenvalues --   -0.49769  -0.48522  -0.48511  -0.45769  -0.44522
 Alpha  occ. eigenvalues --   -0.38356  -0.37380  -0.37081  -0.36076
 Alpha virt. eigenvalues --    0.04047   0.05344   0.10191   0.11571   0.15540
 Alpha virt. eigenvalues --    0.16826   0.20537   0.21485   0.26366   0.26894
 Alpha virt. eigenvalues --    0.27601   0.28523   0.30083   0.30879   0.31927

 Mulliken charges:
               1
     1  C   -0.171539
     2  C   -0.220019
     3  C   -0.171208
     4  C    0.158449
     5  C   -0.171421
     6  C   -0.218686
     7  H    0.222562
     8  H    0.224171
     9  H    0.280177
    10  H    0.274578
    11  H    0.221152
    12  N    0.488008
    13  O   -0.461918
    14  O   -0.459011
    15  C   -0.171438
    16  C   -0.217390
    17  C   -0.177958
    18  C    0.152690
    19  C   -0.173769
    20  C   -0.219831
    21  H    0.229173
    22  H    0.227917
    23  H    0.277801
    24  H    0.278069
    25  H    0.226394
    26  N    0.487852
    27  O   -0.454877
    28  O   -0.459929
 Sum of Mulliken charges =  -0.00000

 Dipole moment (field-independent basis, Debye):
    X=             -6.3826    Y=             -6.9713    Z=              0.6293  Tot=              9.4727
 Quadrupole moment (field-independent basis, Debye-Ang):
   XX=           -121.5933   YY=           -106.0982   ZZ=           -100.7187
   XY=              3.8268   XZ=            -10.9883   YZ=              4.3062

 Normal termination of Gaussian 16 at Thu May  6 13:00:10 2021.
