 Gaussian 16, Revision A.03,
 Gaussian 16:  EM64L-G16RevA.03 25-Dec-2016

 -------------
 #p 6-31g* mp2
 -------------

 ------------------------------------------------------
 Input file generated by CHIRIPA (05-May-2021 14:55:22)
 ------------------------------------------------------
 Symbolic Z-matrix:
 Charge =  0 Multiplicity = 1

                         Standard orientation:
 ---------------------------------------------------------------------
 Center     Atomic      Atomic             Coordinates (Angstroms)
 Number     Number       Type             X           Y           Z
 ---------------------------------------------------------------------
      1          6           0       -2.841505    1.999151   -1.441089
      2          6           0       -3.905367    1.104045   -1.594394
      3          6           0       -3.934477   -0.094142   -0.874639
      4          6           0       -2.878439   -0.366550   -0.006383
      5          6           0       -1.804541    0.504992    0.168111
      6          6           0       -1.796330    1.697300   -0.561876
      7          1           0       -2.827009    2.927649   -2.004187
      8          1           0       -4.718424    1.335846   -2.276488
      9          1           0       -4.745778   -0.804994   -0.974128
     10          1           0       -1.008376    0.246308    0.855586
     11          1           0       -0.968831    2.390577   -0.440806
     12          7           0       -2.898194   -1.631906    0.761005
     13          8           0       -1.955724   -1.848584    1.519582
     14          8           0       -3.855773   -2.383053    0.589378
     15          6           0        4.222480    0.092383   -0.356564
     16          6           0        4.505028   -1.383906   -0.637141
     17          6           0        5.592140   -1.587476   -1.692859
     18          1           0        3.924642    0.586294   -1.291598
     19          1           0        5.150507    0.580005   -0.027343
     20          1           0        3.576436   -1.868910   -0.964408
     21          1           0        4.802042   -1.874403    0.298706
     22          1           0        6.532814   -1.129440   -1.370465
     23          1           0        5.300243   -1.123916   -2.640756
     24          1           0        5.778101   -2.650035   -1.877917
     25          6           0        3.137988    0.312108    0.696681
     26          6           0        2.855440    1.788397    0.977259
     27          6           0        1.768328    1.991967    2.032976
     28          1           0        2.209961   -0.175515    0.367461
     29          1           0        3.435826   -0.181803    1.631715
     30          1           0        2.558426    2.278894    0.041411
     31          1           0        3.784032    2.273401    1.304525
     32          1           0        2.060225    1.528407    2.980873
     33          1           0        0.827654    1.533932    1.710583
     34          1           0        1.582368    3.054526    2.218034
 ---------------------------------------------------------------------

 SCF Done:  E(RHF) =  -669.535380005     A.U. after   15 cycles
 E2 =    -0.2091518900D+01 EUMP2 =    -0.67162689890477D+03

 The electronic state is 1-A.
 Alpha  occ. eigenvalues --  -20.60760 -20.60754 -15.85811 -11.31180 -11.27750
 Alpha  occ. eigenvalues --  -11.27738 -11.27494 -11.26771 -11.26752 -11.22158
 Alpha  occ. eigenvalues --  -11.21797 -11.21715 -11.21682 -11.21592 -11.21139
 Alpha  occ. eigenvalues --   -1.59834  -1.39388  -1.19354  -1.08750  -1.08745
 Alpha  occ. eigenvalues --   -1.04762  -1.03876  -0.96331  -0.95584  -0.87349
 Alpha  occ. eigenvalues --   -0.86156  -0.82417  -0.79940  -0.78516  -0.77463
 Alpha  occ. eigenvalues --   -0.72031  -0.71157  -0.70477  -0.65398  -0.65005
 Alpha  occ. eigenvalues --   -0.64764  -0.62200  -0.61214  -0.59707  -0.57916
 Alpha  occ. eigenvalues --   -0.55654  -0.55234  -0.53091  -0.53027  -0.52902
 Alpha  occ. eigenvalues --   -0.52695  -0.50286  -0.48789  -0.48785  -0.48242
 Alpha  occ. eigenvalues --   -0.46973  -0.46061  -0.45971  -0.44792  -0.44106
 Alpha  occ. eigenvalues --   -0.37336  -0.36361
 Alpha virt. eigenvalues --    0.05065   0.11283   0.16556   0.19049   0.22925
 Alpha virt. eigenvalues --    0.23768   0.25290   0.26530   0.27253   0.28072
 Alpha virt. eigenvalues --    0.29375   0.29830   0.31340   0.31477   0.32032

 Mulliken charges:
               1
     1  C   -0.170829
     2  C   -0.218718
     3  C   -0.170565
     4  C    0.161313
     5  C   -0.181281
     6  C   -0.221416
     7  H    0.225606
     8  H    0.223486
     9  H    0.275584
    10  H    0.283576
    11  H    0.225411
    12  N    0.487974
    13  O   -0.460202
    14  O   -0.460470
    15  C   -0.298457
    16  C   -0.300369
    17  C   -0.475956
    18  H    0.147936
    19  H    0.149987
    20  H    0.154477
    21  H    0.154038
    22  H    0.154936
    23  H    0.154319
    24  H    0.161919
    25  C   -0.299223
    26  C   -0.300597
    27  C   -0.479707
    28  H    0.149487
    29  H    0.154239
    30  H    0.146720
    31  H    0.155446
    32  H    0.163785
    33  H    0.146837
    34  H    0.160713
 Sum of Mulliken charges =  -0.00000

 Dipole moment (field-independent basis, Debye):
    X=              0.2051    Y=              4.4031    Z=             -2.6500  Tot=              5.1432
 Quadrupole moment (field-independent basis, Debye-Ang):
   XX=            -91.0870   YY=            -98.4980   ZZ=            -94.2707
   XY=            -11.6466   XZ=             11.4719   YZ=              1.3038

 Normal termination of Gaussian 16 at Wed May  5 20:40:32 2021.
