 Gaussian 16, Revision A.03,
 Gaussian 16:  EM64L-G16RevA.03 25-Dec-2016

 -------------
 #p 6-31g* mp2
 -------------

 ------------------------------------------------------
 Input file generated by CHIRIPA (05-May-2021 14:51:11)
 ------------------------------------------------------
 Symbolic Z-matrix:
 Charge =  0 Multiplicity = 1

                         Standard orientation:
 ---------------------------------------------------------------------
 Center     Atomic      Atomic             Coordinates (Angstroms)
 Number     Number       Type             X           Y           Z
 ---------------------------------------------------------------------
      1          6           0       -3.782474   -0.541308    0.366746
      2          6           0       -3.244032   -1.669115   -0.514229
      3          6           0       -3.216708   -3.018608    0.204044
      4          1           0       -3.164061   -0.464277    1.271498
      5          1           0       -4.796400   -0.799750    0.702244
      6          1           0       -2.231956   -1.407994   -0.849094
      7          1           0       -3.863683   -1.743344   -1.417079
      8          1           0       -4.223743   -3.305192    0.523968
      9          1           0       -2.582745   -2.967936    1.095180
     10          1           0       -2.828385   -3.810522   -0.443981
     11          6           0       -3.815947    0.814020   -0.337309
     12          6           0       -4.354389    1.941827    0.543666
     13          6           0       -4.381713    3.291319   -0.174608
     14          1           0       -2.802022    1.072462   -0.672807
     15          1           0       -4.434360    0.736988   -1.242061
     16          1           0       -3.734738    2.016056    1.446516
     17          1           0       -5.366465    1.680705    0.878531
     18          1           0       -5.015676    3.240647   -1.065744
     19          1           0       -3.374678    3.577904   -0.494532
     20          1           0       -4.770036    4.083234    0.473418
     21          6           0        4.317951    0.333510   -0.320606
     22          6           0        5.583140    0.473909    0.526488
     23          6           0        6.611428    1.417139   -0.098600
     24          1           0        4.592098   -0.031028   -1.320056
     25          1           0        3.868021    1.325907   -0.462406
     26          1           0        6.029791   -0.518637    0.667809
     27          1           0        5.305929    0.837973    1.524099
     28          1           0        6.188622    2.419136   -0.224459
     29          1           0        6.916598    1.054818   -1.085614
     30          1           0        7.507872    1.502851    0.523414
     31          6           0        3.280470   -0.606222    0.291169
     32          6           0        2.015281   -0.746620   -0.555925
     33          6           0        0.986993   -1.689851    0.069164
     34          1           0        3.730400   -1.598618    0.432970
     35          1           0        3.006323   -0.241683    1.290619
     36          1           0        2.292492   -1.110684   -1.553535
     37          1           0        1.568630    0.245926   -0.697245
     38          1           0        0.681823   -1.327529    1.056178
     39          1           0        1.409799   -2.691846    0.195022
     40          1           0        0.090550   -1.775562   -0.552850
 ---------------------------------------------------------------------

 SCF Done:  E(RHF) =  -470.733287457     A.U. after   11 cycles
 E2 =    -0.1582560842D+01 EUMP2 =    -0.47231584829855D+03

 The electronic state is 1-A.
 Alpha  occ. eigenvalues --  -11.21646 -11.21622 -11.21596 -11.21555 -11.21434
 Alpha  occ. eigenvalues --  -11.21385 -11.21374 -11.21324 -11.21105 -11.21087
 Alpha  occ. eigenvalues --  -11.21070 -11.21019  -1.08462  -1.08408  -1.03571
 Alpha  occ. eigenvalues --   -1.03498  -0.96021  -0.95945  -0.87030  -0.86969
 Alpha  occ. eigenvalues --   -0.79641  -0.79557  -0.78272  -0.78225  -0.65101
 Alpha  occ. eigenvalues --   -0.65042  -0.61000  -0.60918  -0.59429  -0.59257
 Alpha  occ. eigenvalues --   -0.57662  -0.57524  -0.55299  -0.55240  -0.52720
 Alpha  occ. eigenvalues --   -0.52636  -0.52443  -0.52375  -0.49955  -0.49887
 Alpha  occ. eigenvalues --   -0.47998  -0.47846  -0.46660  -0.46587  -0.45817
 Alpha  occ. eigenvalues --   -0.45765  -0.45738  -0.45684  -0.43798  -0.43737
 Alpha virt. eigenvalues --    0.21239   0.23068   0.23696   0.24874   0.26365
 Alpha virt. eigenvalues --    0.26603   0.26913   0.27627   0.27969   0.28816
 Alpha virt. eigenvalues --    0.30313   0.31138   0.31643   0.31852   0.32158

 Mulliken charges:
               1
     1  C   -0.297870
     2  C   -0.305434
     3  C   -0.475796
     4  H    0.149781
     5  H    0.149437
     6  H    0.156689
     7  H    0.151728
     8  H    0.154878
     9  H    0.156597
    10  H    0.159995
    11  C   -0.298345
    12  C   -0.299628
    13  C   -0.475674
    14  H    0.149373
    15  H    0.149613
    16  H    0.151803
    17  H    0.151962
    18  H    0.155214
    19  H    0.155029
    20  H    0.160200
    21  C   -0.298264
    22  C   -0.299668
    23  C   -0.475722
    24  H    0.149746
    25  H    0.149482
    26  H    0.151997
    27  H    0.151939
    28  H    0.155197
    29  H    0.155229
    30  H    0.160325
    31  C   -0.298497
    32  C   -0.299269
    33  C   -0.482531
    34  H    0.149730
    35  H    0.149571
    36  H    0.152176
    37  H    0.151453
    38  H    0.154486
    39  H    0.155856
    40  H    0.167214
 Sum of Mulliken charges =  -0.00000

 Dipole moment (field-independent basis, Debye):
    X=              0.0170    Y=             -0.0133    Z=              0.0007  Tot=              0.0216
 Quadrupole moment (field-independent basis, Debye-Ang):
   XX=            -84.4452   YY=            -85.6316   ZZ=            -84.6884
   XY=             -0.6284   XZ=              0.3186   YZ=              1.0786

 Normal termination of Gaussian 16 at Wed May  5 19:52:41 2021.
