 Gaussian 16, Revision A.03,
 Gaussian 16:  EM64L-G16RevA.03 25-Dec-2016

 -------------
 #p 6-31g* mp2
 -------------

 ------------------------------------------------------
 Input file generated by CHIRIPA (05-May-2021 14:51:10)
 ------------------------------------------------------
 Symbolic Z-matrix:
 Charge =  0 Multiplicity = 1

                         Standard orientation:
 ---------------------------------------------------------------------
 Center     Atomic      Atomic             Coordinates (Angstroms)
 Number     Number       Type             X           Y           Z
 ---------------------------------------------------------------------
      1          6           0        2.297174   -1.459349    0.104252
      2          6           0        1.378052   -1.758953    1.288920
      3          6           0        0.991176   -3.235477    1.378347
      4          1           0        1.798476   -1.766150   -0.825328
      5          1           0        3.204913   -2.072704    0.189109
      6          1           0        0.472933   -1.144198    1.202588
      7          1           0        1.878918   -1.451226    2.215771
      8          1           0        1.882655   -3.861285    1.488943
      9          1           0        0.468681   -3.552512    0.470003
     10          1           0        0.333957   -3.427286    2.232239
     11          6           0        2.692691    0.012632    0.001457
     12          6           0        3.611813    0.312235   -1.183210
     13          6           0        3.998689    1.788759   -1.272637
     14          1           0        1.784952    0.625986   -0.083400
     15          1           0        3.191388    0.319432    0.931037
     16          1           0        3.110947    0.004509   -2.110062
     17          1           0        4.516932   -0.302520   -1.096878
     18          1           0        4.521184    2.105794   -0.364293
     19          1           0        3.107210    2.414567   -1.383234
     20          1           0        4.655908    1.980568   -2.126529
     21          6           0       -2.557642    0.224166   -0.627577
     22          6           0       -3.722004   -0.752344   -0.458234
     23          6           0       -3.834419   -1.744717   -1.615969
     24          1           0       -2.681489    0.772348   -1.571560
     25          1           0       -1.621505   -0.344250   -0.716712
     26          1           0       -4.655505   -0.182205   -0.368057
     27          1           0       -3.595471   -1.298128    0.485549
     28          1           0       -2.919005   -2.338671   -1.704506
     29          1           0       -3.985062   -1.216406   -2.562962
     30          1           0       -4.673268   -2.433319   -1.474473
     31          6           0       -2.432223    1.222552    0.521868
     32          6           0       -1.267861    2.199061    0.352524
     33          6           0       -1.155446    3.191435    1.510259
     34          1           0       -3.368360    1.790968    0.611003
     35          1           0       -2.308376    0.674370    1.465851
     36          1           0       -1.394393    2.744845   -0.591258
     37          1           0       -0.334359    1.628922    0.262347
     38          1           0       -1.004802    2.663125    2.457252
     39          1           0       -2.070860    3.785388    1.598796
     40          1           0       -0.316597    3.880037    1.368763
 ---------------------------------------------------------------------

 SCF Done:  E(RHF) =  -470.733337184     A.U. after   11 cycles
 E2 =    -0.1583857925D+01 EUMP2 =    -0.47231719510917D+03

 The electronic state is 1-A.
 Alpha  occ. eigenvalues --  -11.21677 -11.21636 -11.21626 -11.21618 -11.21454
 Alpha  occ. eigenvalues --  -11.21447 -11.21393 -11.21380 -11.21136 -11.21103
 Alpha  occ. eigenvalues --  -11.21081 -11.21076  -1.08502  -1.08449  -1.03573
 Alpha  occ. eigenvalues --   -1.03559  -0.96022  -0.96005  -0.87039  -0.87020
 Alpha  occ. eigenvalues --   -0.79662  -0.79606  -0.78382  -0.78203  -0.65333
 Alpha  occ. eigenvalues --   -0.64899  -0.61007  -0.60925  -0.59394  -0.59371
 Alpha  occ. eigenvalues --   -0.57654  -0.57598  -0.55347  -0.55259  -0.52717
 Alpha  occ. eigenvalues --   -0.52695  -0.52462  -0.52418  -0.50025  -0.49899
 Alpha  occ. eigenvalues --   -0.48018  -0.47912  -0.46821  -0.46628  -0.46167
 Alpha  occ. eigenvalues --   -0.45799  -0.45793  -0.45212  -0.43827  -0.43813
 Alpha virt. eigenvalues --    0.19070   0.23005   0.23561   0.24730   0.25440
 Alpha virt. eigenvalues --    0.26869   0.27120   0.27558   0.28011   0.29642
 Alpha virt. eigenvalues --    0.31367   0.31523   0.31774   0.31957   0.32225

 Mulliken charges:
               1
     1  C   -0.297715
     2  C   -0.303756
     3  C   -0.475599
     4  H    0.149459
     5  H    0.149997
     6  H    0.154247
     7  H    0.152351
     8  H    0.155735
     9  H    0.154935
    10  H    0.160292
    11  C   -0.308707
    12  C   -0.298879
    13  C   -0.475944
    14  H    0.159025
    15  H    0.149743
    16  H    0.152082
    17  H    0.151985
    18  H    0.155152
    19  H    0.155512
    20  H    0.160329
    21  C   -0.300587
    22  C   -0.299633
    23  C   -0.475629
    24  H    0.149835
    25  H    0.150195
    26  H    0.152177
    27  H    0.152320
    28  H    0.154850
    29  H    0.155183
    30  H    0.160544
    31  C   -0.297784
    32  C   -0.310972
    33  C   -0.474957
    34  H    0.149950
    35  H    0.150057
    36  H    0.151782
    37  H    0.161244
    38  H    0.155517
    39  H    0.155204
    40  H    0.160460
 Sum of Mulliken charges =  -0.00000

 Dipole moment (field-independent basis, Debye):
    X=              0.0045    Y=              0.0047    Z=              0.0064  Tot=              0.0091
 Quadrupole moment (field-independent basis, Debye-Ang):
   XX=            -83.8337   YY=            -85.9902   ZZ=            -84.7882
   XY=             -1.1029   XZ=              0.7144   YZ=             -0.8308

 Normal termination of Gaussian 16 at Wed May  5 15:09:47 2021.
