 Gaussian 16, Revision A.03,
 Gaussian 16:  EM64L-G16RevA.03 25-Dec-2016

 -------------
 #p 6-31g* mp2
 -------------

 ------------------------------------------------------
 Input file generated by CHIRIPA (05-May-2021 14:57:27)
 ------------------------------------------------------
 Symbolic Z-matrix:
 Charge =  0 Multiplicity = 1

                         Standard orientation:
 ---------------------------------------------------------------------
 Center     Atomic      Atomic             Coordinates (Angstroms)
 Number     Number       Type             X           Y           Z
 ---------------------------------------------------------------------
      1          6           0        1.940237   -1.850933    1.322577
      2          6           0        2.000971   -0.501611    1.686118
      3          6           0        2.842766    0.380722    1.002438
      4          6           0        3.613474   -0.122458   -0.044514
      5          6           0        3.575078   -1.461453   -0.430400
      6          6           0        2.726099   -2.325711    0.267339
      7          1           0        1.283520   -2.529330    1.859137
      8          1           0        1.391795   -0.130105    2.505223
      9          1           0        2.909299    1.430059    1.262984
     10          1           0        4.194289   -1.802408   -1.251221
     11          1           0        2.680977   -3.373116   -0.017182
     12          7           0        4.508448    0.802061   -0.775737
     13          8           0        5.177352    0.333953   -1.694475
     14          8           0        4.524078    1.977300   -0.416285
     15          6           0       -1.967779    2.190289    0.596575
     16          6           0       -1.474175    0.881522    0.598391
     17          6           0       -2.295291   -0.187509    0.227593
     18          6           0       -3.610812    0.089650   -0.141023
     19          6           0       -4.131834    1.382586   -0.152969
     20          6           0       -3.292698    2.436211    0.221562
     21          1           0       -1.322917    3.014753    0.886070
     22          1           0       -0.445644    0.687562    0.889166
     23          1           0       -1.938953   -1.210438    0.220054
     24          1           0       -5.161537    1.544611   -0.447720
     25          1           0       -3.678740    3.451598    0.219215
     26          7           0       -4.489629   -1.033929   -0.535546
     27          8           0       -5.644879   -0.763306   -0.856169
     28          8           0       -4.006557   -2.163939   -0.516680
 ---------------------------------------------------------------------

 SCF Done:  E(RHF) =  -868.337383466     A.U. after   16 cycles
 E2 =    -0.2600832138D+01 EUMP2 =    -0.87093821560372D+03

 The electronic state is 1-A.
 Alpha  occ. eigenvalues --  -20.61450 -20.61432 -20.61091 -20.61075 -15.86505
 Alpha  occ. eigenvalues --  -15.86139 -11.32030 -11.31500 -11.28709 -11.28571
 Alpha  occ. eigenvalues --  -11.28386 -11.28091 -11.28038 -11.27784 -11.27741
 Alpha  occ. eigenvalues --  -11.27569 -11.27047 -11.27012  -1.60516  -1.60160
 Alpha  occ. eigenvalues --   -1.40065  -1.39715  -1.20237  -1.19662  -1.09590
 Alpha  occ. eigenvalues --   -1.09056  -1.05677  -1.05062  -0.96390  -0.95896
 Alpha  occ. eigenvalues --   -0.87054  -0.86462  -0.83230  -0.82727  -0.78262
 Alpha  occ. eigenvalues --   -0.77776  -0.72718  -0.72358  -0.71842  -0.71482
 Alpha  occ. eigenvalues --   -0.71301  -0.70777  -0.65880  -0.65732  -0.65313
 Alpha  occ. eigenvalues --   -0.65036  -0.63019  -0.62395  -0.56117  -0.55576
 Alpha  occ. eigenvalues --   -0.54059  -0.53759  -0.53390  -0.53024  -0.49489
 Alpha  occ. eigenvalues --   -0.49464  -0.49118  -0.49108  -0.45436  -0.45122
 Alpha  occ. eigenvalues --   -0.38207  -0.37639  -0.37261  -0.36669
 Alpha virt. eigenvalues --    0.04272   0.04753   0.10258   0.10974   0.15605
 Alpha virt. eigenvalues --    0.16238   0.19889   0.21855   0.25851   0.26866
 Alpha virt. eigenvalues --    0.28330   0.28391   0.29748   0.31322   0.31920

 Mulliken charges:
               1
     1  C   -0.173719
     2  C   -0.230249
     3  C   -0.172247
     4  C    0.160146
     5  C   -0.168329
     6  C   -0.217649
     7  H    0.230688
     8  H    0.223844
     9  H    0.275205
    10  H    0.279607
    11  H    0.229289
    12  N    0.488169
    13  O   -0.456772
    14  O   -0.460425
    15  C   -0.172738
    16  C   -0.224486
    17  C   -0.174702
    18  C    0.159398
    19  C   -0.170953
    20  C   -0.217920
    21  H    0.226524
    22  H    0.227554
    23  H    0.271237
    24  H    0.276528
    25  H    0.225024
    26  N    0.488288
    27  O   -0.458921
    28  O   -0.462393
 Sum of Mulliken charges =  -0.00000

 Dipole moment (field-independent basis, Debye):
    X=              0.1816    Y=              0.5978    Z=              3.8469  Tot=              3.8973
 Quadrupole moment (field-independent basis, Debye-Ang):
   XX=           -146.6028   YY=            -98.4932   ZZ=           -104.9483
   XY=            -30.2619   XZ=              3.5191   YZ=              1.2969

 Normal termination of Gaussian 16 at Thu May  6 02:04:32 2021.
