 Gaussian 16, Revision A.03,
 Gaussian 16:  EM64L-G16RevA.03 25-Dec-2016

 -------------
 #p 6-31g* mp2
 -------------

 ------------------------------------------------------
 Input file generated by CHIRIPA (05-May-2021 14:51:12)
 ------------------------------------------------------
 Symbolic Z-matrix:
 Charge =  0 Multiplicity = 1

                         Standard orientation:
 ---------------------------------------------------------------------
 Center     Atomic      Atomic             Coordinates (Angstroms)
 Number     Number       Type             X           Y           Z
 ---------------------------------------------------------------------
      1          6           0        2.811565   -0.509774   -0.269566
      2          6           0        2.560129   -1.860257    0.401970
      3          6           0        1.316498   -2.566752   -0.138438
      4          1           0        1.931993    0.132854   -0.126993
      5          1           0        2.916119   -0.660667   -1.352938
      6          1           0        2.457458   -1.707038    1.483912
      7          1           0        3.440479   -2.499677    0.257946
      8          1           0        1.413403   -2.748587   -1.213680
      9          1           0        0.424796   -1.951444    0.019251
     10          1           0        1.155601   -3.530124    0.355411
     11          6           0        4.051359    0.208664    0.260042
     12          6           0        4.302794    1.559147   -0.411494
     13          6           0        5.546426    2.265642    0.128913
     14          1           0        3.946805    0.359557    1.343414
     15          1           0        4.930931   -0.433964    0.117469
     16          1           0        3.422445    2.198567   -0.267470
     17          1           0        4.405466    1.405928   -1.493436
     18          1           0        6.438127    1.650334   -0.028776
     19          1           0        5.449521    2.447477    1.204155
     20          1           0        5.707323    3.229014   -0.364936
     21          6           0       -3.246271   -0.495986    0.366869
     22          6           0       -2.883889   -1.639556   -0.581240
     23          6           0       -2.515739   -2.926276    0.158092
     24          1           0       -2.399690   -0.304230    1.040275
     25          1           0       -4.086632   -0.808121    1.002291
     26          1           0       -2.045360   -1.324856   -1.215630
     27          1           0       -3.731360   -1.828483   -1.252592
     28          1           0       -3.351396   -3.266991    0.777924
     29          1           0       -1.655817   -2.760503    0.815096
     30          1           0       -2.260196   -3.730615   -0.538756
     31          6           0       -3.616652    0.797096   -0.357344
     32          6           0       -3.979035    1.940666    0.590764
     33          6           0       -4.347184    3.227386   -0.148568
     34          1           0       -2.776292    1.109231   -0.992766
     35          1           0       -4.463234    0.605341   -1.030750
     36          1           0       -3.131564    2.129593    1.262117
     37          1           0       -4.817564    1.625966    1.225155
     38          1           0       -5.207107    3.061614   -0.805572
     39          1           0       -3.511528    3.568102   -0.768399
     40          1           0       -4.602727    4.031725    0.548281
 ---------------------------------------------------------------------

 SCF Done:  E(RHF) =  -470.732794603     A.U. after   11 cycles
 E2 =    -0.1582892798D+01 EUMP2 =    -0.47231568740022D+03

 The electronic state is 1-A.
 Alpha  occ. eigenvalues --  -11.21628 -11.21618 -11.21608 -11.21558 -11.21438
 Alpha  occ. eigenvalues --  -11.21404 -11.21378 -11.21345 -11.21091 -11.21076
 Alpha  occ. eigenvalues --  -11.21056 -11.20942  -1.08462  -1.08418  -1.03578
 Alpha  occ. eigenvalues --   -1.03483  -0.96054  -0.95903  -0.87082  -0.86908
 Alpha  occ. eigenvalues --   -0.79647  -0.79539  -0.78273  -0.78234  -0.65156
 Alpha  occ. eigenvalues --   -0.65007  -0.61157  -0.60745  -0.59378  -0.59311
 Alpha  occ. eigenvalues --   -0.57612  -0.57558  -0.55556  -0.55014  -0.52746
 Alpha  occ. eigenvalues --   -0.52588  -0.52425  -0.52351  -0.50122  -0.49694
 Alpha  occ. eigenvalues --   -0.47975  -0.47829  -0.46711  -0.46522  -0.45847
 Alpha  occ. eigenvalues --   -0.45766  -0.45704  -0.45681  -0.43820  -0.43740
 Alpha virt. eigenvalues --    0.21091   0.23083   0.23668   0.24902   0.26306
 Alpha virt. eigenvalues --    0.26802   0.27282   0.27511   0.27841   0.29105
 Alpha virt. eigenvalues --    0.30688   0.31391   0.31624   0.31957   0.32130

 Mulliken charges:
               1
     1  C   -0.298334
     2  C   -0.300100
     3  C   -0.479616
     4  H    0.148915
     5  H    0.149619
     6  H    0.151641
     7  H    0.152046
     8  H    0.155015
     9  H    0.160496
    10  H    0.161105
    11  C   -0.298268
    12  C   -0.299648
    13  C   -0.475723
    14  H    0.149533
    15  H    0.149842
    16  H    0.151755
    17  H    0.151980
    18  H    0.155263
    19  H    0.155213
    20  H    0.160326
    21  C   -0.298481
    22  C   -0.302212
    23  C   -0.477372
    24  H    0.148420
    25  H    0.149814
    26  H    0.153194
    27  H    0.152127
    28  H    0.154105
    29  H    0.158755
    30  H    0.160603
    31  C   -0.298267
    32  C   -0.299584
    33  C   -0.475705
    34  H    0.149465
    35  H    0.149830
    36  H    0.151598
    37  H    0.151999
    38  H    0.155264
    39  H    0.155164
    40  H    0.160225
 Sum of Mulliken charges =  -0.00000

 Dipole moment (field-independent basis, Debye):
    X=              0.0157    Y=             -0.0190    Z=             -0.0078  Tot=              0.0259
 Quadrupole moment (field-independent basis, Debye-Ang):
   XX=            -84.3765   YY=            -85.8655   ZZ=            -84.5232
   XY=             -0.2727   XZ=             -0.7386   YZ=              0.5613

 Normal termination of Gaussian 16 at Wed May  5 16:49:00 2021.
