 Gaussian 16, Revision A.03,
 Gaussian 16:  EM64L-G16RevA.03 25-Dec-2016

 -------------
 #p 6-31g* mp2
 -------------

 ------------------------------------------------------
 Input file generated by CHIRIPA (05-May-2021 14:55:20)
 ------------------------------------------------------
 Symbolic Z-matrix:
 Charge =  0 Multiplicity = 1

                         Standard orientation:
 ---------------------------------------------------------------------
 Center     Atomic      Atomic             Coordinates (Angstroms)
 Number     Number       Type             X           Y           Z
 ---------------------------------------------------------------------
      1          6           0       -3.559515    2.595051    0.121144
      2          6           0       -4.383431    1.658070    0.753402
      3          6           0       -4.154547    0.288300    0.592494
      4          6           0       -3.087997   -0.111125   -0.211384
      5          6           0       -2.249452    0.798038   -0.854466
      6          6           0       -2.497028    2.162807   -0.679361
      7          1           0       -3.744578    3.657178    0.251656
      8          1           0       -5.209309    1.990867    1.375668
      9          1           0       -4.776816   -0.458586    1.070365
     10          1           0       -1.433941    0.435853   -1.468618
     11          1           0       -1.855531    2.888224   -1.171597
     12          7           0       -2.835794   -1.558591   -0.389245
     13          8           0       -1.889605   -1.884788   -1.102659
     14          8           0       -3.589081   -2.339510    0.188129
     15          6           0        4.663489   -0.191578   -0.154403
     16          6           0        5.658148    0.893743    0.258780
     17          6           0        6.968958    0.823746   -0.525232
     18          1           0        5.125993   -1.177709   -0.010941
     19          1           0        4.454504   -0.097717   -1.229070
     20          1           0        5.864134    0.798725    1.332631
     21          1           0        5.193154    1.877398    0.114497
     22          1           0        6.783078    0.940921   -1.597762
     23          1           0        7.457869   -0.143882   -0.372706
     24          1           0        7.665376    1.608552   -0.213880
     25          6           0        3.348192   -0.134656    0.620503
     26          6           0        2.353533   -1.219976    0.207321
     27          6           0        1.042724   -1.149979    0.991332
     28          1           0        3.557178   -0.228518    1.695170
     29          1           0        2.885689    0.851475    0.477041
     30          1           0        2.818527   -2.203633    0.351604
     31          1           0        2.147547   -1.124960   -0.866530
     32          1           0        0.553812   -0.182353    0.838807
     33          1           0        1.228604   -1.267156    2.063862
     34          1           0        0.346307   -1.934787    0.679980
 ---------------------------------------------------------------------

 SCF Done:  E(RHF) =  -669.536137124     A.U. after   15 cycles
 E2 =    -0.2091611051D+01 EUMP2 =    -0.67162774817518D+03

 The electronic state is 1-A.
 Alpha  occ. eigenvalues --  -20.60886 -20.60877 -15.85907 -11.31242 -11.27808
 Alpha  occ. eigenvalues --  -11.27803 -11.27549 -11.26823 -11.26812 -11.21504
 Alpha  occ. eigenvalues --  -11.21206 -11.21151 -11.21094 -11.20993 -11.20398
 Alpha  occ. eigenvalues --   -1.59940  -1.39497  -1.19412  -1.08813  -1.08183
 Alpha  occ. eigenvalues --   -1.04813  -1.03225  -0.95698  -0.95628  -0.86695
 Alpha  occ. eigenvalues --   -0.86209  -0.82491  -0.79306  -0.77992  -0.77540
 Alpha  occ. eigenvalues --   -0.72138  -0.71254  -0.70522  -0.65070  -0.64847
 Alpha  occ. eigenvalues --   -0.64796  -0.62164  -0.60636  -0.59032  -0.57255
 Alpha  occ. eigenvalues --   -0.55322  -0.54987  -0.53144  -0.52904  -0.52329
 Alpha  occ. eigenvalues --   -0.52086  -0.49652  -0.48896  -0.48890  -0.47610
 Alpha  occ. eigenvalues --   -0.46365  -0.45533  -0.45468  -0.44902  -0.43413
 Alpha  occ. eigenvalues --   -0.37383  -0.36405
 Alpha virt. eigenvalues --    0.04960   0.11188   0.16444   0.21206   0.23026
 Alpha virt. eigenvalues --    0.24406   0.26713   0.27353   0.27685   0.27930
 Alpha virt. eigenvalues --    0.28771   0.30952   0.31520   0.32014   0.32548

 Mulliken charges:
               1
     1  C   -0.170501
     2  C   -0.218443
     3  C   -0.170706
     4  C    0.159411
     5  C   -0.170025
     6  C   -0.219317
     7  H    0.225833
     8  H    0.223687
     9  H    0.275755
    10  H    0.276333
    11  H    0.223581
    12  N    0.488009
    13  O   -0.459173
    14  O   -0.459225
    15  C   -0.297908
    16  C   -0.299079
    17  C   -0.475501
    18  H    0.150743
    19  H    0.148605
    20  H    0.151839
    21  H    0.149609
    22  H    0.154709
    23  H    0.155843
    24  H    0.159322
    25  C   -0.297148
    26  C   -0.299126
    27  C   -0.483536
    28  H    0.149020
    29  H    0.144347
    30  H    0.153460
    31  H    0.152405
    32  H    0.144624
    33  H    0.151032
    34  H    0.181522
 Sum of Mulliken charges =  -0.00000

 Dipole moment (field-independent basis, Debye):
    X=             -1.0534    Y=              4.9832    Z=              0.5883  Tot=              5.1272
 Quadrupole moment (field-independent basis, Debye-Ang):
   XX=            -87.5838   YY=            -95.6413   ZZ=            -93.6957
   XY=            -15.4617   XZ=             -3.8151   YZ=             -2.2962

 Normal termination of Gaussian 16 at Thu May  6 07:43:55 2021.
