 Gaussian 16, Revision A.03,
 Gaussian 16:  EM64L-G16RevA.03 25-Dec-2016

 -------------
 #p 6-31g* mp2
 -------------

 ------------------------------------------------------
 Input file generated by CHIRIPA (05-May-2021 14:57:21)
 ------------------------------------------------------
 Symbolic Z-matrix:
 Charge =  0 Multiplicity = 1

                         Standard orientation:
 ---------------------------------------------------------------------
 Center     Atomic      Atomic             Coordinates (Angstroms)
 Number     Number       Type             X           Y           Z
 ---------------------------------------------------------------------
      1          6           0        2.817790    2.090487    0.036755
      2          6           0        4.204727    2.203262   -0.105408
      3          6           0        5.005636    1.060092   -0.184495
      4          6           0        4.383562   -0.185644   -0.117757
      5          6           0        3.004350   -0.330744    0.023696
      6          6           0        2.223077    0.826073    0.100740
      7          1           0        2.203252    2.983829    0.097398
      8          1           0        4.669321    3.183925   -0.155376
      9          1           0        6.081673    1.118512   -0.294717
     10          1           0        2.570013   -1.321991    0.070596
     11          1           0        1.146207    0.735462    0.211128
     12          7           0        5.221055   -1.403091   -0.200401
     13          8           0        4.648697   -2.489043   -0.139146
     14          8           0        6.433982   -1.248321   -0.324867
     15          6           0       -2.052028    0.875938    0.976305
     16          6           0       -2.834829    1.658245    0.120886
     17          6           0       -4.051944    1.174788   -0.368450
     18          6           0       -4.457593   -0.101139    0.019818
     19          6           0       -3.700018   -0.904593    0.870600
     20          6           0       -2.486357   -0.400732    1.347778
     21          1           0       -1.107886    1.259424    1.351710
     22          1           0       -2.500029    2.650090   -0.169284
     23          1           0       -4.677680    1.759225   -1.032004
     24          1           0       -4.060155   -1.889467    1.142158
     25          1           0       -1.880491   -1.010504    2.011969
     26          7           0       -5.744271   -0.623753   -0.491784
     27          8           0       -6.079367   -1.751092   -0.134778
     28          8           0       -6.393308    0.103857   -1.240095
 ---------------------------------------------------------------------

 SCF Done:  E(RHF) =  -868.336643778     A.U. after   16 cycles
 E2 =    -0.2599782926D+01 EUMP2 =    -0.87093642670459D+03

 The electronic state is 1-A.
 Alpha  occ. eigenvalues --  -20.61274 -20.61273 -20.61268 -20.61266 -15.86332
 Alpha  occ. eigenvalues --  -15.86331 -11.31880 -11.31824 -11.28448 -11.28444
 Alpha  occ. eigenvalues --  -11.28422 -11.28389 -11.28348 -11.28242 -11.27580
 Alpha  occ. eigenvalues --  -11.27548 -11.27543 -11.27431  -1.60345  -1.60344
 Alpha  occ. eigenvalues --   -1.39895  -1.39892  -1.20072  -1.20023  -1.09469
 Alpha  occ. eigenvalues --   -1.09404  -1.05486  -1.05451  -0.96267  -0.96212
 Alpha  occ. eigenvalues --   -0.86894  -0.86857  -0.83096  -0.83028  -0.78077
 Alpha  occ. eigenvalues --   -0.78056  -0.72549  -0.72547  -0.71670  -0.71667
 Alpha  occ. eigenvalues --   -0.71274  -0.71147  -0.65734  -0.65685  -0.65562
 Alpha  occ. eigenvalues --   -0.65423  -0.62818  -0.62801  -0.56154  -0.55930
 Alpha  occ. eigenvalues --   -0.53844  -0.53766  -0.53586  -0.53509  -0.49328
 Alpha  occ. eigenvalues --   -0.49311  -0.49294  -0.49290  -0.45272  -0.45256
 Alpha  occ. eigenvalues --   -0.38112  -0.38025  -0.37074  -0.37050
 Alpha virt. eigenvalues --    0.04393   0.04488   0.10546   0.10581   0.15632
 Alpha virt. eigenvalues --    0.15931   0.18749   0.21840   0.25254   0.26499
 Alpha virt. eigenvalues --    0.27533   0.28926   0.29825   0.31115   0.31975

 Mulliken charges:
               1
     1  C   -0.171151
     2  C   -0.218053
     3  C   -0.169935
     4  C    0.159345
     5  C   -0.170904
     6  C   -0.222920
     7  H    0.222358
     8  H    0.225396
     9  H    0.277839
    10  H    0.276548
    11  H    0.219095
    12  N    0.487994
    13  O   -0.459362
    14  O   -0.458465
    15  C   -0.176692
    16  C   -0.217638
    17  C   -0.170130
    18  C    0.160199
    19  C   -0.169869
    20  C   -0.218944
    21  H    0.219491
    22  H    0.222179
    23  H    0.277772
    24  H    0.278790
    25  H    0.225624
    26  N    0.487861
    27  O   -0.457809
    28  O   -0.458622
 Sum of Mulliken charges =  -0.00000

 Dipole moment (field-independent basis, Debye):
    X=              1.5152    Y=              6.0300    Z=              2.0394  Tot=              6.5434
 Quadrupole moment (field-independent basis, Debye-Ang):
   XX=           -166.4010   YY=           -102.0383   ZZ=           -104.9924
   XY=             12.9493   XZ=             -6.3738   YZ=             -3.6449

 Normal termination of Gaussian 16 at Wed May  5 20:53:56 2021.
