 Gaussian 16, Revision A.03,
 Gaussian 16:  EM64L-G16RevA.03 25-Dec-2016

 -------------
 #p 6-31g* mp2
 -------------

 ------------------------------------------------------
 Input file generated by CHIRIPA (05-May-2021 14:51:12)
 ------------------------------------------------------
 Symbolic Z-matrix:
 Charge =  0 Multiplicity = 1

                         Standard orientation:
 ---------------------------------------------------------------------
 Center     Atomic      Atomic             Coordinates (Angstroms)
 Number     Number       Type             X           Y           Z
 ---------------------------------------------------------------------
      1          6           0        3.504164    0.472857   -0.067451
      2          6           0        4.994039    0.209025   -0.288018
      3          6           0        5.721220    1.404562   -0.904211
      4          1           0        3.038071    0.732071   -1.027925
      5          1           0        3.386735    1.350059    0.583797
      6          1           0        5.108641   -0.668250   -0.937533
      7          1           0        5.456602   -0.049777    0.673062
      8          1           0        5.636520    2.282822   -0.256070
      9          1           0        5.286583    1.660835   -1.875816
     10          1           0        6.784895    1.194214   -1.053238
     11          6           0        2.763522   -0.713078    0.547964
     12          6           0        1.273647   -0.449246    0.768531
     13          6           0        0.546467   -1.644783    1.384724
     14          1           0        2.880952   -1.590280   -0.103284
     15          1           0        3.229615   -0.972292    1.508438
     16          1           0        0.811085   -0.190444   -0.192548
     17          1           0        1.159045    0.428029    1.418046
     18          1           0        0.981104   -1.901056    2.356329
     19          1           0        0.631167   -2.523043    0.736583
     20          1           0       -0.517208   -1.434435    1.533751
     21          6           0       -2.739049   -0.515759   -0.087809
     22          6           0       -3.157460   -1.709777   -0.946434
     23          6           0       -2.358625   -2.974443   -0.629772
     24          1           0       -1.668122   -0.321842   -0.237662
     25          1           0       -2.864544   -0.773862    0.972865
     26          1           0       -3.032523   -1.449012   -2.005211
     27          1           0       -4.227559   -1.900753   -0.794666
     28          1           0       -2.491784   -3.261903    0.418195
     29          1           0       -1.289959   -2.807594   -0.799228
     30          1           0       -2.673999   -3.815574   -1.254991
     31          6           0       -3.528638    0.755980   -0.392704
     32          6           0       -3.110226    1.949998    0.465921
     33          6           0       -3.909062    3.214665    0.149259
     34          1           0       -3.403143    1.014083   -1.453378
     35          1           0       -4.599565    0.562063   -0.242851
     36          1           0       -2.040127    2.140974    0.314152
     37          1           0       -3.235163    1.689233    1.524698
     38          1           0       -4.977728    3.047815    0.318714
     39          1           0       -3.775902    3.502124   -0.898709
     40          1           0       -3.593687    4.055794    0.774478
 ---------------------------------------------------------------------

 SCF Done:  E(RHF) =  -470.730989220     A.U. after   11 cycles
 E2 =    -0.1585034102D+01 EUMP2 =    -0.47231602332183D+03

 The electronic state is 1-A.
 Alpha  occ. eigenvalues --  -11.21607 -11.21597 -11.21593 -11.21584 -11.21408
 Alpha  occ. eigenvalues --  -11.21381 -11.21348 -11.21315 -11.21078 -11.21066
 Alpha  occ. eigenvalues --  -11.20985 -11.20857  -1.08478  -1.08381  -1.03588
 Alpha  occ. eigenvalues --   -1.03444  -0.95970  -0.95949  -0.87007  -0.86954
 Alpha  occ. eigenvalues --   -0.79677  -0.79489  -0.78327  -0.78200  -0.65192
 Alpha  occ. eigenvalues --   -0.64951  -0.61095  -0.60759  -0.59606  -0.59098
 Alpha  occ. eigenvalues --   -0.57758  -0.57425  -0.55345  -0.55157  -0.52767
 Alpha  occ. eigenvalues --   -0.52611  -0.52577  -0.52154  -0.50075  -0.49726
 Alpha  occ. eigenvalues --   -0.47929  -0.47818  -0.46621  -0.46584  -0.45944
 Alpha  occ. eigenvalues --   -0.45738  -0.45712  -0.45452  -0.43771  -0.43690
 Alpha virt. eigenvalues --    0.21331   0.23142   0.23654   0.24780   0.25635
 Alpha virt. eigenvalues --    0.26260   0.26629   0.27299   0.28386   0.29507
 Alpha virt. eigenvalues --    0.30008   0.31198   0.31725   0.32036   0.32163

 Mulliken charges:
               1
     1  C   -0.298285
     2  C   -0.299636
     3  C   -0.475697
     4  H    0.149184
     5  H    0.149536
     6  H    0.151921
     7  H    0.152053
     8  H    0.155195
     9  H    0.155073
    10  H    0.160298
    11  C   -0.297797
    12  C   -0.303163
    13  C   -0.482974
    14  H    0.149353
    15  H    0.150063
    16  H    0.151021
    17  H    0.152412
    18  H    0.154106
    19  H    0.155627
    20  H    0.170158
    21  C   -0.308989
    22  C   -0.298646
    23  C   -0.478063
    24  H    0.160863
    25  H    0.148872
    26  H    0.151220
    27  H    0.151615
    28  H    0.155352
    29  H    0.159436
    30  H    0.159205
    31  C   -0.296717
    32  C   -0.300258
    33  C   -0.475636
    34  H    0.149178
    35  H    0.149427
    36  H    0.152573
    37  H    0.151566
    38  H    0.155170
    39  H    0.155157
    40  H    0.160227
 Sum of Mulliken charges =  -0.00000

 Dipole moment (field-independent basis, Debye):
    X=             -0.0078    Y=             -0.0025    Z=              0.0082  Tot=              0.0116
 Quadrupole moment (field-independent basis, Debye-Ang):
   XX=            -85.1139   YY=            -86.2460   ZZ=            -83.6423
   XY=              0.2431   XZ=             -0.1220   YZ=              0.6043

 Normal termination of Gaussian 16 at Thu May  6 00:43:27 2021.
