 Gaussian 16, Revision A.03,
 Gaussian 16:  EM64L-G16RevA.03 25-Dec-2016

 -------------
 #p 6-31g* mp2
 -------------

 ------------------------------------------------------
 Input file generated by CHIRIPA (05-May-2021 14:55:25)
 ------------------------------------------------------
 Symbolic Z-matrix:
 Charge =  0 Multiplicity = 1

                         Standard orientation:
 ---------------------------------------------------------------------
 Center     Atomic      Atomic             Coordinates (Angstroms)
 Number     Number       Type             X           Y           Z
 ---------------------------------------------------------------------
      1          6           0       -0.713326    0.460672    0.925158
      2          6           0       -1.119439    0.917280   -0.333056
      3          6           0       -2.409347    0.651860   -0.802353
      4          6           0       -3.271109   -0.076281    0.016467
      5          6           0       -2.896039   -0.544776    1.274690
      6          6           0       -1.601356   -0.267615    1.723608
      7          1           0        0.290560    0.671416    1.281804
      8          1           0       -0.431911    1.483111   -0.955298
      9          1           0       -2.749821    0.993382   -1.772331
     10          1           0       -3.603821   -1.106357    1.872260
     11          1           0       -1.288697   -0.623477    2.701182
     12          7           0       -4.639203   -0.363484   -0.469569
     13          8           0       -5.379489   -1.007060    0.270987
     14          8           0       -4.945326    0.060421   -1.581878
     15          6           0        3.584234    0.617097    0.261453
     16          6           0        3.682216    1.955344   -0.471677
     17          6           0        3.049276    3.106055    0.311295
     18          1           0        2.527419    0.390764    0.458582
     19          1           0        4.072678    0.707276    1.241599
     20          1           0        3.194944    1.862266   -1.450716
     21          1           0        4.738909    2.178426   -0.667253
     22          1           0        3.540601    3.227636    1.282078
     23          1           0        1.987863    2.909680    0.494162
     24          1           0        3.130532    4.053216   -0.231055
     25          6           0        4.212579   -0.542994   -0.508676
     26          6           0        4.114597   -1.881241    0.224453
     27          6           0        4.747538   -3.031952   -0.558519
     28          1           0        3.724135   -0.633173   -1.488822
     29          1           0        5.269394   -0.316660   -0.705806
     30          1           0        3.057904   -2.104322    0.420029
     31          1           0        4.601869   -1.788163    1.203493
     32          1           0        5.808950   -2.835576   -0.741386
     33          1           0        4.256212   -3.153532   -1.529301
     34          1           0        4.666281   -3.979113   -0.016169
 ---------------------------------------------------------------------

 SCF Done:  E(RHF) =  -669.535474137     A.U. after   15 cycles
 E2 =    -0.2091719741D+01 EUMP2 =    -0.67162719387826D+03

 The electronic state is 1-A.
 Alpha  occ. eigenvalues --  -20.60762 -20.60757 -15.85816 -11.31188 -11.27756
 Alpha  occ. eigenvalues --  -11.27750 -11.27466 -11.26774 -11.26759 -11.22658
 Alpha  occ. eigenvalues --  -11.22517 -11.22333 -11.22215 -11.22202 -11.21635
 Alpha  occ. eigenvalues --   -1.59837  -1.39391  -1.19358  -1.09386  -1.08750
 Alpha  occ. eigenvalues --   -1.04762  -1.04421  -0.96875  -0.95587  -0.87885
 Alpha  occ. eigenvalues --   -0.86158  -0.82422  -0.80494  -0.79198  -0.77465
 Alpha  occ. eigenvalues --   -0.72033  -0.71160  -0.70490  -0.66030  -0.65007
 Alpha  occ. eigenvalues --   -0.64756  -0.62123  -0.61798  -0.60250  -0.58480
 Alpha  occ. eigenvalues --   -0.56197  -0.55274  -0.53533  -0.53300  -0.53081
 Alpha  occ. eigenvalues --   -0.52850  -0.50822  -0.48810  -0.48790  -0.48780
 Alpha  occ. eigenvalues --   -0.47535  -0.46717  -0.46626  -0.44795  -0.44684
 Alpha  occ. eigenvalues --   -0.37331  -0.36366
 Alpha virt. eigenvalues --    0.05047   0.11262   0.16473   0.18319   0.22663
 Alpha virt. eigenvalues --    0.23703   0.24997   0.25964   0.26851   0.27646
 Alpha virt. eigenvalues --    0.29357   0.29923   0.30965   0.31311   0.31587

 Mulliken charges:
               1
     1  C   -0.176980
     2  C   -0.221608
     3  C   -0.170854
     4  C    0.158526
     5  C   -0.170783
     6  C   -0.219306
     7  H    0.234154
     8  H    0.224015
     9  H    0.275630
    10  H    0.275592
    11  H    0.224027
    12  N    0.488022
    13  O   -0.460359
    14  O   -0.460438
    15  C   -0.303249
    16  C   -0.301019
    17  C   -0.477571
    18  H    0.141854
    19  H    0.152198
    20  H    0.151233
    21  H    0.157518
    22  H    0.158923
    23  H    0.146509
    24  H    0.165651
    25  C   -0.298081
    26  C   -0.300541
    27  C   -0.476245
    28  H    0.151171
    29  H    0.153008
    30  H    0.150884
    31  H    0.152357
    32  H    0.156539
    33  H    0.156929
    34  H    0.162295
 Sum of Mulliken charges =  -0.00000

 Dipole moment (field-independent basis, Debye):
    X=              5.0503    Y=              0.9916    Z=              1.6768  Tot=              5.4130
 Quadrupole moment (field-independent basis, Debye-Ang):
   XX=           -125.0671   YY=            -94.8269   ZZ=            -91.2415
   XY=             -2.4828   XZ=             -6.0755   YZ=             -2.8806

 Normal termination of Gaussian 16 at Wed May  5 22:27:38 2021.
