 Gaussian 16, Revision A.03,
 Gaussian 16:  EM64L-G16RevA.03 25-Dec-2016

 -------------
 #p 6-31g* mp2
 -------------

 ------------------------------------------------------
 Input file generated by CHIRIPA (05-May-2021 14:57:22)
 ------------------------------------------------------
 Symbolic Z-matrix:
 Charge =  0 Multiplicity = 1

                         Standard orientation:
 ---------------------------------------------------------------------
 Center     Atomic      Atomic             Coordinates (Angstroms)
 Number     Number       Type             X           Y           Z
 ---------------------------------------------------------------------
      1          6           0       -5.768448    1.154698    0.893707
      2          6           0       -5.669692   -0.232329    1.045116
      3          6           0       -4.551819   -0.921152    0.565085
      4          6           0       -3.546804   -0.188119   -0.064119
      5          6           0       -3.616079    1.194242   -0.230161
      6          6           0       -4.743134    1.862309    0.257673
      7          1           0       -6.640405    1.681731    1.269637
      8          1           0       -6.464435   -0.784460    1.538653
      9          1           0       -4.449672   -1.994561    0.668899
     10          1           0       -2.807729    1.717324   -0.726520
     11          1           0       -4.817136    2.939532    0.138681
     12          7           0       -2.358502   -0.906358   -0.576436
     13          8           0       -1.486684   -0.237498   -1.127070
     14          8           0       -2.321428   -2.124575   -0.417656
     15          6           0        6.023443    0.347798    1.022082
     16          6           0        5.447159    1.402974    0.307226
     17          6           0        4.183966    1.260129   -0.274570
     18          6           0        3.522153    0.042863   -0.121092
     19          6           0        4.069853   -1.026950    0.585175
     20          6           0        5.334166   -0.861665    1.158535
     21          1           0        7.005157    0.467479    1.470758
     22          1           0        5.980155    2.343391    0.199633
     23          1           0        3.714475    2.060674   -0.833250
     24          1           0        3.514240   -1.952467    0.675347
     25          1           0        5.779268   -1.682841    1.713151
     26          7           0        2.184273   -0.120239   -0.732548
     27          8           0        1.621727   -1.202730   -0.582913
     28          8           0        1.723524    0.837502   -1.349865
 ---------------------------------------------------------------------

 SCF Done:  E(RHF) =  -868.333824811     A.U. after   16 cycles
 E2 =    -0.2601327100D+01 EUMP2 =    -0.87093515191066D+03

 The electronic state is 1-A.
 Alpha  occ. eigenvalues --  -20.59470 -20.59423 -20.59291 -20.59174 -15.84536
 Alpha  occ. eigenvalues --  -15.84304 -11.30389 -11.30198 -11.27030 -11.26994
 Alpha  occ. eigenvalues --  -11.26852 -11.26847 -11.26802 -11.26686 -11.26146
 Alpha  occ. eigenvalues --  -11.26123 -11.25979 -11.25957  -1.58507  -1.58308
 Alpha  occ. eigenvalues --   -1.38060  -1.37851  -1.18606  -1.18426  -1.07907
 Alpha  occ. eigenvalues --   -1.07723  -1.04080  -1.03904  -0.94667  -0.94451
 Alpha  occ. eigenvalues --   -0.85455  -0.85278  -0.81498  -0.81290  -0.76457
 Alpha  occ. eigenvalues --   -0.76247  -0.70721  -0.70506  -0.69905  -0.69709
 Alpha  occ. eigenvalues --   -0.69652  -0.69527  -0.64244  -0.64101  -0.64043
 Alpha  occ. eigenvalues --   -0.63912  -0.61422  -0.61243  -0.54565  -0.54396
 Alpha  occ. eigenvalues --   -0.52386  -0.52212  -0.52178  -0.52003  -0.47841
 Alpha  occ. eigenvalues --   -0.47468  -0.47237  -0.46826  -0.43377  -0.43127
 Alpha  occ. eigenvalues --   -0.36617  -0.36442  -0.35708  -0.35535
 Alpha virt. eigenvalues --    0.06048   0.06311   0.11938   0.12111   0.17476
 Alpha virt. eigenvalues --    0.17696   0.22017   0.22183   0.27895   0.28059
 Alpha virt. eigenvalues --    0.28950   0.29134   0.31532   0.31697   0.33218

 Mulliken charges:
               1
     1  C   -0.172654
     2  C   -0.218682
     3  C   -0.172218
     4  C    0.158891
     5  C   -0.172556
     6  C   -0.218821
     7  H    0.221768
     8  H    0.219913
     9  H    0.273974
    10  H    0.279176
    11  H    0.220405
    12  N    0.485614
    13  O   -0.440393
    14  O   -0.465053
    15  C   -0.172496
    16  C   -0.218519
    17  C   -0.172272
    18  C    0.159421
    19  C   -0.172019
    20  C   -0.218554
    21  H    0.222513
    22  H    0.220309
    23  H    0.273637
    24  H    0.276905
    25  H    0.221210
    26  N    0.486153
    27  O   -0.446076
    28  O   -0.459576
 Sum of Mulliken charges =  -0.00000

 Dipole moment (field-independent basis, Debye):
    X=              0.6103    Y=              2.9958    Z=              3.7448  Tot=              4.8343
 Quadrupole moment (field-independent basis, Debye-Ang):
   XX=            -46.0768   YY=            -98.1635   ZZ=           -105.9849
   XY=             -4.1227   XZ=              0.2331   YZ=             -4.0187

 Normal termination of Gaussian 16 at Fri May  7 00:14:34 2021.
