 Gaussian 16, Revision A.03,
 Gaussian 16:  EM64L-G16RevA.03 25-Dec-2016

 -------------
 #p 6-31g* mp2
 -------------

 ------------------------------------------------------
 Input file generated by CHIRIPA (05-May-2021 14:57:23)
 ------------------------------------------------------
 Symbolic Z-matrix:
 Charge =  0 Multiplicity = 1

                         Standard orientation:
 ---------------------------------------------------------------------
 Center     Atomic      Atomic             Coordinates (Angstroms)
 Number     Number       Type             X           Y           Z
 ---------------------------------------------------------------------
      1          6           0        5.025106    1.283524   -0.322464
      2          6           0        3.977310    1.663066    0.522872
      3          6           0        2.936442    0.773936    0.806755
      4          6           0        2.975341   -0.492547    0.225553
      5          6           0        4.005416   -0.900201   -0.620646
      6          6           0        5.035796    0.005355   -0.890523
      7          1           0        5.829604    1.980601   -0.537551
      8          1           0        3.966395    2.655062    0.965443
      9          1           0        2.113035    1.041730    1.457682
     10          1           0        3.988767   -1.895882   -1.046980
     11          1           0        5.848245   -0.292131   -1.547389
     12          7           0        1.878972   -1.442524    0.518674
     13          8           0        1.936484   -2.552549   -0.005897
     14          8           0        0.982885   -1.059103    1.267442
     15          6           0       -4.304995   -1.909218   -0.107251
     16          6           0       -5.003010   -0.753941    0.259669
     17          6           0       -4.376463    0.495365    0.224717
     18          6           0       -3.044958    0.553037   -0.184010
     19          6           0       -2.322751   -0.579929   -0.555619
     20          6           0       -2.969449   -1.818685   -0.513009
     21          1           0       -4.799538   -2.875611   -0.077125
     22          1           0       -6.040293   -0.821241    0.575199
     23          1           0       -4.893233    1.405682    0.503448
     24          1           0       -1.289582   -0.481139   -0.865808
     25          1           0       -2.424886   -2.714218   -0.798523
     26          7           0       -2.370995    1.870037   -0.225066
     27          8           0       -1.197224    1.894082   -0.588823
     28          8           0       -3.029277    2.853319    0.107290
 ---------------------------------------------------------------------

 SCF Done:  E(RHF) =  -868.340167516     A.U. after   16 cycles
 E2 =    -0.2598586102D+01 EUMP2 =    -0.87093875361793D+03

 The electronic state is 1-A.
 Alpha  occ. eigenvalues --  -20.60943 -20.60907 -20.60229 -20.60220 -15.85947
 Alpha  occ. eigenvalues --  -15.85270 -11.30973 -11.30342 -11.27573 -11.27450
 Alpha  occ. eigenvalues --  -11.27241 -11.26966 -11.26812 -11.26638 -11.26517
 Alpha  occ. eigenvalues --  -11.26417 -11.25941 -11.25763  -1.60008  -1.59302
 Alpha  occ. eigenvalues --   -1.39561  -1.38864  -1.19131  -1.18506  -1.08601
 Alpha  occ. eigenvalues --   -1.07969  -1.04481  -1.03857  -0.95485  -0.94847
 Alpha  occ. eigenvalues --   -0.85902  -0.85284  -0.82325  -0.81684  -0.77400
 Alpha  occ. eigenvalues --   -0.76751  -0.72179  -0.71520  -0.71315  -0.70607
 Alpha  occ. eigenvalues --   -0.70251  -0.69638  -0.64793  -0.64494  -0.64169
 Alpha  occ. eigenvalues --   -0.63871  -0.61829  -0.61208  -0.55026  -0.54423
 Alpha  occ. eigenvalues --   -0.52831  -0.52576  -0.52212  -0.51956  -0.48949
 Alpha  occ. eigenvalues --   -0.48917  -0.48263  -0.48238  -0.45034  -0.44330
 Alpha  occ. eigenvalues --   -0.37112  -0.36502  -0.36057  -0.35421
 Alpha virt. eigenvalues --    0.05068   0.05782   0.11596   0.12216   0.16644
 Alpha virt. eigenvalues --    0.17299   0.21705   0.22284   0.27659   0.28137
 Alpha virt. eigenvalues --    0.28590   0.29069   0.31242   0.31828   0.32774

 Mulliken charges:
               1
     1  C   -0.169645
     2  C   -0.218104
     3  C   -0.164133
     4  C    0.156054
     5  C   -0.171376
     6  C   -0.219016
     7  H    0.225736
     8  H    0.226407
     9  H    0.280989
    10  H    0.272885
    11  H    0.222220
    12  N    0.486129
    13  O   -0.466109
    14  O   -0.460142
    15  C   -0.170813
    16  C   -0.219411
    17  C   -0.172030
    18  C    0.155622
    19  C   -0.158556
    20  C   -0.217766
    21  H    0.223665
    22  H    0.219953
    23  H    0.271963
    24  H    0.276088
    25  H    0.229557
    26  N    0.488914
    27  O   -0.464899
    28  O   -0.464181
 Sum of Mulliken charges =  -0.00000

 Dipole moment (field-independent basis, Debye):
    X=              1.7027    Y=             -1.2863    Z=             -0.8278  Tot=              2.2888
 Quadrupole moment (field-independent basis, Debye-Ang):
   XX=            -64.3899   YY=           -110.9764   ZZ=           -104.4950
   XY=             18.2978   XZ=             -5.2091   YZ=              5.4718

 Normal termination of Gaussian 16 at Thu May  6 01:51:15 2021.
