 Gaussian 16, Revision A.03,
 Gaussian 16:  EM64L-G16RevA.03 25-Dec-2016

 -------------
 #p 6-31g* mp2
 -------------

 ------------------------------------------------------
 Input file generated by CHIRIPA (05-May-2021 14:51:10)
 ------------------------------------------------------
 Symbolic Z-matrix:
 Charge =  0 Multiplicity = 1

                         Standard orientation:
 ---------------------------------------------------------------------
 Center     Atomic      Atomic             Coordinates (Angstroms)
 Number     Number       Type             X           Y           Z
 ---------------------------------------------------------------------
      1          6           0        3.200015    0.618364    0.031255
      2          6           0        3.235015    2.034980   -0.543164
      3          6           0        2.012734    2.863830   -0.147141
      4          1           0        2.286278    0.113331   -0.310756
      5          1           0        3.134065    0.675861    1.126582
      6          1           0        3.302274    1.974826   -1.636998
      7          1           0        4.148869    2.536633   -0.199901
      8          1           0        1.944491    2.953523    0.941849
      9          1           0        1.093085    2.388524   -0.503414
     10          1           0        2.058301    3.872921   -0.568471
     11          6           0        4.415224   -0.222536   -0.355891
     12          6           0        4.380224   -1.639152    0.218528
     13          6           0        5.602504   -2.468002   -0.177494
     14          1           0        4.481174   -0.280033   -1.451217
     15          1           0        5.328961    0.282496   -0.013880
     16          1           0        3.466369   -2.140806   -0.124734
     17          1           0        4.312965   -1.578998    1.312363
     18          1           0        6.522154   -1.992696    0.178778
     19          1           0        5.670748   -2.557695   -1.266484
     20          1           0        5.556938   -3.477093    0.243835
     21          6           0       -3.284697    0.028820    0.670821
     22          6           0       -1.847433   -0.125062    0.172241
     23          6           0       -0.812758    0.332699    1.200684
     24          1           0       -3.465054    1.080756    0.931292
     25          1           0       -3.407604   -0.548223    1.597811
     26          1           0       -1.727654    0.450981   -0.754281
     27          1           0       -1.670536   -1.176720   -0.087253
     28          1           0       -0.903389   -0.249205    2.123601
     29          1           0       -0.960832    1.387745    1.452784
     30          1           0        0.207823    0.213990    0.823614
     31          6           0       -4.330543   -0.424647   -0.346185
     32          6           0       -5.767805   -0.270766    0.152394
     33          6           0       -6.802480   -0.728527   -0.876049
     34          1           0       -4.207635    0.152395   -1.273176
     35          1           0       -4.150185   -1.476584   -0.606656
     36          1           0       -5.944703    0.780893    0.411889
     37          1           0       -5.887585   -0.846809    1.078916
     38          1           0       -6.654407   -1.783573   -1.128148
     39          1           0       -6.711849   -0.146623   -1.798965
     40          1           0       -7.823062   -0.609818   -0.498978
 ---------------------------------------------------------------------

 SCF Done:  E(RHF) =  -470.732735045     A.U. after   11 cycles
 E2 =    -0.1583270015D+01 EUMP2 =    -0.47231600506046D+03

 The electronic state is 1-A.
 Alpha  occ. eigenvalues --  -11.21612 -11.21606 -11.21586 -11.21573 -11.21425
 Alpha  occ. eigenvalues --  -11.21380 -11.21365 -11.21320 -11.21078 -11.21060
 Alpha  occ. eigenvalues --  -11.21022 -11.20911  -1.08455  -1.08397  -1.03554
 Alpha  occ. eigenvalues --   -1.03473  -0.95988  -0.95931  -0.87004  -0.86952
 Alpha  occ. eigenvalues --   -0.79656  -0.79507  -0.78279  -0.78211  -0.65092
 Alpha  occ. eigenvalues --   -0.65029  -0.60977  -0.60863  -0.59523  -0.59159
 Alpha  occ. eigenvalues --   -0.57606  -0.57544  -0.55315  -0.55175  -0.52741
 Alpha  occ. eigenvalues --   -0.52602  -0.52466  -0.52303  -0.49949  -0.49847
 Alpha  occ. eigenvalues --   -0.47961  -0.47823  -0.46621  -0.46589  -0.45792
 Alpha  occ. eigenvalues --   -0.45765  -0.45708  -0.45684  -0.43798  -0.43656
 Alpha virt. eigenvalues --    0.21461   0.23085   0.23511   0.24978   0.26381
 Alpha virt. eigenvalues --    0.26527   0.26838   0.27498   0.27644   0.29384
 Alpha virt. eigenvalues --    0.30526   0.30819   0.31432   0.31995   0.32164

 Mulliken charges:
               1
     1  C   -0.303102
     2  C   -0.299590
     3  C   -0.478149
     4  H    0.152628
     5  H    0.150637
     6  H    0.151625
     7  H    0.151948
     8  H    0.155898
     9  H    0.158946
    10  H    0.159504
    11  C   -0.297384
    12  C   -0.299767
    13  C   -0.475719
    14  H    0.149497
    15  H    0.149818
    16  H    0.151792
    17  H    0.152137
    18  H    0.155232
    19  H    0.155194
    20  H    0.160311
    21  C   -0.298159
    22  C   -0.300461
    23  C   -0.484471
    24  H    0.149801
    25  H    0.149604
    26  H    0.151016
    27  H    0.151367
    28  H    0.154134
    29  H    0.155750
    30  H    0.170307
    31  C   -0.298206
    32  C   -0.299633
    33  C   -0.475684
    34  H    0.149364
    35  H    0.149480
    36  H    0.151968
    37  H    0.151909
    38  H    0.155113
    39  H    0.155135
    40  H    0.160213
 Sum of Mulliken charges =  -0.00000

 Dipole moment (field-independent basis, Debye):
    X=              0.0402    Y=              0.0084    Z=              0.0059  Tot=              0.0415
 Quadrupole moment (field-independent basis, Debye-Ang):
   XX=            -86.0116   YY=            -84.4007   ZZ=            -84.3995
   XY=              0.4585   XZ=              0.0742   YZ=             -0.4105

 Normal termination of Gaussian 16 at Thu May  6 02:12:23 2021.
