 Gaussian 16, Revision A.03,
 Gaussian 16:  EM64L-G16RevA.03 25-Dec-2016

 -------------
 #p 6-31g* mp2
 -------------

 ------------------------------------------------------
 Input file generated by CHIRIPA (05-May-2021 14:53:14)
 ------------------------------------------------------
 Symbolic Z-matrix:
 Charge =  0 Multiplicity = 1

                         Standard orientation:
 ---------------------------------------------------------------------
 Center     Atomic      Atomic             Coordinates (Angstroms)
 Number     Number       Type             X           Y           Z
 ---------------------------------------------------------------------
      1          6           0        3.034731    0.839595   -0.050971
      2          6           0        3.902467    2.068419   -0.324850
      3          6           0        3.076998    3.327982   -0.589228
      4          1           0        2.369060    0.670199   -0.908370
      5          1           0        2.386472    1.042268    0.812788
      6          1           0        4.549880    1.862982   -1.186980
      7          1           0        4.566283    2.234796    0.533219
      8          1           0        2.442371    3.560488    0.272045
      9          1           0        2.425875    3.186562   -1.457928
     10          1           0        3.717244    4.194328   -0.782590
     11          6           0        3.845553   -0.427475    0.215169
     12          6           0        2.977817   -1.656299    0.489049
     13          6           0        3.803286   -2.915862    0.753426
     14          1           0        4.493812   -0.630149   -0.648589
     15          1           0        4.511223   -0.258079    1.072568
     16          1           0        2.314000   -1.822676   -0.369020
     17          1           0        2.330404   -1.450862    1.351179
     18          1           0        4.454409   -2.774442    1.622127
     19          1           0        4.437913   -3.148368   -0.107846
     20          1           0        3.163039   -3.782208    0.946789
     21          6           0       -4.901601    0.845507    0.607534
     22          6           0       -4.859791   -0.191430   -0.330301
     23          6           0       -3.638724   -0.756620   -0.709913
     24          6           0       -2.473570   -0.258288   -0.129075
     25          6           0       -2.482505    0.773790    0.807955
     26          6           0       -3.714918    1.323964    1.172672
     27          1           0       -5.854562    1.278727    0.896641
     28          1           0       -5.779797   -0.565006   -0.770839
     29          1           0       -3.577484   -1.560305   -1.433623
     30          1           0       -1.548666    1.125107    1.229780
     31          1           0       -3.744362    2.129166    1.901252
     32          7           0       -1.174877   -0.848681   -0.523070
     33          8           0       -0.162501   -0.391851    0.003276
     34          8           0       -1.193927   -1.757081   -1.350766
 ---------------------------------------------------------------------

 SCF Done:  E(RHF) =  -669.535375100     A.U. after   15 cycles
 E2 =    -0.2092691687D+01 EUMP2 =    -0.67162806678686D+03

 The electronic state is 1-A.
 Alpha  occ. eigenvalues --  -20.61026 -20.61019 -15.86035 -11.31341 -11.27901
 Alpha  occ. eigenvalues --  -11.27898 -11.27634 -11.26902 -11.26892 -11.20545
 Alpha  occ. eigenvalues --  -11.20327 -11.19926 -11.19795 -11.19695 -11.19634
 Alpha  occ. eigenvalues --   -1.60084  -1.39642  -1.19507  -1.08919  -1.06990
 Alpha  occ. eigenvalues --   -1.04899  -1.02211  -0.95766  -0.94718  -0.86301
 Alpha  occ. eigenvalues --   -0.85750  -0.82609  -0.78253  -0.77678  -0.76700
 Alpha  occ. eigenvalues --   -0.72223  -0.71390  -0.70616  -0.65162  -0.64903
 Alpha  occ. eigenvalues --   -0.63647  -0.62247  -0.59629  -0.58108  -0.56289
 Alpha  occ. eigenvalues --   -0.55406  -0.54039  -0.53232  -0.52991  -0.51477
 Alpha  occ. eigenvalues --   -0.51146  -0.49107  -0.49029  -0.48705  -0.46593
 Alpha  occ. eigenvalues --   -0.45274  -0.45029  -0.44217  -0.44017  -0.42425
 Alpha  occ. eigenvalues --   -0.37484  -0.36499
 Alpha virt. eigenvalues --    0.04854   0.11157   0.16344   0.21236   0.24092
 Alpha virt. eigenvalues --    0.25483   0.27037   0.27609   0.28367   0.28908
 Alpha virt. eigenvalues --    0.29446   0.31027   0.32353   0.32609   0.32982

 Mulliken charges:
               1
     1  C   -0.293042
     2  C   -0.299268
     3  C   -0.473309
     4  H    0.161675
     5  H    0.147850
     6  H    0.148983
     7  H    0.147026
     8  H    0.150049
     9  H    0.154536
    10  H    0.155853
    11  C   -0.299728
    12  C   -0.296078
    13  C   -0.475795
    14  H    0.143950
    15  H    0.141249
    16  H    0.171699
    17  H    0.151371
    18  H    0.147754
    19  H    0.150596
    20  H    0.157331
    21  C   -0.170490
    22  C   -0.218599
    23  C   -0.170448
    24  C    0.157268
    25  C   -0.170552
    26  C   -0.218512
    27  H    0.226192
    28  H    0.223960
    29  H    0.275884
    30  H    0.275703
    31  H    0.224053
    32  N    0.492921
    33  O   -0.460303
    34  O   -0.459780
 Sum of Mulliken charges =  -0.00000

 Dipole moment (field-independent basis, Debye):
    X=             -5.0479    Y=              1.9959    Z=              1.2864  Tot=              5.5785
 Quadrupole moment (field-independent basis, Debye-Ang):
   XX=            -73.5278   YY=            -96.3275   ZZ=            -92.8977
   XY=             -1.9982   XZ=             -1.7046   YZ=              2.4092

 Normal termination of Gaussian 16 at Thu May  6 02:37:07 2021.
