 Gaussian 16, Revision A.03,
 Gaussian 16:  EM64L-G16RevA.03 25-Dec-2016

 -------------
 #p 6-31g* mp2
 -------------

 ------------------------------------------------------
 Input file generated by CHIRIPA (05-May-2021 14:53:16)
 ------------------------------------------------------
 Symbolic Z-matrix:
 Charge =  0 Multiplicity = 1

                         Standard orientation:
 ---------------------------------------------------------------------
 Center     Atomic      Atomic             Coordinates (Angstroms)
 Number     Number       Type             X           Y           Z
 ---------------------------------------------------------------------
      1          6           0        3.059533    0.761346   -0.711425
      2          6           0        2.087902    1.886599   -0.354041
      3          6           0        2.442529    3.211023   -1.030751
      4          1           0        4.077423    1.059829   -0.425502
      5          1           0        3.068093    0.626260   -1.801871
      6          1           0        2.080140    2.018592    0.735516
      7          1           0        1.072180    1.585324   -0.640672
      8          1           0        2.431292    3.102181   -2.120075
      9          1           0        3.444980    3.537911   -0.736068
     10          1           0        1.735085    4.001510   -0.761469
     11          6           0        2.718202   -0.569019   -0.042583
     12          6           0        3.689832   -1.694272   -0.399967
     13          6           0        3.335205   -3.018695    0.276743
     14          1           0        2.709641   -0.433932    1.047864
     15          1           0        1.700311   -0.867502   -0.328506
     16          1           0        4.705554   -1.392997   -0.113335
     17          1           0        3.697594   -1.826265   -1.489524
     18          1           0        2.332755   -3.345584   -0.017940
     19          1           0        3.346442   -2.909854    1.366067
     20          1           0        4.042649   -3.809182    0.007461
     21          6           0       -0.568107    0.810044    1.946890
     22          6           0       -1.537457    1.664341    1.411111
     23          6           0       -2.478169    1.184779    0.494799
     24          6           0       -2.420196   -0.160703    0.134791
     25          6           0       -1.466634   -1.036775    0.651034
     26          6           0       -0.535847   -0.535415    1.565814
     27          1           0        0.158806    1.191045    2.658108
     28          1           0       -1.564899    2.709702    1.705242
     29          1           0       -3.239394    1.824164    0.064517
     30          1           0       -1.464452   -2.074001    0.338663
     31          1           0        0.215832   -1.201178    1.980282
     32          7           0       -3.410833   -0.679931   -0.834457
     33          8           0       -3.338506   -1.869391   -1.135442
     34          8           0       -4.240864    0.112388   -1.274815
 ---------------------------------------------------------------------

 SCF Done:  E(RHF) =  -669.533927586     A.U. after   15 cycles
 E2 =    -0.2094822982D+01 EUMP2 =    -0.67162875056851D+03

 The electronic state is 1-A.
 Alpha  occ. eigenvalues --  -20.60781 -20.60776 -15.85835 -11.31200 -11.27758
 Alpha  occ. eigenvalues --  -11.27744 -11.27455 -11.26767 -11.26708 -11.22134
 Alpha  occ. eigenvalues --  -11.22058 -11.21977 -11.21863 -11.21717 -11.21517
 Alpha  occ. eigenvalues --   -1.59858  -1.39411  -1.19370  -1.09012  -1.08729
 Alpha  occ. eigenvalues --   -1.04770  -1.04066  -0.96529  -0.95596  -0.87547
 Alpha  occ. eigenvalues --   -0.86160  -0.82432  -0.80131  -0.78853  -0.77459
 Alpha  occ. eigenvalues --   -0.72052  -0.71183  -0.70470  -0.65615  -0.65008
 Alpha  occ. eigenvalues --   -0.64757  -0.62117  -0.61459  -0.59906  -0.58151
 Alpha  occ. eigenvalues --   -0.55822  -0.55261  -0.53395  -0.53023  -0.52992
 Alpha  occ. eigenvalues --   -0.52791  -0.50470  -0.48817  -0.48808  -0.48449
 Alpha  occ. eigenvalues --   -0.47162  -0.46348  -0.46212  -0.44818  -0.44320
 Alpha  occ. eigenvalues --   -0.37226  -0.36310
 Alpha virt. eigenvalues --    0.05011   0.11222   0.16414   0.19989   0.22900
 Alpha virt. eigenvalues --    0.23077   0.25203   0.26513   0.27125   0.28261
 Alpha virt. eigenvalues --    0.29316   0.29712   0.31242   0.31511   0.31819

 Mulliken charges:
               1
     1  C   -0.298551
     2  C   -0.300433
     3  C   -0.475629
     4  H    0.149490
     5  H    0.153006
     6  H    0.140840
     7  H    0.160970
     8  H    0.158354
     9  H    0.155016
    10  H    0.157759
    11  C   -0.300698
    12  C   -0.299305
    13  C   -0.476987
    14  H    0.138275
    15  H    0.155057
    16  H    0.152892
    17  H    0.155798
    18  H    0.153586
    19  H    0.150786
    20  H    0.164757
    21  C   -0.166570
    22  C   -0.218603
    23  C   -0.172204
    24  C    0.158437
    25  C   -0.174700
    26  C   -0.214475
    27  H    0.224983
    28  H    0.223417
    29  H    0.275545
    30  H    0.275313
    31  H    0.226791
    32  N    0.488085
    33  O   -0.460592
    34  O   -0.460412
 Sum of Mulliken charges =  -0.00000

 Dipole moment (field-independent basis, Debye):
    X=              3.5160    Y=              1.8198    Z=              3.3266  Tot=              5.1711
 Quadrupole moment (field-independent basis, Debye-Ang):
   XX=           -111.2410   YY=            -92.3946   ZZ=            -94.0057
   XY=             -7.3737   XZ=             -7.5275   YZ=              0.0504

 Normal termination of Gaussian 16 at Thu May  6 07:30:58 2021.
