 Gaussian 16, Revision A.03,
 Gaussian 16:  EM64L-G16RevA.03 25-Dec-2016

 -------------
 #p 6-31g* mp2
 -------------

 ------------------------------------------------------
 Input file generated by CHIRIPA (05-May-2021 14:55:21)
 ------------------------------------------------------
 Symbolic Z-matrix:
 Charge =  0 Multiplicity = 1

                         Standard orientation:
 ---------------------------------------------------------------------
 Center     Atomic      Atomic             Coordinates (Angstroms)
 Number     Number       Type             X           Y           Z
 ---------------------------------------------------------------------
      1          6           0        0.710810    0.093596    0.882632
      2          6           0        1.414198   -1.091087    1.124068
      3          6           0        2.738752   -1.229645    0.698736
      4          6           0        3.331650   -0.158662    0.031835
      5          6           0        2.657224    1.034303   -0.223659
      6          6           0        1.333470    1.150647    0.210724
      7          1           0       -0.317824    0.192603    1.216555
      8          1           0        0.933174   -1.913654    1.645646
      9          1           0        3.306566   -2.135638    0.872461
     10          1           0        3.163509    1.836913   -0.746066
     11          1           0        0.789650    2.071856    0.021839
     12          7           0        4.733472   -0.293588   -0.423236
     13          8           0        5.233210    0.664610   -1.008689
     14          8           0        5.305939   -1.354987   -0.185850
     15          6           0       -3.620375    0.714033    0.276867
     16          6           0       -3.479161    2.046407   -0.459899
     17          6           0       -2.780185    3.115473    0.380532
     18          1           0       -4.180736    0.874822    1.208043
     19          1           0       -2.623141    0.357488    0.569775
     20          1           0       -4.476253    2.399650   -0.752544
     21          1           0       -2.919236    1.882394   -1.389523
     22          1           0       -1.773860    2.787992    0.661008
     23          1           0       -3.339724    3.308188    1.301606
     24          1           0       -2.689828    4.059749   -0.165398
     25          6           0       -4.317193   -0.364788   -0.550366
     26          6           0       -4.458407   -1.697162    0.186400
     27          6           0       -5.157383   -2.766227   -0.654032
     28          1           0       -5.314427   -0.008242   -0.843275
     29          1           0       -3.756832   -0.525576   -1.481542
     30          1           0       -5.018332   -1.533148    1.116024
     31          1           0       -3.461315   -2.050405    0.479045
     32          1           0       -4.597845   -2.958943   -1.575105
     33          1           0       -6.163709   -2.438747   -0.934509
     34          1           0       -5.247740   -3.710503   -0.108102
 ---------------------------------------------------------------------

 SCF Done:  E(RHF) =  -669.535349713     A.U. after   15 cycles
 E2 =    -0.2091810083D+01 EUMP2 =    -0.67162715979600D+03

 The electronic state is 1-A.
 Alpha  occ. eigenvalues --  -20.60751 -20.60746 -15.85805 -11.31173 -11.27741
 Alpha  occ. eigenvalues --  -11.27737 -11.27460 -11.26757 -11.26744 -11.22642
 Alpha  occ. eigenvalues --  -11.22524 -11.22416 -11.22261 -11.22241 -11.21708
 Alpha  occ. eigenvalues --   -1.59827  -1.39380  -1.19344  -1.09408  -1.08738
 Alpha  occ. eigenvalues --   -1.04748  -1.04462  -0.96921  -0.95575  -0.87932
 Alpha  occ. eigenvalues --   -0.86146  -0.82409  -0.80531  -0.79222  -0.77453
 Alpha  occ. eigenvalues --   -0.72023  -0.71150  -0.70480  -0.66049  -0.64996
 Alpha  occ. eigenvalues --   -0.64752  -0.62133  -0.61818  -0.60289  -0.58524
 Alpha  occ. eigenvalues --   -0.56263  -0.55248  -0.53583  -0.53341  -0.53075
 Alpha  occ. eigenvalues --   -0.52833  -0.50858  -0.48840  -0.48781  -0.48776
 Alpha  occ. eigenvalues --   -0.47568  -0.46748  -0.46657  -0.44785  -0.44723
 Alpha  occ. eigenvalues --   -0.37321  -0.36352
 Alpha virt. eigenvalues --    0.05068   0.11296   0.16492   0.18238   0.22617
 Alpha virt. eigenvalues --    0.23473   0.24853   0.25547   0.26340   0.28023
 Alpha virt. eigenvalues --    0.29417   0.30014   0.30913   0.31257   0.31439

 Mulliken charges:
               1
     1  C   -0.177474
     2  C   -0.220440
     3  C   -0.170866
     4  C    0.158674
     5  C   -0.170865
     6  C   -0.224440
     7  H    0.235228
     8  H    0.223693
     9  H    0.275537
    10  H    0.275768
    11  H    0.227071
    12  N    0.487925
    13  O   -0.460417
    14  O   -0.460443
    15  C   -0.302833
    16  C   -0.301119
    17  C   -0.477912
    18  H    0.152821
    19  H    0.141377
    20  H    0.157338
    21  H    0.153972
    22  H    0.144758
    23  H    0.159901
    24  H    0.165233
    25  C   -0.298700
    26  C   -0.299384
    27  C   -0.476349
    28  H    0.153127
    29  H    0.152299
    30  H    0.153138
    31  H    0.147334
    32  H    0.156959
    33  H    0.157161
    34  H    0.161925
 Sum of Mulliken charges =  -0.00000

 Dipole moment (field-independent basis, Debye):
    X=             -5.2058    Y=              0.4946    Z=              1.5274  Tot=              5.4478
 Quadrupole moment (field-independent basis, Debye-Ang):
   XX=           -126.5749   YY=            -91.0295   ZZ=            -94.7464
   XY=              1.3357   XZ=              4.9258   YZ=             -2.6217

 Normal termination of Gaussian 16 at Thu May  6 06:11:14 2021.
