 Gaussian 16, Revision A.03,
 Gaussian 16:  EM64L-G16RevA.03 25-Dec-2016

 -------------
 #p 6-31g* mp2
 -------------

 ------------------------------------------------------
 Input file generated by CHIRIPA (05-May-2021 14:51:13)
 ------------------------------------------------------
 Symbolic Z-matrix:
 Charge =  0 Multiplicity = 1

                         Standard orientation:
 ---------------------------------------------------------------------
 Center     Atomic      Atomic             Coordinates (Angstroms)
 Number     Number       Type             X           Y           Z
 ---------------------------------------------------------------------
      1          6           0        3.745557   -0.393871    0.157621
      2          6           0        4.149589    0.487054   -1.025052
      3          6           0        5.664691    0.560432   -1.217082
      4          1           0        4.214185   -0.006042    1.072455
      5          1           0        4.146293   -1.405698    0.005930
      6          1           0        3.747037    1.496557   -0.871844
      7          1           0        3.679789    0.097196   -1.937145
      8          1           0        6.079219   -0.437121   -1.395003
      9          1           0        6.146849    0.970191   -0.323649
     10          1           0        5.931261    1.195276   -2.067830
     11          6           0        2.233987   -0.477151    0.362436
     12          6           0        1.829955   -1.358076    1.545109
     13          6           0        0.314852   -1.431454    1.737138
     14          1           0        1.833250    0.534676    0.514127
     15          1           0        1.765358   -0.864980   -0.552398
     16          1           0        2.299754   -0.968218    2.457202
     17          1           0        2.232506   -2.367579    1.391901
     18          1           0       -0.167306   -1.841213    0.843706
     19          1           0       -0.099675   -0.433901    1.915060
     20          1           0        0.048282   -2.066299    2.587887
     21          6           0       -2.860772    1.166754   -0.439121
     22          6           0       -2.392203    2.008319    0.748396
     23          6           0       -2.138300    3.468924    0.374282
     24          1           0       -2.106378    1.216777   -1.236199
     25          1           0       -3.780045    1.605911   -0.850794
     26          1           0       -1.474851    1.566914    1.158568
     27          1           0       -3.147712    1.956132    1.542813
     28          1           0       -3.051229    3.931214   -0.014884
     29          1           0       -1.368862    3.539784   -0.401312
     30          1           0       -1.804190    4.052315    1.237929
     31          6           0       -3.118771   -0.295732   -0.080936
     32          6           0       -3.587340   -1.137298   -1.268453
     33          6           0       -3.841244   -2.597902   -0.894339
     34          1           0       -2.199499   -0.734888    0.330738
     35          1           0       -3.873166   -0.345754    0.716142
     36          1           0       -2.831831   -1.085111   -2.062870
     37          1           0       -4.504692   -0.695891   -1.678626
     38          1           0       -4.610681   -2.668761   -0.118745
     39          1           0       -2.928315   -3.060192   -0.505173
     40          1           0       -4.175352   -3.181293   -1.757986
 ---------------------------------------------------------------------

 SCF Done:  E(RHF) =  -470.732552186     A.U. after   11 cycles
 E2 =    -0.1583874083D+01 EUMP2 =    -0.47231642626893D+03

 The electronic state is 1-A.
 Alpha  occ. eigenvalues --  -11.21681 -11.21648 -11.21567 -11.21524 -11.21480
 Alpha  occ. eigenvalues --  -11.21415 -11.21304 -11.21173 -11.21165 -11.21106
 Alpha  occ. eigenvalues --  -11.21054 -11.21029  -1.08505  -1.08346  -1.03604
 Alpha  occ. eigenvalues --   -1.03478  -0.96067  -0.95913  -0.87089  -0.86933
 Alpha  occ. eigenvalues --   -0.79695  -0.79541  -0.78355  -0.78105  -0.65133
 Alpha  occ. eigenvalues --   -0.65002  -0.61082  -0.60812  -0.59420  -0.59289
 Alpha  occ. eigenvalues --   -0.57715  -0.57502  -0.55364  -0.55203  -0.52754
 Alpha  occ. eigenvalues --   -0.52662  -0.52524  -0.52305  -0.50069  -0.49816
 Alpha  occ. eigenvalues --   -0.48100  -0.47865  -0.46816  -0.46442  -0.46053
 Alpha  occ. eigenvalues --   -0.45760  -0.45676  -0.45221  -0.43853  -0.43711
 Alpha virt. eigenvalues --    0.20883   0.22926   0.23293   0.24405   0.25660
 Alpha virt. eigenvalues --    0.26547   0.27127   0.27660   0.27786   0.29247
 Alpha virt. eigenvalues --    0.30211   0.31594   0.31773   0.31941   0.32480

 Mulliken charges:
               1
     1  C   -0.298276
     2  C   -0.299744
     3  C   -0.475758
     4  H    0.149923
     5  H    0.149790
     6  H    0.152037
     7  H    0.151904
     8  H    0.155266
     9  H    0.155307
    10  H    0.160430
    11  C   -0.298684
    12  C   -0.299714
    13  C   -0.483683
    14  H    0.149354
    15  H    0.149247
    16  H    0.152348
    17  H    0.152277
    18  H    0.156648
    19  H    0.161253
    20  H    0.161592
    21  C   -0.297312
    22  C   -0.304800
    23  C   -0.475495
    24  H    0.149232
    25  H    0.149051
    26  H    0.155709
    27  H    0.151950
    28  H    0.155363
    29  H    0.155089
    30  H    0.159720
    31  C   -0.308994
    32  C   -0.299181
    33  C   -0.475952
    34  H    0.163123
    35  H    0.148581
    36  H    0.150944
    37  H    0.151525
    38  H    0.155352
    39  H    0.154681
    40  H    0.159896
 Sum of Mulliken charges =  -0.00000

 Dipole moment (field-independent basis, Debye):
    X=              0.0567    Y=             -0.0224    Z=              0.0388  Tot=              0.0722
 Quadrupole moment (field-independent basis, Debye-Ang):
   XX=            -85.1493   YY=            -85.3372   ZZ=            -84.4198
   XY=             -0.5928   XZ=              0.0530   YZ=              0.6721

 Normal termination of Gaussian 16 at Wed May  5 18:22:54 2021.
