 Gaussian 16, Revision A.03,
 Gaussian 16:  EM64L-G16RevA.03 25-Dec-2016

 -------------
 #p 6-31g* mp2
 -------------

 ------------------------------------------------------
 Input file generated by CHIRIPA (05-May-2021 14:57:23)
 ------------------------------------------------------
 Symbolic Z-matrix:
 Charge =  0 Multiplicity = 1

                         Standard orientation:
 ---------------------------------------------------------------------
 Center     Atomic      Atomic             Coordinates (Angstroms)
 Number     Number       Type             X           Y           Z
 ---------------------------------------------------------------------
      1          6           0       -2.227812    0.721460    1.898551
      2          6           0       -1.762308    0.180654    0.695490
      3          6           0       -2.661294   -0.228533   -0.293922
      4          6           0       -4.025185   -0.081806   -0.045800
      5          6           0       -4.519944    0.453345    1.142525
      6          6           0       -3.602720    0.855842    2.117842
      7          1           0       -1.522373    1.036728    2.661675
      8          1           0       -0.695087    0.075104    0.522444
      9          1           0       -2.328240   -0.650442   -1.234393
     10          1           0       -5.589616    0.546051    1.286142
     11          1           0       -3.967101    1.275500    3.051201
     12          7           0       -4.986555   -0.511454   -1.085786
     13          8           0       -6.183236   -0.371624   -0.842805
     14          8           0       -4.525193   -0.979906   -2.124214
     15          6           0        3.339315    2.385525   -0.795943
     16          6           0        4.660624    1.927382   -0.823704
     17          6           0        4.964504    0.613679   -0.454396
     18          6           0        3.917728   -0.218566   -0.060795
     19          6           0        2.591257    0.208415   -0.022680
     20          6           0        2.310663    1.526094   -0.396223
     21          1           0        3.112298    3.407586   -1.084474
     22          1           0        5.461514    2.592604   -1.133701
     23          1           0        5.978576    0.232987   -0.466663
     24          1           0        1.814237   -0.478129    0.290871
     25          1           0        1.283591    1.879168   -0.373696
     26          7           0        4.227108   -1.611429    0.332416
     27          8           0        3.286875   -2.324866    0.675353
     28          8           0        5.403974   -1.963344    0.290232
 ---------------------------------------------------------------------

 SCF Done:  E(RHF) =  -868.336689006     A.U. after   16 cycles
 E2 =    -0.2599890369D+01 EUMP2 =    -0.87093657937492D+03

 The electronic state is 1-A.
 Alpha  occ. eigenvalues --  -20.61357 -20.61345 -20.61062 -20.61057 -15.86411
 Alpha  occ. eigenvalues --  -15.86123 -11.31890 -11.31596 -11.28576 -11.28401
 Alpha  occ. eigenvalues --  -11.28239 -11.28181 -11.28174 -11.27996 -11.27551
 Alpha  occ. eigenvalues --  -11.27419 -11.27365 -11.27187  -1.60425  -1.60137
 Alpha  occ. eigenvalues --   -1.39977  -1.39687  -1.20059  -1.19804  -1.09417
 Alpha  occ. eigenvalues --   -1.09180  -1.05505  -1.05234  -0.96245  -0.95986
 Alpha  occ. eigenvalues --   -0.86876  -0.86638  -0.83098  -0.82822  -0.78155
 Alpha  occ. eigenvalues --   -0.77835  -0.72625  -0.72339  -0.71750  -0.71462
 Alpha  occ. eigenvalues --   -0.71166  -0.70901  -0.65734  -0.65501  -0.65462
 Alpha  occ. eigenvalues --   -0.65292  -0.62970  -0.62456  -0.55955  -0.55720
 Alpha  occ. eigenvalues --   -0.53791  -0.53631  -0.53511  -0.53336  -0.49392
 Alpha  occ. eigenvalues --   -0.49376  -0.49109  -0.49085  -0.45359  -0.45068
 Alpha  occ. eigenvalues --   -0.38006  -0.37788  -0.37102  -0.36839
 Alpha virt. eigenvalues --    0.04431   0.04711   0.10565   0.10739   0.15916
 Alpha virt. eigenvalues --    0.16130   0.17895   0.21999   0.24395   0.27251
 Alpha virt. eigenvalues --    0.27908   0.29014   0.29970   0.30958   0.31823

 Mulliken charges:
               1
     1  C   -0.171883
     2  C   -0.224711
     3  C   -0.171200
     4  C    0.158881
     5  C   -0.169523
     6  C   -0.218538
     7  H    0.227126
     8  H    0.220150
     9  H    0.277827
    10  H    0.277427
    11  H    0.225382
    12  N    0.488080
    13  O   -0.459227
    14  O   -0.459111
    15  C   -0.170194
    16  C   -0.218011
    17  C   -0.169736
    18  C    0.162044
    19  C   -0.179232
    20  C   -0.220443
    21  H    0.228360
    22  H    0.226431
    23  H    0.278054
    24  H    0.271621
    25  H    0.220572
    26  N    0.488389
    27  O   -0.461119
    28  O   -0.457419
 Sum of Mulliken charges =  -0.00000

 Dipole moment (field-independent basis, Debye):
    X=              2.3407    Y=              6.4598    Z=              2.2613  Tot=              7.2334
 Quadrupole moment (field-independent basis, Debye-Ang):
   XX=           -131.2396   YY=           -107.8559   ZZ=           -104.1610
   XY=             13.1503   XZ=            -24.2966   YZ=              0.3684

 Normal termination of Gaussian 16 at Fri May  7 11:04:43 2021.
