 Gaussian 16, Revision A.03,
 Gaussian 16:  EM64L-G16RevA.03 25-Dec-2016

 -------------
 #p 6-31g* mp2
 -------------

 ------------------------------------------------------
 Input file generated by CHIRIPA (05-May-2021 14:53:17)
 ------------------------------------------------------
 Symbolic Z-matrix:
 Charge =  0 Multiplicity = 1

                         Standard orientation:
 ---------------------------------------------------------------------
 Center     Atomic      Atomic             Coordinates (Angstroms)
 Number     Number       Type             X           Y           Z
 ---------------------------------------------------------------------
      1          6           0        2.727314    1.097075    0.050004
      2          6           0        2.164868    1.632487    1.367188
      3          6           0        1.052257    2.660655    1.160400
      4          1           0        3.108520    1.936925   -0.546889
      5          1           0        1.912247    0.644708   -0.531738
      6          1           0        2.981006    2.082477    1.946880
      7          1           0        1.785131    0.791245    1.961097
      8          1           0        0.219055    2.219904    0.603521
      9          1           0        1.421725    3.518473    0.589223
     10          1           0        0.664622    3.030171    2.114893
     11          6           0        3.840439    0.068249    0.240260
     12          6           0        4.402886   -0.467162   -1.076924
     13          6           0        5.515497   -1.495330   -0.870136
     14          1           0        4.655507    0.520617    0.822002
     15          1           0        3.459234   -0.771600    0.837152
     16          1           0        4.782622    0.374080   -1.670833
     17          1           0        3.586748   -0.917153   -1.656617
     18          1           0        5.146029   -2.353149   -0.298960
     19          1           0        6.348699   -1.054579   -0.313257
     20          1           0        5.903131   -1.864847   -1.824629
     21          6           0       -1.149109   -2.355116    0.752649
     22          6           0       -0.547671   -1.276586    0.095712
     23          6           0       -1.322635   -0.218409   -0.388273
     24          6           0       -2.702463   -0.271528   -0.197109
     25          6           0       -3.331157   -1.332180    0.453316
     26          6           0       -2.536486   -2.379428    0.929044
     27          1           0       -0.539444   -3.172889    1.125413
     28          1           0        0.529557   -1.255032   -0.042704
     29          1           0       -0.883023    0.628831   -0.900467
     30          1           0       -4.407380   -1.325503    0.576271
     31          1           0       -3.006295   -3.215742    1.438851
     32          7           0       -3.533314    0.842931   -0.705111
     33          8           0       -4.746928    0.772357   -0.524010
     34          8           0       -2.955188    1.765917   -1.274766
 ---------------------------------------------------------------------

 SCF Done:  E(RHF) =  -669.534668771     A.U. after   15 cycles
 E2 =    -0.2093449407D+01 EUMP2 =    -0.67162811817860D+03

 The electronic state is 1-A.
 Alpha  occ. eigenvalues --  -20.60778 -20.60773 -15.85830 -11.31214 -11.27783
 Alpha  occ. eigenvalues --  -11.27773 -11.27524 -11.26802 -11.26778 -11.22323
 Alpha  occ. eigenvalues --  -11.22241 -11.22174 -11.22134 -11.21692 -11.21350
 Alpha  occ. eigenvalues --   -1.59851  -1.39404  -1.19389  -1.09174  -1.08776
 Alpha  occ. eigenvalues --   -1.04806  -1.04127  -0.96578  -0.95612  -0.87586
 Alpha  occ. eigenvalues --   -0.86191  -0.82453  -0.80193  -0.79003  -0.77491
 Alpha  occ. eigenvalues --   -0.72048  -0.71173  -0.70511  -0.65950  -0.65034
 Alpha  occ. eigenvalues --   -0.64761  -0.62245  -0.61404  -0.59938  -0.58185
 Alpha  occ. eigenvalues --   -0.55916  -0.55294  -0.53210  -0.53154  -0.53049
 Alpha  occ. eigenvalues --   -0.52768  -0.50501  -0.48810  -0.48803  -0.48487
 Alpha  occ. eigenvalues --   -0.47239  -0.46498  -0.46472  -0.44802  -0.44423
 Alpha  occ. eigenvalues --   -0.37364  -0.36375
 Alpha virt. eigenvalues --    0.05005   0.11162   0.16448   0.18688   0.22577
 Alpha virt. eigenvalues --    0.23713   0.25125   0.25878   0.26784   0.28539
 Alpha virt. eigenvalues --    0.29271   0.31163   0.31396   0.31523   0.32395

 Mulliken charges:
               1
     1  C   -0.302008
     2  C   -0.301561
     3  C   -0.478500
     4  H    0.156815
     5  H    0.138522
     6  H    0.155157
     7  H    0.149898
     8  H    0.156597
     9  H    0.158723
    10  H    0.164235
    11  C   -0.299804
    12  C   -0.299965
    13  C   -0.475698
    14  H    0.154638
    15  H    0.143857
    16  H    0.156141
    17  H    0.147998
    18  H    0.153099
    19  H    0.157529
    20  H    0.162825
    21  C   -0.171493
    22  C   -0.223395
    23  C   -0.173885
    24  C    0.158746
    25  C   -0.170928
    26  C   -0.218163
    27  H    0.225805
    28  H    0.230228
    29  H    0.277581
    30  H    0.275768
    31  H    0.223610
    32  N    0.488541
    33  O   -0.460263
    34  O   -0.460648
 Sum of Mulliken charges =  -0.00000

 Dipole moment (field-independent basis, Debye):
    X=              3.0358    Y=             -3.8131    Z=              1.8232  Tot=              5.2038
 Quadrupole moment (field-independent basis, Debye-Ang):
   XX=           -106.7665   YY=            -91.7300   ZZ=            -95.5703
   XY=             13.4819   XZ=             -7.1584   YZ=             -0.5950

 Normal termination of Gaussian 16 at Wed May  5 15:43:15 2021.
