 Gaussian 16, Revision A.03,
 Gaussian 16:  EM64L-G16RevA.03 25-Dec-2016

 -------------
 #p 6-31g* mp2
 -------------

 ------------------------------------------------------
 Input file generated by CHIRIPA (05-May-2021 14:51:11)
 ------------------------------------------------------
 Symbolic Z-matrix:
 Charge =  0 Multiplicity = 1

                         Standard orientation:
 ---------------------------------------------------------------------
 Center     Atomic      Atomic             Coordinates (Angstroms)
 Number     Number       Type             X           Y           Z
 ---------------------------------------------------------------------
      1          6           0       -2.810711   -0.355862    0.025966
      2          6           0       -3.461450   -1.511376   -0.735161
      3          6           0       -2.757111   -2.847354   -0.496697
      4          1           0       -1.756888   -0.275056   -0.273821
      5          1           0       -2.813262   -0.586126    1.100381
      6          1           0       -3.458919   -1.278382   -1.807692
      7          1           0       -4.513896   -1.589319   -0.433668
      8          1           0       -2.771913   -3.106190    0.566970
      9          1           0       -1.710942   -2.793486   -0.814861
     10          1           0       -3.238665   -3.659497   -1.050220
     11          6           0       -3.503600    0.986348   -0.202297
     12          6           0       -2.852862    2.141861    0.558830
     13          6           0       -3.557200    3.477839    0.320366
     14          1           0       -3.501049    1.216612   -1.276711
     15          1           0       -4.557423    0.905541    0.097491
     16          1           0       -1.800416    2.219805    0.257338
     17          1           0       -2.855393    1.908868    1.631362
     18          1           0       -4.603370    3.423971    0.638531
     19          1           0       -3.542398    3.736675   -0.743300
     20          1           0       -3.075646    4.289983    0.873889
     21          6           0        3.859761   -0.021935    0.149388
     22          6           0        4.021301    1.319581   -0.566311
     23          6           0        5.432312    1.893636   -0.434778
     24          1           0        4.108169    0.104392    1.212064
     25          1           0        4.587160   -0.737275   -0.258748
     26          1           0        3.292879    2.031776   -0.157906
     27          1           0        3.772294    1.190088   -1.627369
     28          1           0        6.169603    1.204818   -0.859669
     29          1           0        5.687465    2.051289    0.618144
     30          1           0        5.525521    2.852732   -0.953725
     31          6           0        2.454551   -0.608551    0.026942
     32          6           0        2.293011   -1.950067    0.742642
     33          6           0        0.882000   -2.524122    0.611108
     34          1           0        1.727152    0.106789    0.435078
     35          1           0        2.206142   -0.734877   -1.035734
     36          1           0        2.542018   -1.820574    1.803699
     37          1           0        3.021433   -2.662262    0.334237
     38          1           0        0.626847   -2.681775   -0.441813
     39          1           0        0.144708   -1.835304    1.035999
     40          1           0        0.788791   -3.483218    1.130055
 ---------------------------------------------------------------------

 SCF Done:  E(RHF) =  -470.732610515     A.U. after   11 cycles
 E2 =    -0.1583427283D+01 EUMP2 =    -0.47231603779875D+03

 The electronic state is 1-A.
 Alpha  occ. eigenvalues --  -11.21618 -11.21599 -11.21581 -11.21524 -11.21422
 Alpha  occ. eigenvalues --  -11.21372 -11.21362 -11.21308 -11.21083 -11.21068
 Alpha  occ. eigenvalues --  -11.21021 -11.20880  -1.08445  -1.08387  -1.03554
 Alpha  occ. eigenvalues --   -1.03456  -0.96019  -0.95890  -0.87065  -0.86883
 Alpha  occ. eigenvalues --   -0.79714  -0.79445  -0.78311  -0.78143  -0.65070
 Alpha  occ. eigenvalues --   -0.65025  -0.60972  -0.60850  -0.59360  -0.59296
 Alpha  occ. eigenvalues --   -0.57679  -0.57467  -0.55389  -0.55113  -0.52756
 Alpha  occ. eigenvalues --   -0.52622  -0.52515  -0.52181  -0.50053  -0.49727
 Alpha  occ. eigenvalues --   -0.48171  -0.47641  -0.46685  -0.46501  -0.45981
 Alpha  occ. eigenvalues --   -0.45733  -0.45676  -0.45404  -0.43784  -0.43736
 Alpha virt. eigenvalues --    0.21631   0.23138   0.23540   0.24688   0.25881
 Alpha virt. eigenvalues --    0.26205   0.26802   0.27389   0.28387   0.29503
 Alpha virt. eigenvalues --    0.29781   0.31384   0.31673   0.31936   0.32140

 Mulliken charges:
               1
     1  C   -0.301086
     2  C   -0.299293
     3  C   -0.480524
     4  H    0.152630
     5  H    0.148817
     6  H    0.151180
     7  H    0.151310
     8  H    0.154679
     9  H    0.163554
    10  H    0.158677
    11  C   -0.298059
    12  C   -0.299702
    13  C   -0.475640
    14  H    0.149528
    15  H    0.149641
    16  H    0.151654
    17  H    0.151584
    18  H    0.155231
    19  H    0.155275
    20  H    0.160084
    21  C   -0.298165
    22  C   -0.299670
    23  C   -0.475711
    24  H    0.149830
    25  H    0.149652
    26  H    0.151872
    27  H    0.151772
    28  H    0.155222
    29  H    0.155264
    30  H    0.160267
    31  C   -0.298781
    32  C   -0.300381
    33  C   -0.479057
    34  H    0.149667
    35  H    0.148926
    36  H    0.151824
    37  H    0.151721
    38  H    0.154680
    39  H    0.160858
    40  H    0.160667
 Sum of Mulliken charges =  -0.00000

 Dipole moment (field-independent basis, Debye):
    X=              0.0264    Y=             -0.0146    Z=              0.0095  Tot=              0.0317
 Quadrupole moment (field-independent basis, Debye-Ang):
   XX=            -85.6355   YY=            -85.9128   ZZ=            -83.4039
   XY=             -0.1878   XZ=             -0.7824   YZ=              0.3164

 Normal termination of Gaussian 16 at Thu May  6 05:28:11 2021.
