 Gaussian 16, Revision A.03,
 Gaussian 16:  EM64L-G16RevA.03 25-Dec-2016

 -------------
 #p 6-31g* mp2
 -------------

 ------------------------------------------------------
 Input file generated by CHIRIPA (05-May-2021 14:53:12)
 ------------------------------------------------------
 Symbolic Z-matrix:
 Charge =  0 Multiplicity = 1

                         Standard orientation:
 ---------------------------------------------------------------------
 Center     Atomic      Atomic             Coordinates (Angstroms)
 Number     Number       Type             X           Y           Z
 ---------------------------------------------------------------------
      1          6           0       -2.513631    1.336867    0.193642
      2          6           0       -1.499316    2.069936   -0.684856
      3          6           0       -0.725159    3.145594    0.077663
      4          1           0       -3.217439    2.066489    0.617023
      5          1           0       -1.988894    0.879149    1.043665
      6          1           0       -2.025618    2.524970   -1.533718
      7          1           0       -0.797957    1.338461   -1.106349
      8          1           0       -0.174768    2.703772    0.914600
      9          1           0       -1.409404    3.897023    0.484803
     10          1           0       -0.005637    3.657038   -0.569309
     11          6           0       -3.295431    0.258498   -0.554447
     12          6           0       -4.309747   -0.474571    0.324051
     13          6           0       -5.083904   -1.550229   -0.438468
     14          1           0       -3.820169    0.716216   -1.404470
     15          1           0       -2.591624   -0.471124   -0.977829
     16          1           0       -5.011106    0.256904    0.745544
     17          1           0       -3.783445   -0.929605    1.172912
     18          1           0       -4.399658   -2.301658   -0.845609
     19          1           0       -5.634295   -1.108407   -1.275406
     20          1           0       -5.803426   -2.061673    0.208504
     21          6           0        0.302017   -2.129255    0.618455
     22          6           0        1.279302   -2.524530   -0.300888
     23          6           0        2.373546   -1.698099   -0.573270
     24          6           0        2.459342   -0.477589    0.094775
     25          6           0        1.501950   -0.055752    1.016049
     26          6           0        0.416260   -0.898298    1.272837
     27          1           0       -0.544695   -2.777506    0.823991
     28          1           0        1.193173   -3.479959   -0.810575
     29          1           0        3.144511   -1.979388   -1.280310
     30          1           0        1.615122    0.902440    1.508470
     31          1           0       -0.341205   -0.588731    1.987301
     32          7           0        3.613241    0.405846   -0.185329
     33          8           0        3.665768    1.476245    0.416442
     34          8           0        4.443290    0.011159   -1.001340
 ---------------------------------------------------------------------

 SCF Done:  E(RHF) =  -669.534798393     A.U. after   15 cycles
 E2 =    -0.2094117834D+01 EUMP2 =    -0.67162891622675D+03

 The electronic state is 1-A.
 Alpha  occ. eigenvalues --  -20.60821 -20.60815 -15.85875 -11.31284 -11.27850
 Alpha  occ. eigenvalues --  -11.27844 -11.27603 -11.26876 -11.26867 -11.22309
 Alpha  occ. eigenvalues --  -11.21964 -11.21909 -11.21848 -11.21731 -11.21306
 Alpha  occ. eigenvalues --   -1.59895  -1.39447  -1.19463  -1.08979  -1.08834
 Alpha  occ. eigenvalues --   -1.04877  -1.04011  -0.96466  -0.95671  -0.87483
 Alpha  occ. eigenvalues --   -0.86261  -0.82509  -0.80084  -0.78789  -0.77542
 Alpha  occ. eigenvalues --   -0.72093  -0.71220  -0.70565  -0.65708  -0.65113
 Alpha  occ. eigenvalues --   -0.64832  -0.62267  -0.61375  -0.59827  -0.58066
 Alpha  occ. eigenvalues --   -0.55796  -0.55362  -0.53178  -0.53120  -0.53088
 Alpha  occ. eigenvalues --   -0.52762  -0.50400  -0.48859  -0.48844  -0.48395
 Alpha  occ. eigenvalues --   -0.47135  -0.46312  -0.46218  -0.44842  -0.44265
 Alpha  occ. eigenvalues --   -0.37429  -0.36425
 Alpha virt. eigenvalues --    0.04949   0.11081   0.16336   0.19306   0.22843
 Alpha virt. eigenvalues --    0.23503   0.25033   0.26196   0.26455   0.28462
 Alpha virt. eigenvalues --    0.29564   0.30454   0.31191   0.31471   0.31721

 Mulliken charges:
               1
     1  C   -0.296943
     2  C   -0.302683
     3  C   -0.475201
     4  H    0.151345
     5  H    0.139161
     6  H    0.153834
     7  H    0.156324
     8  H    0.146894
     9  H    0.155626
    10  H    0.168864
    11  C   -0.300155
    12  C   -0.298670
    13  C   -0.475352
    14  H    0.152874
    15  H    0.149346
    16  H    0.155049
    17  H    0.142885
    18  H    0.151834
    19  H    0.158518
    20  H    0.161297
    21  C   -0.172593
    22  C   -0.218670
    23  C   -0.170770
    24  C    0.158141
    25  C   -0.171936
    26  C   -0.216982
    27  H    0.226459
    28  H    0.223998
    29  H    0.276046
    30  H    0.277948
    31  H    0.225467
    32  N    0.487977
    33  O   -0.459684
    34  O   -0.460245
 Sum of Mulliken charges =  -0.00000

 Dipole moment (field-independent basis, Debye):
    X=             -4.0399    Y=             -3.0485    Z=              0.8689  Tot=              5.1350
 Quadrupole moment (field-independent basis, Debye-Ang):
   XX=           -114.4604   YY=            -89.7842   ZZ=            -93.0894
   XY=             -8.2297   XZ=              0.8729   YZ=              1.0874

 Normal termination of Gaussian 16 at Thu May  6 00:59:05 2021.
