 Gaussian 16, Revision A.03,
 Gaussian 16:  EM64L-G16RevA.03 25-Dec-2016

 -------------
 #p 6-31g* mp2
 -------------

 ------------------------------------------------------
 Input file generated by CHIRIPA (05-May-2021 14:53:12)
 ------------------------------------------------------
 Symbolic Z-matrix:
 Charge =  0 Multiplicity = 1

                         Standard orientation:
 ---------------------------------------------------------------------
 Center     Atomic      Atomic             Coordinates (Angstroms)
 Number     Number       Type             X           Y           Z
 ---------------------------------------------------------------------
      1          6           0       -3.690739   -0.168328   -0.458273
      2          6           0       -4.654151   -1.240821    0.051219
      3          6           0       -4.695514   -2.474864   -0.850567
      4          1           0       -3.985874    0.127891   -1.474193
      5          1           0       -2.682981   -0.598878   -0.538566
      6          1           0       -5.659523   -0.807990    0.131843
      7          1           0       -4.356802   -1.534384    1.066118
      8          1           0       -3.703730   -2.932905   -0.922426
      9          1           0       -5.013853   -2.202384   -1.862010
     10          1           0       -5.390450   -3.228756   -0.467720
     11          6           0       -3.638333    1.071533    0.432640
     12          6           0       -2.674921    2.144025   -0.076852
     13          6           0       -2.633558    3.378069    0.824934
     14          1           0       -4.646091    1.502083    0.512933
     15          1           0       -3.343198    0.775313    1.448560
     16          1           0       -2.972270    2.437588   -1.091752
     17          1           0       -1.669549    1.711194   -0.157477
     18          1           0       -2.315219    3.105588    1.836377
     19          1           0       -3.625342    3.836109    0.896793
     20          1           0       -1.938623    4.131961    0.442087
     21          6           0        0.881703   -1.808227    0.577888
     22          6           0        2.173438   -2.217900    0.924457
     23          6           0        3.278554   -1.419537    0.614802
     24          6           0        3.054455   -0.212110   -0.044887
     25          6           0        1.779710    0.223505   -0.403430
     26          6           0        0.689301   -0.590979   -0.083783
     27          1           0        0.028935   -2.434676    0.822316
     28          1           0        2.325857   -3.162736    1.438360
     29          1           0        4.289373   -1.712472    0.871416
     30          1           0        1.659349    1.170577   -0.915276
     31          1           0       -0.312745   -0.270283   -0.354160
     32          7           0        4.216607    0.641613   -0.377994
     33          8           0        3.992515    1.700959   -0.959550
     34          8           0        5.329587    0.235251   -0.051219
 ---------------------------------------------------------------------

 SCF Done:  E(RHF) =  -669.535014525     A.U. after   15 cycles
 E2 =    -0.2092164038D+01 EUMP2 =    -0.67162717856373D+03

 The electronic state is 1-A.
 Alpha  occ. eigenvalues --  -20.60743 -20.60738 -15.85796 -11.31163 -11.27737
 Alpha  occ. eigenvalues --  -11.27725 -11.27478 -11.26754 -11.26699 -11.22523
 Alpha  occ. eigenvalues --  -11.22514 -11.22458 -11.22271 -11.21910 -11.21684
 Alpha  occ. eigenvalues --   -1.59818  -1.39371  -1.19336  -1.09381  -1.08732
 Alpha  occ. eigenvalues --   -1.04741  -1.04379  -0.96813  -0.95567  -0.87821
 Alpha  occ. eigenvalues --   -0.86146  -0.82404  -0.80455  -0.79223  -0.77442
 Alpha  occ. eigenvalues --   -0.72015  -0.71141  -0.70450  -0.66133  -0.64989
 Alpha  occ. eigenvalues --   -0.64684  -0.62125  -0.61744  -0.60176  -0.58427
 Alpha  occ. eigenvalues --   -0.56108  -0.55246  -0.53478  -0.53230  -0.53067
 Alpha  occ. eigenvalues --   -0.52850  -0.50758  -0.48786  -0.48769  -0.48758
 Alpha  occ. eigenvalues --   -0.47512  -0.46694  -0.46634  -0.44777  -0.44656
 Alpha  occ. eigenvalues --   -0.37320  -0.36338
 Alpha virt. eigenvalues --    0.05082   0.11290   0.16519   0.18791   0.22820
 Alpha virt. eigenvalues --    0.23173   0.24820   0.26205   0.26924   0.27352
 Alpha virt. eigenvalues --    0.29806   0.30546   0.30973   0.31264   0.32045

 Mulliken charges:
               1
     1  C   -0.302490
     2  C   -0.300159
     3  C   -0.475494
     4  H    0.154541
     5  H    0.139879
     6  H    0.156352
     7  H    0.151083
     8  H    0.150865
     9  H    0.158317
    10  H    0.163310
    11  C   -0.299535
    12  C   -0.303292
    13  C   -0.476180
    14  H    0.154456
    15  H    0.150346
    16  H    0.155604
    17  H    0.144034
    18  H    0.157115
    19  H    0.157827
    20  H    0.164365
    21  C   -0.173714
    22  C   -0.218500
    23  C   -0.171213
    24  C    0.159063
    25  C   -0.173662
    26  C   -0.229632
    27  H    0.224980
    28  H    0.223307
    29  H    0.275565
    30  H    0.276043
    31  H    0.239782
    32  N    0.487949
    33  O   -0.460297
    34  O   -0.460616
 Sum of Mulliken charges =  -0.00000

 Dipole moment (field-independent basis, Debye):
    X=             -4.3398    Y=             -2.9093    Z=              1.1906  Tot=              5.3587
 Quadrupole moment (field-independent basis, Debye-Ang):
   XX=           -116.5883   YY=            -91.8885   ZZ=            -94.6684
   XY=            -11.4299   XZ=              5.6425   YZ=             -2.4706

 Normal termination of Gaussian 16 at Thu May  6 00:56:24 2021.
