 Gaussian 16, Revision A.03,
 Gaussian 16:  EM64L-G16RevA.03 25-Dec-2016

 -------------
 #p 6-31g* mp2
 -------------

 ------------------------------------------------------
 Input file generated by CHIRIPA (05-May-2021 14:51:13)
 ------------------------------------------------------
 Symbolic Z-matrix:
 Charge =  0 Multiplicity = 1

                         Standard orientation:
 ---------------------------------------------------------------------
 Center     Atomic      Atomic             Coordinates (Angstroms)
 Number     Number       Type             X           Y           Z
 ---------------------------------------------------------------------
      1          6           0       -1.777478   -0.309209    0.809777
      2          6           0       -1.792873   -1.445159    1.833187
      3          6           0       -0.531881   -1.479559    2.697196
      4          1           0       -0.893296   -0.415729    0.166488
      5          1           0       -1.666886    0.648493    1.337006
      6          1           0       -1.904793   -2.400327    1.304280
      7          1           0       -2.677224   -1.336032    2.473992
      8          1           0       -0.418290   -0.541705    3.250483
      9          1           0        0.358529   -1.612048    2.074125
     10          1           0       -0.563935   -2.299189    3.421792
     11          6           0       -3.031417   -0.261711   -0.061492
     12          6           0       -3.016021    0.874238   -1.084901
     13          6           0       -4.277013    0.908639   -1.948910
     14          1           0       -3.142008   -1.219413   -0.588720
     15          1           0       -3.915599   -0.155192    0.581798
     16          1           0       -2.131670    0.765112   -1.725706
     17          1           0       -2.904101    1.829407   -0.555994
     18          1           0       -5.167424    1.041128   -1.325840
     19          1           0       -4.390604   -0.029215   -2.502197
     20          1           0       -4.244959    1.728269   -2.673506
     21          6           0        2.405346    1.046015   -0.444768
     22          6           0        2.188243    1.778252    0.879876
     23          6           0        2.192604    3.299086    0.722275
     24          1           0        3.360299    1.368011   -0.882179
     25          1           0        1.620496    1.344375   -1.153560
     26          1           0        2.972466    1.477547    1.586407
     27          1           0        1.233787    1.454332    1.314279
     28          1           0        1.399590    3.617753    0.038037
     29          1           0        3.148149    3.641101    0.311712
     30          1           0        2.035774    3.802538    1.681337
     31          6           0        2.403548   -0.475094   -0.303518
     32          6           0        2.620652   -1.207331   -1.628161
     33          6           0        2.616290   -2.728166   -1.470561
     34          1           0        3.188399   -0.773454    0.405274
     35          1           0        1.448596   -0.797090    0.133894
     36          1           0        3.575107   -0.883412   -2.062564
     37          1           0        1.836427   -0.906627   -2.334693
     38          1           0        1.660746   -3.070180   -1.059998
     39          1           0        3.409304   -3.046834   -0.786324
     40          1           0        2.773119   -3.231618   -2.429623
 ---------------------------------------------------------------------

 SCF Done:  E(RHF) =  -470.732588943     A.U. after   11 cycles
 E2 =    -0.1584806454D+01 EUMP2 =    -0.47231739539725D+03

 The electronic state is 1-A.
 Alpha  occ. eigenvalues --  -11.21674 -11.21658 -11.21631 -11.21526 -11.21483
 Alpha  occ. eigenvalues --  -11.21423 -11.21383 -11.21323 -11.21122 -11.21116
 Alpha  occ. eigenvalues --  -11.21063 -11.21029  -1.08530  -1.08404  -1.03589
 Alpha  occ. eigenvalues --   -1.03521  -0.96034  -0.95977  -0.87052  -0.86991
 Alpha  occ. eigenvalues --   -0.79668  -0.79582  -0.78469  -0.78108  -0.65340
 Alpha  occ. eigenvalues --   -0.64891  -0.61050  -0.60863  -0.59411  -0.59339
 Alpha  occ. eigenvalues --   -0.57671  -0.57564  -0.55331  -0.55274  -0.52721
 Alpha  occ. eigenvalues --   -0.52670  -0.52480  -0.52387  -0.49989  -0.49932
 Alpha  occ. eigenvalues --   -0.48049  -0.47918  -0.46892  -0.46558  -0.46305
 Alpha  occ. eigenvalues --   -0.45751  -0.45730  -0.44994  -0.43844  -0.43770
 Alpha virt. eigenvalues --    0.20066   0.23167   0.23558   0.23696   0.25765
 Alpha virt. eigenvalues --    0.26615   0.26792   0.27812   0.28638   0.29952
 Alpha virt. eigenvalues --    0.30740   0.31478   0.31659   0.32021   0.32352

 Mulliken charges:
               1
     1  C   -0.306300
     2  C   -0.299725
     3  C   -0.482117
     4  H    0.155600
     5  H    0.150464
     6  H    0.151585
     7  H    0.152284
     8  H    0.155579
     9  H    0.161529
    10  H    0.160556
    11  C   -0.297758
    12  C   -0.299776
    13  C   -0.475748
    14  H    0.149681
    15  H    0.150127
    16  H    0.151277
    17  H    0.152089
    18  H    0.155443
    19  H    0.155352
    20  H    0.160470
    21  C   -0.297464
    22  C   -0.303726
    23  C   -0.475765
    24  H    0.149634
    25  H    0.149251
    26  H    0.151556
    27  H    0.156964
    28  H    0.155245
    29  H    0.154930
    30  H    0.159839
    31  C   -0.310990
    32  C   -0.299009
    33  C   -0.475773
    34  H    0.149751
    35  H    0.161257
    36  H    0.152394
    37  H    0.151088
    38  H    0.154063
    39  H    0.155607
    40  H    0.160535
 Sum of Mulliken charges =  -0.00000

 Dipole moment (field-independent basis, Debye):
    X=             -0.0220    Y=             -0.0094    Z=              0.0132  Tot=              0.0273
 Quadrupole moment (field-independent basis, Debye-Ang):
   XX=            -84.2439   YY=            -85.7141   ZZ=            -84.8023
   XY=             -0.1619   XZ=             -0.7275   YZ=              0.4718

 Normal termination of Gaussian 16 at Thu May  6 05:33:51 2021.
