 Gaussian 16, Revision A.03,
 Gaussian 16:  EM64L-G16RevA.03 25-Dec-2016

 -------------
 #p 6-31g* mp2
 -------------

 ------------------------------------------------------
 Input file generated by CHIRIPA (05-May-2021 14:55:21)
 ------------------------------------------------------
 Symbolic Z-matrix:
 Charge =  0 Multiplicity = 1

                         Standard orientation:
 ---------------------------------------------------------------------
 Center     Atomic      Atomic             Coordinates (Angstroms)
 Number     Number       Type             X           Y           Z
 ---------------------------------------------------------------------
      1          6           0        0.722531   -0.235560    1.007036
      2          6           0        1.673818   -1.176615    1.414455
      3          6           0        2.979897   -1.126489    0.918276
      4          6           0        3.301735   -0.117305    0.012044
      5          6           0        2.376384    0.834697   -0.413054
      6          6           0        1.076226    0.765328    0.096188
      7          1           0       -0.289762   -0.281974    1.397553
      8          1           0        1.401960   -1.955025    2.121714
      9          1           0        3.736151   -1.842312    1.216765
     10          1           0        2.677165    1.598984   -1.119321
     11          1           0        0.339520    1.497495   -0.221992
     12          7           0        4.681288   -0.054053   -0.520153
     13          8           0        4.939686    0.844893   -1.317501
     14          8           0        5.478061   -0.904619   -0.129864
     15          6           0       -4.017112    0.911637   -0.258082
     16          6           0       -3.031832    1.775870    0.529517
     17          6           0       -3.208158    3.270194    0.258038
     18          1           0       -3.890608    1.108173   -1.331541
     19          1           0       -5.042796    1.212903   -0.003906
     20          1           0       -2.008326    1.472130    0.274972
     21          1           0       -3.160566    1.577113    1.601216
     22          1           0       -4.217974    3.594525    0.529482
     23          1           0       -3.059188    3.488945   -0.804297
     24          1           0       -2.493819    3.869393    0.831223
     25          6           0       -3.853271   -0.584650    0.002706
     26          6           0       -4.838550   -1.448883   -0.784892
     27          6           0       -4.662226   -2.943207   -0.513414
     28          1           0       -2.827587   -0.885916   -0.251469
     29          1           0       -3.979776   -0.781185    1.076166
     30          1           0       -4.709817   -1.250126   -1.856591
     31          1           0       -5.862057   -1.145143   -0.530348
     32          1           0       -4.811195   -3.161958    0.548921
     33          1           0       -3.652409   -3.267537   -0.784858
     34          1           0       -5.376564   -3.542405   -1.086599
 ---------------------------------------------------------------------

 SCF Done:  E(RHF) =  -669.535466019     A.U. after   15 cycles
 E2 =    -0.2091835084D+01 EUMP2 =    -0.67162730110297D+03

 The electronic state is 1-A.
 Alpha  occ. eigenvalues --  -20.60729 -20.60724 -15.85782 -11.31138 -11.27709
 Alpha  occ. eigenvalues --  -11.27706 -11.27409 -11.26712 -11.26695 -11.22882
 Alpha  occ. eigenvalues --  -11.22413 -11.22367 -11.22325 -11.22086 -11.21733
 Alpha  occ. eigenvalues --   -1.59805  -1.39359  -1.19308  -1.09428  -1.08701
 Alpha  occ. eigenvalues --   -1.04715  -1.04474  -0.96888  -0.95538  -0.87906
 Alpha  occ. eigenvalues --   -0.86117  -0.82372  -0.80576  -0.79251  -0.77426
 Alpha  occ. eigenvalues --   -0.72001  -0.71128  -0.70407  -0.66089  -0.64958
 Alpha  occ. eigenvalues --   -0.64725  -0.62158  -0.61774  -0.60267  -0.58510
 Alpha  occ. eigenvalues --   -0.56164  -0.55195  -0.53578  -0.53309  -0.53040
 Alpha  occ. eigenvalues --   -0.52816  -0.50828  -0.48876  -0.48757  -0.48747
 Alpha  occ. eigenvalues --   -0.47601  -0.46762  -0.46681  -0.44766  -0.44728
 Alpha  occ. eigenvalues --   -0.37281  -0.36320
 Alpha virt. eigenvalues --    0.05102   0.11318   0.16565   0.19295   0.22571
 Alpha virt. eigenvalues --    0.23328   0.25034   0.25414   0.26537   0.27922
 Alpha virt. eigenvalues --    0.29518   0.30516   0.31025   0.31082   0.31422

 Mulliken charges:
               1
     1  C   -0.174773
     2  C   -0.218863
     3  C   -0.171027
     4  C    0.158526
     5  C   -0.170873
     6  C   -0.223820
     7  H    0.230363
     8  H    0.223446
     9  H    0.275400
    10  H    0.275502
    11  H    0.227859
    12  N    0.487972
    13  O   -0.460575
    14  O   -0.460516
    15  C   -0.297693
    16  C   -0.307438
    17  C   -0.476908
    18  H    0.152553
    19  H    0.154000
    20  H    0.144046
    21  H    0.153601
    22  H    0.160458
    23  H    0.157164
    24  H    0.161618
    25  C   -0.301334
    26  C   -0.300108
    27  C   -0.476631
    28  H    0.146643
    29  H    0.148684
    30  H    0.154468
    31  H    0.154271
    32  H    0.154940
    33  H    0.155587
    34  H    0.163459
 Sum of Mulliken charges =  -0.00000

 Dipole moment (field-independent basis, Debye):
    X=             -5.1328    Y=             -0.1996    Z=              1.8379  Tot=              5.4555
 Quadrupole moment (field-independent basis, Debye-Ang):
   XX=           -125.6956   YY=            -92.5984   ZZ=            -93.1795
   XY=             -1.5123   XZ=              6.5951   YZ=             -2.5979

 Normal termination of Gaussian 16 at Wed May  5 17:28:03 2021.
