 Gaussian 16, Revision A.03,
 Gaussian 16:  EM64L-G16RevA.03 25-Dec-2016

 -------------
 #p 6-31g* mp2
 -------------

 ------------------------------------------------------
 Input file generated by CHIRIPA (05-May-2021 14:51:09)
 ------------------------------------------------------
 Symbolic Z-matrix:
 Charge =  0 Multiplicity = 1

                         Standard orientation:
 ---------------------------------------------------------------------
 Center     Atomic      Atomic             Coordinates (Angstroms)
 Number     Number       Type             X           Y           Z
 ---------------------------------------------------------------------
      1          6           0        2.306836    1.241277    0.274107
      2          6           0        1.363654    2.380288   -0.114540
      3          6           0        1.224897    3.434023    0.984634
      4          1           0        1.939103    0.767045    1.194336
      5          1           0        3.295648    1.657948    0.510815
      6          1           0        0.377294    1.961449   -0.351783
      7          1           0        1.733570    2.851740   -1.034057
      8          1           0        2.197862    3.879130    1.216627
      9          1           0        0.833880    2.983781    1.902778
     10          1           0        0.546186    4.238939    0.685765
     11          6           0        2.455867    0.179964   -0.814531
     12          6           0        3.399049   -0.959047   -0.425885
     13          6           0        3.537806   -2.012782   -1.525059
     14          1           0        1.467055   -0.236707   -1.051240
     15          1           0        2.823600    0.654195   -1.734761
     16          1           0        3.029133   -1.430499    0.493632
     17          1           0        4.385409   -0.540209   -0.188642
     18          1           0        3.928823   -1.562540   -2.443203
     19          1           0        2.564841   -2.457889   -1.757052
     20          1           0        4.216517   -2.817698   -1.226189
     21          6           0       -1.786521   -0.685455    0.748727
     22          6           0       -1.124020   -2.046500    0.964675
     23          6           0        0.064367   -1.979887    1.924410
     24          1           0       -1.039884    0.021357    0.361563
     25          1           0       -2.118781   -0.289230    1.718265
     26          1           0       -0.794347   -2.440668   -0.005151
     27          1           0       -1.872368   -2.750203    1.351189
     28          1           0       -0.252672   -1.610612    2.905084
     29          1           0        0.831474   -1.299318    1.541038
     30          1           0        0.522988   -2.963722    2.064397
     31          6           0       -2.976181   -0.735786   -0.208303
     32          6           0       -3.638682    0.625259   -0.424251
     33          6           0       -4.827071    0.558646   -1.383985
     34          1           0       -2.643922   -1.132012   -1.177840
     35          1           0       -3.722818   -1.442598    0.178862
     36          1           0       -2.890335    1.328962   -0.810764
     37          1           0       -3.968356    1.019427    0.545576
     38          1           0       -5.594177   -0.121923   -1.000613
     39          1           0       -4.510031    0.189371   -2.364660
     40          1           0       -5.285691    1.542480   -1.523972
 ---------------------------------------------------------------------

 SCF Done:  E(RHF) =  -470.732349974     A.U. after   11 cycles
 E2 =    -0.1585476382D+01 EUMP2 =    -0.47231782635552D+03

 The electronic state is 1-A.
 Alpha  occ. eigenvalues --  -11.21675 -11.21644 -11.21635 -11.21598 -11.21462
 Alpha  occ. eigenvalues --  -11.21447 -11.21402 -11.21384 -11.21107 -11.21097
 Alpha  occ. eigenvalues --  -11.21085 -11.21076  -1.08544  -1.08428  -1.03593
 Alpha  occ. eigenvalues --   -1.03545  -0.96052  -0.95991  -0.87069  -0.87009
 Alpha  occ. eigenvalues --   -0.79674  -0.79607  -0.78319  -0.78284  -0.65564
 Alpha  occ. eigenvalues --   -0.64763  -0.61093  -0.60836  -0.59400  -0.59369
 Alpha  occ. eigenvalues --   -0.57685  -0.57587  -0.55437  -0.55191  -0.52737
 Alpha  occ. eigenvalues --   -0.52699  -0.52477  -0.52399  -0.50078  -0.49898
 Alpha  occ. eigenvalues --   -0.47991  -0.47938  -0.46860  -0.46633  -0.46134
 Alpha  occ. eigenvalues --   -0.45799  -0.45585  -0.45347  -0.43837  -0.43809
 Alpha virt. eigenvalues --    0.19063   0.22425   0.23399   0.25167   0.25430
 Alpha virt. eigenvalues --    0.25822   0.27126   0.27531   0.29108   0.29727
 Alpha virt. eigenvalues --    0.30994   0.31423   0.31591   0.31796   0.32278

 Mulliken charges:
               1
     1  C   -0.303484
     2  C   -0.304294
     3  C   -0.475674
     4  H    0.153692
     5  H    0.150553
     6  H    0.155160
     7  H    0.152256
     8  H    0.155229
     9  H    0.156047
    10  H    0.160316
    11  C   -0.301801
    12  C   -0.303655
    13  C   -0.475457
    14  H    0.150292
    15  H    0.150744
    16  H    0.156327
    17  H    0.152169
    18  H    0.155093
    19  H    0.154840
    20  H    0.160479
    21  C   -0.307806
    22  C   -0.298847
    23  C   -0.486585
    24  H    0.157859
    25  H    0.149750
    26  H    0.151392
    27  H    0.152569
    28  H    0.155197
    29  H    0.166217
    30  H    0.160532
    31  C   -0.297852
    32  C   -0.300507
    33  C   -0.475749
    34  H    0.149422
    35  H    0.150053
    36  H    0.152231
    37  H    0.152167
    38  H    0.155312
    39  H    0.155341
    40  H    0.160468
 Sum of Mulliken charges =  -0.00000

 Dipole moment (field-independent basis, Debye):
    X=              0.0018    Y=              0.0072    Z=              0.0164  Tot=              0.0180
 Quadrupole moment (field-independent basis, Debye-Ang):
   XX=            -84.4879   YY=            -85.2128   ZZ=            -84.9400
   XY=              0.7847   XZ=             -1.2279   YZ=             -0.8536

 Normal termination of Gaussian 16 at Wed May  5 21:21:15 2021.
