 Gaussian 16, Revision A.03,
 Gaussian 16:  EM64L-G16RevA.03 25-Dec-2016

 -------------
 #p 6-31g* mp2
 -------------

 ------------------------------------------------------
 Input file generated by CHIRIPA (05-May-2021 14:53:14)
 ------------------------------------------------------
 Symbolic Z-matrix:
 Charge =  0 Multiplicity = 1

                         Standard orientation:
 ---------------------------------------------------------------------
 Center     Atomic      Atomic             Coordinates (Angstroms)
 Number     Number       Type             X           Y           Z
 ---------------------------------------------------------------------
      1          6           0       -2.894105    0.788891   -0.308051
      2          6           0       -3.370193    1.593360    0.901971
      3          6           0       -3.065642    3.086416    0.776166
      4          1           0       -1.812584    0.934560   -0.434700
      5          1           0       -3.371291    1.186279   -1.214566
      6          1           0       -2.893314    1.193683    1.806106
      7          1           0       -4.450672    1.445607    1.025868
      8          1           0       -3.554422    3.506035   -0.109055
      9          1           0       -1.988216    3.252679    0.675617
     10          1           0       -3.414454    3.642485    1.651939
     11          6           0       -3.191427   -0.705436   -0.197084
     12          6           0       -2.715339   -1.509906   -1.407106
     13          6           0       -3.019890   -3.002962   -1.281301
     14          1           0       -2.714241   -1.102825    0.709432
     15          1           0       -4.272947   -0.851106   -0.070435
     16          1           0       -1.634860   -1.362152   -1.531003
     17          1           0       -3.192218   -1.110228   -2.311241
     18          1           0       -4.097316   -3.169225   -1.180751
     19          1           0       -2.531110   -3.422580   -0.396080
     20          1           0       -2.671078   -3.559031   -2.157074
     21          6           0        3.546632    1.309602   -1.590628
     22          6           0        4.222185    0.271960   -0.939899
     23          6           0        3.584108   -0.478326    0.052308
     24          6           0        2.264101   -0.162359    0.370170
     25          6           0        1.564271    0.865385   -0.260123
     26          6           0        2.222166    1.602487   -1.249265
     27          1           0        4.050005    1.887322   -2.360208
     28          1           0        5.250821    0.042268   -1.202949
     29          1           0        4.083484   -1.287004    0.572001
     30          1           0        0.539273    1.070809    0.023777
     31          1           0        1.695049    2.407771   -1.752961
     32          7           0        1.578106   -0.949674    1.418953
     33          8           0        0.414842   -0.651428    1.680686
     34          8           0        2.216676   -1.850111    1.959396
 ---------------------------------------------------------------------

 SCF Done:  E(RHF) =  -669.535987542     A.U. after   15 cycles
 E2 =    -0.2092203061D+01 EUMP2 =    -0.67162819060291D+03

 The electronic state is 1-A.
 Alpha  occ. eigenvalues --  -20.60924 -20.60913 -15.85962 -11.31273 -11.27832
 Alpha  occ. eigenvalues --  -11.27822 -11.27566 -11.26842 -11.26829 -11.21284
 Alpha  occ. eigenvalues --  -11.21190 -11.21182 -11.21025 -11.20790 -11.20586
 Alpha  occ. eigenvalues --   -1.59985  -1.39541  -1.19440  -1.08845  -1.08056
 Alpha  occ. eigenvalues --   -1.04835  -1.03192  -0.95701  -0.95646  -0.86676
 Alpha  occ. eigenvalues --   -0.86237  -0.82522  -0.79262  -0.77891  -0.77568
 Alpha  occ. eigenvalues --   -0.72186  -0.71301  -0.70555  -0.65101  -0.64923
 Alpha  occ. eigenvalues --   -0.64589  -0.62183  -0.60573  -0.59035  -0.57273
 Alpha  occ. eigenvalues --   -0.55349  -0.54939  -0.53166  -0.52937  -0.52361
 Alpha  occ. eigenvalues --   -0.52089  -0.49587  -0.48940  -0.48935  -0.47589
 Alpha  occ. eigenvalues --   -0.46279  -0.45462  -0.45267  -0.44929  -0.43438
 Alpha  occ. eigenvalues --   -0.37417  -0.36431
 Alpha virt. eigenvalues --    0.04923   0.11170   0.16436   0.19751   0.22984
 Alpha virt. eigenvalues --    0.24388   0.25719   0.27478   0.27904   0.28256
 Alpha virt. eigenvalues --    0.29504   0.31120   0.31489   0.32001   0.32392

 Mulliken charges:
               1
     1  C   -0.297916
     2  C   -0.302518
     3  C   -0.474293
     4  H    0.141002
     5  H    0.145896
     6  H    0.164123
     7  H    0.151963
     8  H    0.153043
     9  H    0.147023
    10  H    0.161912
    11  C   -0.302422
    12  C   -0.298248
    13  C   -0.476864
    14  H    0.168860
    15  H    0.147192
    16  H    0.149318
    17  H    0.147355
    18  H    0.153768
    19  H    0.162013
    20  H    0.157321
    21  C   -0.170461
    22  C   -0.218755
    23  C   -0.170061
    24  C    0.156994
    25  C   -0.179129
    26  C   -0.221557
    27  H    0.226080
    28  H    0.223810
    29  H    0.275769
    30  H    0.288827
    31  H    0.224500
    32  N    0.488023
    33  O   -0.463523
    34  O   -0.459047
 Sum of Mulliken charges =  -0.00000

 Dipole moment (field-independent basis, Debye):
    X=              2.4695    Y=              2.6515    Z=             -3.5167  Tot=              5.0494
 Quadrupole moment (field-independent basis, Debye-Ang):
   XX=            -79.6182   YY=            -96.0839   ZZ=            -98.0260
   XY=              3.2861   XZ=             -7.2608   YZ=              0.8666

 Normal termination of Gaussian 16 at Thu May  6 12:07:55 2021.
