 Gaussian 16, Revision A.03,
 Gaussian 16:  EM64L-G16RevA.03 25-Dec-2016

 -------------
 #p 6-31g* mp2
 -------------

 ------------------------------------------------------
 Input file generated by CHIRIPA (05-May-2021 14:53:17)
 ------------------------------------------------------
 Symbolic Z-matrix:
 Charge =  0 Multiplicity = 1

                         Standard orientation:
 ---------------------------------------------------------------------
 Center     Atomic      Atomic             Coordinates (Angstroms)
 Number     Number       Type             X           Y           Z
 ---------------------------------------------------------------------
      1          6           0        3.483822    0.852916    0.107856
      2          6           0        2.377433    1.531356   -0.700605
      3          6           0        1.668334    2.638087    0.080496
      4          1           0        3.053290    0.435818    1.028517
      5          1           0        4.216630    1.609686    0.420406
      6          1           0        1.647655    0.773313   -1.012712
      7          1           0        2.810613    1.946721   -1.619541
      8          1           0        2.379390    3.415176    0.379049
      9          1           0        1.209823    2.235101    0.989325
     10          1           0        0.881252    3.109571   -0.516215
     11          6           0        4.201995   -0.255717   -0.659533
     12          6           0        5.308384   -0.934157    0.148928
     13          6           0        6.017483   -2.040888   -0.632173
     14          1           0        3.469187   -1.012487   -0.972083
     15          1           0        4.632526    0.161381   -1.580194
     16          1           0        4.875203   -1.349522    1.067863
     17          1           0        6.038162   -0.176114    0.461035
     18          1           0        6.475993   -1.637902   -1.541003
     19          1           0        5.306427   -2.817977   -0.930726
     20          1           0        6.804565   -2.512372   -0.035463
     21          6           0       -4.694390   -0.468640   -1.641183
     22          6           0       -4.042539    0.752281   -1.438783
     23          6           0       -3.103155    0.894141   -0.413121
     24          6           0       -2.838685   -0.210528    0.394996
     25          6           0       -3.471552   -1.440007    0.218506
     26          6           0       -4.407322   -1.558964   -0.813352
     27          1           0       -5.422722   -0.569944   -2.440349
     28          1           0       -4.263488    1.600740   -2.080145
     29          1           0       -2.583878    1.827824   -0.234223
     30          1           0       -3.230305   -2.267908    0.874096
     31          1           0       -4.912023   -2.508354   -0.968211
     32          7           0       -1.846114   -0.072470    1.484098
     33          8           0       -1.630840   -1.060782    2.182334
     34          8           0       -1.302204    1.021439    1.618879
 ---------------------------------------------------------------------

 SCF Done:  E(RHF) =  -669.536138431     A.U. after   15 cycles
 E2 =    -0.2090982372D+01 EUMP2 =    -0.67162712080324D+03

 The electronic state is 1-A.
 Alpha  occ. eigenvalues --  -20.60940 -20.60930 -15.85969 -11.31282 -11.27846
 Alpha  occ. eigenvalues --  -11.27837 -11.27583 -11.26851 -11.26840 -11.21071
 Alpha  occ. eigenvalues --  -11.20837 -11.20797 -11.20653 -11.20604 -11.19973
 Alpha  occ. eigenvalues --   -1.60001  -1.39556  -1.19450  -1.08857  -1.07757
 Alpha  occ. eigenvalues --   -1.04845  -1.02836  -0.95703  -0.95268  -0.86287
 Alpha  occ. eigenvalues --   -0.86244  -0.82534  -0.78918  -0.77598  -0.77552
 Alpha  occ. eigenvalues --   -0.72199  -0.71317  -0.70558  -0.65107  -0.64848
 Alpha  occ. eigenvalues --   -0.64379  -0.62191  -0.60216  -0.58678  -0.56898
 Alpha  occ. eigenvalues --   -0.55351  -0.54528  -0.53177  -0.52937  -0.51988
 Alpha  occ. eigenvalues --   -0.51695  -0.49222  -0.48955  -0.48907  -0.47229
 Alpha  occ. eigenvalues --   -0.45955  -0.45132  -0.45057  -0.44851  -0.43108
 Alpha  occ. eigenvalues --   -0.37429  -0.36446
 Alpha virt. eigenvalues --    0.04920   0.11205   0.16397   0.21250   0.23516
 Alpha virt. eigenvalues --    0.24818   0.27112   0.27316   0.27861   0.28181
 Alpha virt. eigenvalues --    0.29057   0.30916   0.31857   0.32206   0.32462

 Mulliken charges:
               1
     1  C   -0.299726
     2  C   -0.297413
     3  C   -0.481976
     4  H    0.157452
     5  H    0.147618
     6  H    0.148173
     7  H    0.146142
     8  H    0.149419
     9  H    0.182585
    10  H    0.149507
    11  C   -0.297556
    12  C   -0.299658
    13  C   -0.475299
    14  H    0.148334
    15  H    0.146810
    16  H    0.154285
    17  H    0.151074
    18  H    0.153564
    19  H    0.154340
    20  H    0.159212
    21  C   -0.170550
    22  C   -0.218570
    23  C   -0.170947
    24  C    0.157807
    25  C   -0.170790
    26  C   -0.218609
    27  H    0.225984
    28  H    0.223920
    29  H    0.276670
    30  H    0.275695
    31  H    0.223750
    32  N    0.490055
    33  O   -0.459691
    34  O   -0.461611
 Sum of Mulliken charges =  -0.00000

 Dipole moment (field-independent basis, Debye):
    X=             -3.7001    Y=             -0.5353    Z=             -3.6710  Tot=              5.2397
 Quadrupole moment (field-independent basis, Debye-Ang):
   XX=            -75.9458   YY=            -90.6417   ZZ=            -98.2534
   XY=              3.8944   XZ=             10.0541   YZ=             -1.1888

 Normal termination of Gaussian 16 at Wed May  5 20:25:18 2021.
