 Gaussian 16, Revision A.03,
 Gaussian 16:  EM64L-G16RevA.03 25-Dec-2016

 -------------
 #p 6-31g* mp2
 -------------

 ------------------------------------------------------
 Input file generated by CHIRIPA (05-May-2021 14:57:25)
 ------------------------------------------------------
 Symbolic Z-matrix:
 Charge =  0 Multiplicity = 1

                         Standard orientation:
 ---------------------------------------------------------------------
 Center     Atomic      Atomic             Coordinates (Angstroms)
 Number     Number       Type             X           Y           Z
 ---------------------------------------------------------------------
      1          6           0       -3.858076    2.600720    0.186610
      2          6           0       -5.020180    1.899794    0.525340
      3          6           0       -5.063784    0.506118    0.423773
      4          6           0       -3.921904   -0.157660   -0.022096
      5          6           0       -2.749159    0.512394   -0.367044
      6          6           0       -2.728267    1.906008   -0.257717
      7          1           0       -3.833025    3.683336    0.268524
      8          1           0       -5.899105    2.436691    0.870704
      9          1           0       -5.950288   -0.061484    0.679421
     10          1           0       -1.888813   -0.050471   -0.708226
     11          1           0       -1.824382    2.447739   -0.521470
     12          7           0       -3.956044   -1.633049   -0.133728
     13          8           0       -2.936698   -2.194486   -0.529151
     14          8           0       -5.001502   -2.200084    0.176312
     15          6           0        1.492192   -0.759206   -0.185670
     16          6           0        1.880533    0.550072   -0.488162
     17          6           0        3.220866    0.934484   -0.386755
     18          6           0        4.150629   -0.020371    0.022005
     19          6           0        3.794887   -1.332494    0.330343
     20          6           0        2.448922   -1.694662    0.221900
     21          1           0        0.448802   -1.049186   -0.267178
     22          1           0        1.139693    1.278671   -0.804935
     23          1           0        3.549013    1.941327   -0.614797
     24          1           0        4.556248   -2.036541    0.643497
     25          1           0        2.150214   -2.712172    0.457463
     26          7           0        5.572561    0.374813    0.133085
     27          8           0        6.372387   -0.485205    0.495416
     28          8           0        5.860320    1.537095   -0.144285
 ---------------------------------------------------------------------

 SCF Done:  E(RHF) =  -868.337496382     A.U. after   16 cycles
 E2 =    -0.2599735273D+01 EUMP2 =    -0.87093723165463D+03

 The electronic state is 1-A.
 Alpha  occ. eigenvalues --  -20.61729 -20.61685 -20.60870 -20.60858 -15.86758
 Alpha  occ. eigenvalues --  -15.85923 -11.32114 -11.31310 -11.28802 -11.28602
 Alpha  occ. eigenvalues --  -11.28353 -11.27953 -11.27846 -11.27746 -11.27632
 Alpha  occ. eigenvalues --  -11.27598 -11.27042 -11.26811  -1.60773  -1.59942
 Alpha  occ. eigenvalues --   -1.40333  -1.39495  -1.20270  -1.19494  -1.09651
 Alpha  occ. eigenvalues --   -1.08883  -1.05688  -1.04910  -0.96500  -0.95711
 Alpha  occ. eigenvalues --   -0.87081  -0.86311  -0.83345  -0.82550  -0.78417
 Alpha  occ. eigenvalues --   -0.77594  -0.72980  -0.72141  -0.72089  -0.71400
 Alpha  occ. eigenvalues --   -0.71266  -0.70577  -0.65929  -0.65694  -0.65154
 Alpha  occ. eigenvalues --   -0.64945  -0.63058  -0.62258  -0.56156  -0.55399
 Alpha  occ. eigenvalues --   -0.53985  -0.53767  -0.53225  -0.53012  -0.49748
 Alpha  occ. eigenvalues --   -0.49716  -0.48902  -0.48893  -0.45740  -0.44896
 Alpha  occ. eigenvalues --   -0.38208  -0.37471  -0.37273  -0.36512
 Alpha virt. eigenvalues --    0.04137   0.04960   0.10361   0.11137   0.15662
 Alpha virt. eigenvalues --    0.16444   0.17347   0.22226   0.24453   0.24997
 Alpha virt. eigenvalues --    0.27734   0.28906   0.30576   0.31419   0.33372

 Mulliken charges:
               1
     1  C   -0.169699
     2  C   -0.217891
     3  C   -0.169167
     4  C    0.158904
     5  C   -0.174428
     6  C   -0.219385
     7  H    0.229162
     8  H    0.227135
     9  H    0.278308
    10  H    0.271666
    11  H    0.220540
    12  N    0.488573
    13  O   -0.467829
    14  O   -0.455016
    15  C   -0.177363
    16  C   -0.219375
    17  C   -0.170501
    18  C    0.158338
    19  C   -0.170186
    20  C   -0.219227
    21  H    0.236456
    22  H    0.211852
    23  H    0.274440
    24  H    0.276947
    25  H    0.230136
    26  N    0.488096
    27  O   -0.459202
    28  O   -0.461284
 Sum of Mulliken charges =  -0.00000

 Dipole moment (field-independent basis, Debye):
    X=             -5.1390    Y=              3.7358    Z=              0.1221  Tot=              6.3546
 Quadrupole moment (field-independent basis, Debye-Ang):
   XX=           -141.3792   YY=           -102.3012   ZZ=           -105.5542
   XY=            -28.2282   XZ=             -4.8572   YZ=             -1.7534

 Normal termination of Gaussian 16 at Wed May  5 16:26:02 2021.
