 Gaussian 16, Revision A.03,
 Gaussian 16:  EM64L-G16RevA.03 25-Dec-2016

 -------------
 #p 6-31g* mp2
 -------------

 ------------------------------------------------------
 Input file generated by CHIRIPA (05-May-2021 14:53:15)
 ------------------------------------------------------
 Symbolic Z-matrix:
 Charge =  0 Multiplicity = 1

                         Standard orientation:
 ---------------------------------------------------------------------
 Center     Atomic      Atomic             Coordinates (Angstroms)
 Number     Number       Type             X           Y           Z
 ---------------------------------------------------------------------
      1          6           0        2.916974    0.476294   -0.612596
      2          6           0        3.870129   -0.589288   -0.070364
      3          6           0        4.681720   -1.272029   -1.171718
      4          1           0        2.235150    0.013684   -1.339268
      5          1           0        3.496179    1.230247   -1.163479
      6          1           0        3.289454   -1.340268    0.480509
      7          1           0        4.549639   -0.124126    0.655244
      8          1           0        5.285610   -0.538807   -1.716056
      9          1           0        4.018264   -1.761859   -1.891784
     10          1           0        5.356460   -2.030085   -0.761918
     11          6           0        2.098660    1.167777    0.476413
     12          6           0        1.145505    2.233359   -0.065819
     13          6           0        0.333915    2.916100    1.035535
     14          1           0        1.519455    0.413824    1.027297
     15          1           0        2.780485    1.630387    1.203085
     16          1           0        0.465995    1.768197   -0.791426
     17          1           0        1.726180    2.984339   -0.616692
     18          1           0        0.997370    3.405930    1.755601
     19          1           0       -0.269976    2.182878    1.579873
     20          1           0       -0.340826    3.674156    0.625735
     21          6           0       -0.669751   -2.018770    1.728982
     22          6           0       -0.833894   -2.483226    0.419839
     23          6           0       -1.546457   -1.728885   -0.517055
     24          6           0       -2.083895   -0.509135   -0.108812
     25          6           0       -1.937514   -0.019379    1.188107
     26          6           0       -1.221113   -0.790494    2.108270
     27          1           0       -0.114724   -2.611276    2.450286
     28          1           0       -0.406799   -3.436751    0.122472
     29          1           0       -1.688671   -2.064621   -1.537091
     30          1           0       -2.374858    0.935052    1.454960
     31          1           0       -1.095225   -0.427293    3.124283
     32          7           0       -2.840285    0.298331   -1.091804
     33          8           0       -3.303978    1.369631   -0.707170
     34          8           0       -2.955128   -0.155366   -2.228292
 ---------------------------------------------------------------------

 SCF Done:  E(RHF) =  -669.534662584     A.U. after   15 cycles
 E2 =    -0.2095012934D+01 EUMP2 =    -0.67162967551732D+03

 The electronic state is 1-A.
 Alpha  occ. eigenvalues --  -20.60878 -20.60868 -15.85931 -11.31334 -11.27915
 Alpha  occ. eigenvalues --  -11.27894 -11.27668 -11.26930 -11.26919 -11.21865
 Alpha  occ. eigenvalues --  -11.21562 -11.21490 -11.21376 -11.21327 -11.21056
 Alpha  occ. eigenvalues --   -1.59950  -1.39501  -1.19528  -1.08907  -1.08524
 Alpha  occ. eigenvalues --   -1.04943  -1.03639  -0.96102  -0.95726  -0.87124
 Alpha  occ. eigenvalues --   -0.86315  -0.82564  -0.79719  -0.78338  -0.77600
 Alpha  occ. eigenvalues --   -0.72146  -0.71282  -0.70629  -0.65199  -0.65163
 Alpha  occ. eigenvalues --   -0.64920  -0.62319  -0.61052  -0.59451  -0.57693
 Alpha  occ. eigenvalues --   -0.55519  -0.55315  -0.53244  -0.53024  -0.52772
 Alpha  occ. eigenvalues --   -0.52514  -0.50052  -0.48908  -0.48897  -0.48026
 Alpha  occ. eigenvalues --   -0.46764  -0.45864  -0.45806  -0.44891  -0.43873
 Alpha  occ. eigenvalues --   -0.37469  -0.36442
 Alpha virt. eigenvalues --    0.04894   0.11064   0.16302   0.20938   0.22749
 Alpha virt. eigenvalues --    0.24074   0.26299   0.26535   0.27240   0.27947
 Alpha virt. eigenvalues --    0.28769   0.30701   0.31354   0.31715   0.32040

 Mulliken charges:
               1
     1  C   -0.297653
     2  C   -0.298610
     3  C   -0.475573
     4  H    0.150286
     5  H    0.150766
     6  H    0.146050
     7  H    0.151868
     8  H    0.157285
     9  H    0.154376
    10  H    0.158961
    11  C   -0.303196
    12  C   -0.298766
    13  C   -0.477500
    14  H    0.151683
    15  H    0.147073
    16  H    0.153254
    17  H    0.153667
    18  H    0.152850
    19  H    0.145702
    20  H    0.168519
    21  C   -0.170996
    22  C   -0.218366
    23  C   -0.171913
    24  C    0.158209
    25  C   -0.169374
    26  C   -0.218167
    27  H    0.226931
    28  H    0.224386
    29  H    0.276306
    30  H    0.278380
    31  H    0.225262
    32  N    0.487995
    33  O   -0.459513
    34  O   -0.460181
 Sum of Mulliken charges =  -0.00000

 Dipole moment (field-independent basis, Debye):
    X=              2.5386    Y=             -2.8524    Z=              3.4155  Tot=              5.1231
 Quadrupole moment (field-independent basis, Debye-Ang):
   XX=           -106.5602   YY=            -89.4589   ZZ=            -93.8941
   XY=              4.8912   XZ=             -7.8498   YZ=              0.7487

 Normal termination of Gaussian 16 at Wed May  5 18:40:10 2021.
