 Gaussian 16, Revision A.03,
 Gaussian 16:  EM64L-G16RevA.03 25-Dec-2016

 -------------
 #p 6-31g* mp2
 -------------

 ------------------------------------------------------
 Input file generated by CHIRIPA (05-May-2021 14:53:18)
 ------------------------------------------------------
 Symbolic Z-matrix:
 Charge =  0 Multiplicity = 1

                         Standard orientation:
 ---------------------------------------------------------------------
 Center     Atomic      Atomic             Coordinates (Angstroms)
 Number     Number       Type             X           Y           Z
 ---------------------------------------------------------------------
      1          6           0        3.540347    0.261371   -0.374077
      2          6           0        3.929536   -1.136482    0.108130
      3          6           0        4.846748   -1.866397   -0.873573
      4          1           0        3.044056    0.180392   -1.350848
      5          1           0        4.452072    0.853243   -0.534830
      6          1           0        3.017293   -1.725098    0.269251
      7          1           0        4.424788   -1.052183    1.083956
      8          1           0        5.772929   -1.303154   -1.027016
      9          1           0        4.357438   -1.979893   -1.846350
     10          1           0        5.112528   -2.863584   -0.509100
     11          6           0        2.623583    1.003657    0.596636
     12          6           0        2.234395    2.401510    0.114430
     13          6           0        1.317183    3.131425    1.096133
     14          1           0        1.711859    0.411785    0.757390
     15          1           0        3.119875    1.084636    1.573408
     16          1           0        1.739143    2.317211   -0.861396
     17          1           0        3.146637    2.990126   -0.046691
     18          1           0        1.806493    3.244920    2.068910
     19          1           0        0.391001    2.568181    1.249576
     20          1           0        1.051403    4.128611    0.731660
     21          6           0       -1.023166   -2.507526    0.541612
     22          6           0       -0.424173   -1.418934   -0.100802
     23          6           0       -1.181628   -0.298102   -0.453710
     24          6           0       -2.541645   -0.299506   -0.147703
     25          6           0       -3.167393   -1.368612    0.491626
     26          6           0       -2.390453   -2.478940    0.835258
     27          1           0       -0.427189   -3.374136    0.812156
     28          1           0        0.637474   -1.438370   -0.330095
     29          1           0       -0.743457    0.558313   -0.951685
     30          1           0       -4.227882   -1.320113    0.707098
     31          1           0       -2.858318   -3.322924    1.334098
     32          7           0       -3.353842    0.881510   -0.516401
     33          8           0       -4.550173    0.855683   -0.235751
     34          8           0       -2.778734    1.810653   -1.079056
 ---------------------------------------------------------------------

 SCF Done:  E(RHF) =  -669.534749086     A.U. after   15 cycles
 E2 =    -0.2093681026D+01 EUMP2 =    -0.67162843011202D+03

 The electronic state is 1-A.
 Alpha  occ. eigenvalues --  -20.60798 -20.60793 -15.85851 -11.31235 -11.27804
 Alpha  occ. eigenvalues --  -11.27800 -11.27534 -11.26819 -11.26777 -11.22553
 Alpha  occ. eigenvalues --  -11.22165 -11.22006 -11.21943 -11.21834 -11.21159
 Alpha  occ. eigenvalues --   -1.59872  -1.39425  -1.19410  -1.09134  -1.08793
 Alpha  occ. eigenvalues --   -1.04817  -1.04114  -0.96530  -0.95629  -0.87541
 Alpha  occ. eigenvalues --   -0.86213  -0.82471  -0.80207  -0.78919  -0.77507
 Alpha  occ. eigenvalues --   -0.72068  -0.71196  -0.70513  -0.65973  -0.65054
 Alpha  occ. eigenvalues --   -0.64739  -0.62113  -0.61517  -0.59916  -0.58130
 Alpha  occ. eigenvalues --   -0.55834  -0.55301  -0.53214  -0.53152  -0.52955
 Alpha  occ. eigenvalues --   -0.52850  -0.50494  -0.48833  -0.48822  -0.48490
 Alpha  occ. eigenvalues --   -0.47285  -0.46407  -0.46352  -0.44824  -0.44372
 Alpha  occ. eigenvalues --   -0.37380  -0.36373
 Alpha virt. eigenvalues --    0.04985   0.11145   0.16337   0.18578   0.22464
 Alpha virt. eigenvalues --    0.23280   0.25494   0.26253   0.27207   0.28413
 Alpha virt. eigenvalues --    0.29441   0.30607   0.31265   0.31558   0.32369

 Mulliken charges:
               1
     1  C   -0.301023
     2  C   -0.301625
     3  C   -0.475904
     4  H    0.146130
     5  H    0.155417
     6  H    0.140665
     7  H    0.156928
     8  H    0.159424
     9  H    0.155154
    10  H    0.161228
    11  C   -0.306338
    12  C   -0.301768
    13  C   -0.476224
    14  H    0.147546
    15  H    0.153174
    16  H    0.150682
    17  H    0.154528
    18  H    0.154597
    19  H    0.157994
    20  H    0.166406
    21  C   -0.173711
    22  C   -0.224588
    23  C   -0.174647
    24  C    0.158405
    25  C   -0.170714
    26  C   -0.218451
    27  H    0.225988
    28  H    0.234775
    29  H    0.278813
    30  H    0.275865
    31  H    0.223762
    32  N    0.487966
    33  O   -0.460174
    34  O   -0.460279
 Sum of Mulliken charges =  -0.00000

 Dipole moment (field-independent basis, Debye):
    X=              2.9417    Y=             -4.0566    Z=              1.3370  Tot=              5.1862
 Quadrupole moment (field-independent basis, Debye-Ang):
   XX=           -105.2121   YY=            -91.6446   ZZ=            -95.2724
   XY=             12.7874   XZ=             -4.7693   YZ=             -0.9535

 Normal termination of Gaussian 16 at Wed May  5 18:50:11 2021.
