 Gaussian 16, Revision A.03,
 Gaussian 16:  EM64L-G16RevA.03 25-Dec-2016

 -------------
 #p 6-31g* mp2
 -------------

 ------------------------------------------------------
 Input file generated by CHIRIPA (05-May-2021 14:55:19)
 ------------------------------------------------------
 Symbolic Z-matrix:
 Charge =  0 Multiplicity = 1

                         Standard orientation:
 ---------------------------------------------------------------------
 Center     Atomic      Atomic             Coordinates (Angstroms)
 Number     Number       Type             X           Y           Z
 ---------------------------------------------------------------------
      1          6           0        3.836274   -0.438560   -1.947779
      2          6           0        2.688613    0.361014   -1.938981
      3          6           0        1.962580    0.548002   -0.758956
      4          6           0        2.414724   -0.082376    0.399266
      5          6           0        3.554268   -0.884990    0.422560
      6          6           0        4.264683   -1.057918   -0.769059
      7          1           0        4.394207   -0.578356   -2.868954
      8          1           0        2.353563    0.843245   -2.852896
      9          1           0        1.070658    1.161730   -0.723857
     10          1           0        3.863595   -1.352743    1.349350
     11          1           0        5.155611   -1.679430   -0.772926
     12          7           0        1.654373    0.108137    1.654642
     13          8           0        2.073537   -0.458168    2.661735
     14          8           0        0.653642    0.820160    1.607742
     15          6           0       -3.824935   -0.343116   -0.121958
     16          6           0       -3.460606   -1.796232   -0.428068
     17          6           0       -4.618548   -2.761997   -0.174568
     18          1           0       -4.146551   -0.265278    0.925635
     19          1           0       -4.687998   -0.051553   -0.736376
     20          1           0       -2.597622   -2.084536    0.185736
     21          1           0       -3.139638   -1.870585   -1.474999
     22          1           0       -5.480387   -2.502128   -0.797707
     23          1           0       -4.935291   -2.717294    0.872465
     24          1           0       -4.336262   -3.795169   -0.399800
     25          6           0       -2.677566    0.634381   -0.370496
     26          6           0       -3.041894    2.087496   -0.064386
     27          6           0       -1.883952    3.053262   -0.317886
     28          1           0       -1.814503    0.342818    0.243922
     29          1           0       -2.355950    0.556542   -1.418088
     30          1           0       -3.362862    2.161850    0.982546
     31          1           0       -3.904879    2.375801   -0.678190
     32          1           0       -1.567210    3.008559   -1.364918
     33          1           0       -1.022114    2.793392    0.305253
     34          1           0       -2.166239    4.086434   -0.092653
 ---------------------------------------------------------------------

 SCF Done:  E(RHF) =  -669.536585171     A.U. after   15 cycles
 E2 =    -0.2092389393D+01 EUMP2 =    -0.67162897456347D+03

 The electronic state is 1-A.
 Alpha  occ. eigenvalues --  -20.61041 -20.61014 -15.86048 -11.31276 -11.27845
 Alpha  occ. eigenvalues --  -11.27806 -11.27572 -11.26835 -11.26815 -11.21181
 Alpha  occ. eigenvalues --  -11.20989 -11.20848 -11.20713 -11.20674 -11.20508
 Alpha  occ. eigenvalues --   -1.60083  -1.39644  -1.19444  -1.08868  -1.07870
 Alpha  occ. eigenvalues --   -1.04827  -1.03020  -0.95725  -0.95474  -0.86501
 Alpha  occ. eigenvalues --   -0.86233  -0.82567  -0.79106  -0.77807  -0.77508
 Alpha  occ. eigenvalues --   -0.72287  -0.71385  -0.70556  -0.65115  -0.64835
 Alpha  occ. eigenvalues --   -0.64461  -0.62178  -0.60391  -0.58847  -0.57099
 Alpha  occ. eigenvalues --   -0.55343  -0.54746  -0.53165  -0.52923  -0.52193
 Alpha  occ. eigenvalues --   -0.51920  -0.49423  -0.49060  -0.49019  -0.47408
 Alpha  occ. eigenvalues --   -0.46097  -0.45383  -0.45245  -0.44723  -0.43258
 Alpha  occ. eigenvalues --   -0.37425  -0.36423
 Alpha virt. eigenvalues --    0.04856   0.11218   0.16343   0.20790   0.23424
 Alpha virt. eigenvalues --    0.24097   0.26687   0.27161   0.27686   0.28363
 Alpha virt. eigenvalues --    0.29412   0.30946   0.31671   0.32074   0.32448

 Mulliken charges:
               1
     1  C   -0.170071
     2  C   -0.220254
     3  C   -0.172278
     4  C    0.156372
     5  C   -0.170447
     6  C   -0.218945
     7  H    0.225978
     8  H    0.224396
     9  H    0.282693
    10  H    0.275518
    11  H    0.223698
    12  N    0.493286
    13  O   -0.458006
    14  O   -0.466960
    15  C   -0.297457
    16  C   -0.299625
    17  C   -0.475381
    18  H    0.152557
    19  H    0.146317
    20  H    0.154453
    21  H    0.147708
    22  H    0.153668
    23  H    0.156581
    24  H    0.158310
    25  C   -0.310572
    26  C   -0.295523
    27  C   -0.489833
    28  H    0.171839
    29  H    0.138582
    30  H    0.156359
    31  H    0.147328
    32  H    0.142646
    33  H    0.178069
    34  H    0.158995
 Sum of Mulliken charges =  -0.00000

 Dipole moment (field-independent basis, Debye):
    X=              2.8814    Y=             -0.7078    Z=             -4.1894  Tot=              5.1336
 Quadrupole moment (field-independent basis, Debye-Ang):
   XX=            -80.9153   YY=            -94.5592   ZZ=            -96.7597
   XY=             -4.7647   XZ=             -8.1994   YZ=             -1.2790

 Normal termination of Gaussian 16 at Thu May  6 15:43:50 2021.
