 Gaussian 16, Revision A.03,
 Gaussian 16:  EM64L-G16RevA.03 25-Dec-2016

 -------------
 #p 6-31g* mp2
 -------------

 ------------------------------------------------------
 Input file generated by CHIRIPA (05-May-2021 14:57:22)
 ------------------------------------------------------
 Symbolic Z-matrix:
 Charge =  0 Multiplicity = 1

                         Standard orientation:
 ---------------------------------------------------------------------
 Center     Atomic      Atomic             Coordinates (Angstroms)
 Number     Number       Type             X           Y           Z
 ---------------------------------------------------------------------
      1          6           0       -4.051795   -2.125381    0.550109
      2          6           0       -3.288957   -1.448895    1.507693
      3          6           0       -2.875852   -0.131909    1.285340
      4          6           0       -3.245114    0.480936    0.088947
      5          6           0       -4.004452   -0.166520   -0.884448
      6          6           0       -4.406483   -1.483166   -0.640806
      7          1           0       -4.368404   -3.148315    0.731108
      8          1           0       -3.012034   -1.945149    2.433485
      9          1           0       -2.284673    0.415224    2.009612
     10          1           0       -4.265028    0.354493   -1.797719
     11          1           0       -4.998848   -2.006078   -1.386266
     12          7           0       -2.813641    1.874990   -0.157718
     13          8           0       -3.152025    2.392684   -1.219850
     14          8           0       -2.145237    2.423559    0.715750
     15          6           0        1.094406   -1.315717   -0.673841
     16          6           0        2.261788   -2.086142   -0.687455
     17          6           0        3.498325   -1.506859   -0.387531
     18          6           0        3.531024   -0.148263   -0.076985
     19          6           0        2.385481    0.645803   -0.055053
     20          6           0        1.159863    0.045398   -0.358240
     21          1           0        0.138076   -1.773923   -0.908097
     22          1           0        2.213961   -3.143432   -0.932195
     23          1           0        4.417557   -2.079939   -0.390686
     24          1           0        2.464848    1.697341    0.192713
     25          1           0        0.254883    0.646168   -0.346893
     26          7           0        4.834310    0.476179    0.242259
     27          8           0        4.836363    1.675147    0.512645
     28          8           0        5.829095   -0.245175    0.216052
 ---------------------------------------------------------------------

 SCF Done:  E(RHF) =  -868.338671581     A.U. after   16 cycles
 E2 =    -0.2599953119D+01 EUMP2 =    -0.87093862470033D+03

 The electronic state is 1-A.
 Alpha  occ. eigenvalues --  -20.61873 -20.61859 -20.60529 -20.60514 -15.86892
 Alpha  occ. eigenvalues --  -15.85576 -11.32223 -11.30940 -11.28761 -11.28749
 Alpha  occ. eigenvalues --  -11.28466 -11.27738 -11.27728 -11.27548 -11.27437
 Alpha  occ. eigenvalues --  -11.27281 -11.26592 -11.26444  -1.60942  -1.59600
 Alpha  occ. eigenvalues --   -1.40489  -1.39153  -1.20385  -1.19117  -1.09781
 Alpha  occ. eigenvalues --   -1.08524  -1.05751  -1.04504  -0.96615  -0.95354
 Alpha  occ. eigenvalues --   -0.87146  -0.85915  -0.83427  -0.82171  -0.78493
 Alpha  occ. eigenvalues --   -0.77213  -0.73089  -0.72292  -0.71793  -0.71443
 Alpha  occ. eigenvalues --   -0.70924  -0.70238  -0.66010  -0.65718  -0.64766
 Alpha  occ. eigenvalues --   -0.64503  -0.63075  -0.61836  -0.56228  -0.55048
 Alpha  occ. eigenvalues --   -0.54118  -0.53811  -0.52859  -0.52589  -0.49869
 Alpha  occ. eigenvalues --   -0.49850  -0.48558  -0.48546  -0.45873  -0.44558
 Alpha  occ. eigenvalues --   -0.38373  -0.37396  -0.37100  -0.36108
 Alpha virt. eigenvalues --    0.04001   0.05304   0.10230   0.11549   0.15485
 Alpha virt. eigenvalues --    0.16788   0.20539   0.21495   0.26463   0.26933
 Alpha virt. eigenvalues --    0.27602   0.28455   0.30059   0.30966   0.31856

 Mulliken charges:
               1
     1  C   -0.172230
     2  C   -0.219722
     3  C   -0.175021
     4  C    0.151837
     5  C   -0.172040
     6  C   -0.219809
     7  H    0.228822
     8  H    0.227617
     9  H    0.278634
    10  H    0.278243
    11  H    0.226706
    12  N    0.486178
    13  O   -0.454540
    14  O   -0.460070
    15  C   -0.172927
    16  C   -0.219038
    17  C   -0.171822
    18  C    0.158249
    19  C   -0.171813
    20  C   -0.222820
    21  H    0.223306
    22  H    0.220357
    23  H    0.274333
    24  H    0.280948
    25  H    0.229397
    26  N    0.487937
    27  O   -0.458591
    28  O   -0.462119
 Sum of Mulliken charges =  -0.00000

 Dipole moment (field-independent basis, Debye):
    X=             -6.3880    Y=             -7.0189    Z=             -0.2169  Tot=              9.4931
 Quadrupole moment (field-independent basis, Debye-Ang):
   XX=           -125.8171   YY=           -105.6122   ZZ=           -101.2766
   XY=              6.4732   XZ=             -4.5525   YZ=              0.9213

 Normal termination of Gaussian 16 at Fri May  7 01:43:33 2021.
