 Gaussian 16, Revision A.03,
 Gaussian 16:  EM64L-G16RevA.03 25-Dec-2016

 -------------
 #p 6-31g* mp2
 -------------

 ------------------------------------------------------
 Input file generated by CHIRIPA (05-May-2021 14:55:20)
 ------------------------------------------------------
 Symbolic Z-matrix:
 Charge =  0 Multiplicity = 1

                         Standard orientation:
 ---------------------------------------------------------------------
 Center     Atomic      Atomic             Coordinates (Angstroms)
 Number     Number       Type             X           Y           Z
 ---------------------------------------------------------------------
      1          6           0        2.482095    1.476662    1.874784
      2          6           0        2.131318    1.835003    0.569001
      3          6           0        2.047970    0.865827   -0.435141
      4          6           0        2.323220   -0.458213   -0.096842
      5          6           0        2.675295   -0.846632    1.194848
      6          6           0        2.752487    0.139346    2.182996
      7          1           0        2.544451    2.236067    2.648613
      8          1           0        1.920787    2.872807    0.326752
      9          1           0        1.778693    1.115540   -1.454234
     10          1           0        2.879460   -1.889315    1.405910
     11          1           0        3.025144   -0.141850    3.196225
     12          7           0        2.238241   -1.493129   -1.151416
     13          8           0        2.485551   -2.652731   -0.827688
     14          8           0        1.925935   -1.125099   -2.281750
     15          6           0       -2.308171    0.677875   -0.241284
     16          6           0       -2.392267    2.065099   -0.878876
     17          6           0       -1.016832    2.671558   -1.158483
     18          1           0       -1.738504    0.745862    0.695627
     19          1           0       -1.740317    0.010899   -0.904669
     20          1           0       -2.960979    2.728893   -0.215128
     21          1           0       -2.961964    1.993836   -1.814281
     22          1           0       -0.445106    2.032365   -1.839044
     23          1           0       -0.444115    2.771598   -0.230805
     24          1           0       -1.100391    3.663118   -1.614207
     25          6           0       -3.675126    0.058498    0.044255
     26          6           0       -3.591030   -1.328726    0.681847
     27          6           0       -4.966465   -1.935184    0.961454
     28          1           0       -4.242980    0.725475    0.707641
     29          1           0       -4.244792   -0.009488   -0.892656
     30          1           0       -3.021333   -1.257463    1.617253
     31          1           0       -3.022318   -1.992519    0.018100
     32          1           0       -5.539182   -2.035225    0.033776
     33          1           0       -5.538192   -1.295991    1.642015
     34          1           0       -4.882905   -2.926745    1.417179
 ---------------------------------------------------------------------

 SCF Done:  E(RHF) =  -669.534026639     A.U. after   15 cycles
 E2 =    -0.2093376683D+01 EUMP2 =    -0.67162740332167D+03

 The electronic state is 1-A.
 Alpha  occ. eigenvalues --  -20.60776 -20.60768 -15.85825 -11.31150 -11.27725
 Alpha  occ. eigenvalues --  -11.27696 -11.27475 -11.26739 -11.26696 -11.21860
 Alpha  occ. eigenvalues --  -11.21564 -11.21536 -11.21452 -11.21370 -11.21002
 Alpha  occ. eigenvalues --   -1.59848  -1.39403  -1.19334  -1.08739  -1.08513
 Alpha  occ. eigenvalues --   -1.04747  -1.03663  -0.96152  -0.95572  -0.87189
 Alpha  occ. eigenvalues --   -0.86139  -0.82416  -0.79763  -0.78309  -0.77438
 Alpha  occ. eigenvalues --   -0.72045  -0.71169  -0.70455  -0.65180  -0.64987
 Alpha  occ. eigenvalues --   -0.64737  -0.62132  -0.61063  -0.59508  -0.57732
 Alpha  occ. eigenvalues --   -0.55475  -0.55247  -0.53172  -0.52882  -0.52802
 Alpha  occ. eigenvalues --   -0.52471  -0.50057  -0.48801  -0.48800  -0.48042
 Alpha  occ. eigenvalues --   -0.46745  -0.45852  -0.45744  -0.44810  -0.43900
 Alpha  occ. eigenvalues --   -0.37319  -0.36243
 Alpha virt. eigenvalues --    0.05070   0.11191   0.16486   0.20885   0.22862
 Alpha virt. eigenvalues --    0.24242   0.25740   0.26341   0.27511   0.27897
 Alpha virt. eigenvalues --    0.29327   0.29557   0.31536   0.31623   0.32260

 Mulliken charges:
               1
     1  C   -0.172554
     2  C   -0.220226
     3  C   -0.166643
     4  C    0.157850
     5  C   -0.170890
     6  C   -0.218795
     7  H    0.225313
     8  H    0.225506
     9  H    0.277880
    10  H    0.275364
    11  H    0.223142
    12  N    0.488073
    13  O   -0.460285
    14  O   -0.461576
    15  C   -0.301137
    16  C   -0.298172
    17  C   -0.483568
    18  H    0.148573
    19  H    0.155568
    20  H    0.151156
    21  H    0.155315
    22  H    0.156557
    23  H    0.151699
    24  H    0.160013
    25  C   -0.298419
    26  C   -0.300441
    27  C   -0.475808
    28  H    0.147803
    29  H    0.151223
    30  H    0.150051
    31  H    0.156603
    32  H    0.156152
    33  H    0.153721
    34  H    0.160950
 Sum of Mulliken charges =  -0.00000

 Dipole moment (field-independent basis, Debye):
    X=              0.2512    Y=              3.5779    Z=              3.6796  Tot=              5.1385
 Quadrupole moment (field-independent basis, Debye-Ang):
   XX=            -94.6300   YY=            -96.3396   ZZ=            -92.8800
   XY=              7.0057   XZ=             10.1119   YZ=             -4.1176

 Normal termination of Gaussian 16 at Wed May  5 18:54:05 2021.
