 Gaussian 16, Revision A.03,
 Gaussian 16:  EM64L-G16RevA.03 25-Dec-2016

 -------------
 #p 6-31g* mp2
 -------------

 ------------------------------------------------------
 Input file generated by CHIRIPA (05-May-2021 14:57:21)
 ------------------------------------------------------
 Symbolic Z-matrix:
 Charge =  0 Multiplicity = 1

                         Standard orientation:
 ---------------------------------------------------------------------
 Center     Atomic      Atomic             Coordinates (Angstroms)
 Number     Number       Type             X           Y           Z
 ---------------------------------------------------------------------
      1          6           0        4.249975   -0.379645   -1.510675
      2          6           0        2.973713   -0.943922   -1.606942
      3          6           0        2.038786   -0.764000   -0.583180
      4          6           0        2.415444   -0.010636    0.527613
      5          6           0        3.679201    0.564292    0.652779
      6          6           0        4.598032    0.371337   -0.383110
      7          1           0        4.969997   -0.524474   -2.310668
      8          1           0        2.700643   -1.527620   -2.481456
      9          1           0        1.043851   -1.189617   -0.631894
     10          1           0        3.922290    1.141139    1.536845
     11          1           0        5.588471    0.810739   -0.305642
     12          7           0        1.434199    0.186738    1.617843
     13          8           0        1.790620    0.854684    2.586062
     14          8           0        0.327257   -0.330244    1.483502
     15          6           0       -2.359651    2.463983   -1.024875
     16          6           0       -3.110287    2.117353    0.103361
     17          6           0       -3.237649    0.779234    0.487764
     18          6           0       -2.598193   -0.190870   -0.282485
     19          6           0       -1.843390    0.122796   -1.411722
     20          6           0       -1.729709    1.467355   -1.777488
     21          1           0       -2.266027    3.505967   -1.316251
     22          1           0       -3.600601    2.889233    0.689737
     23          1           0       -3.812654    0.482924    1.356664
     24          1           0       -1.366146   -0.668931   -1.976368
     25          1           0       -1.146114    1.733622   -2.654167
     26          7           0       -2.725784   -1.610885    0.114600
     27          8           0       -2.152692   -2.446740   -0.580777
     28          8           0       -3.396466   -1.861150    1.113695
 ---------------------------------------------------------------------

 SCF Done:  E(RHF) =  -868.338242442     A.U. after   16 cycles
 E2 =    -0.2602092948D+01 EUMP2 =    -0.87094033538907D+03

 The electronic state is 1-A.
 Alpha  occ. eigenvalues --  -20.60855 -20.60824 -20.60189 -20.60125 -15.85888
 Alpha  occ. eigenvalues --  -15.85195 -11.31246 -11.30531 -11.27837 -11.27776
 Alpha  occ. eigenvalues --  -11.27584 -11.27236 -11.27040 -11.26907 -11.26852
 Alpha  occ. eigenvalues --  -11.26830 -11.26270 -11.26129  -1.59904  -1.59189
 Alpha  occ. eigenvalues --   -1.39461  -1.38764  -1.19427  -1.18710  -1.08826
 Alpha  occ. eigenvalues --   -1.08118  -1.04832  -1.04165  -0.95662  -0.94971
 Alpha  occ. eigenvalues --   -0.86229  -0.85570  -0.82504  -0.81835  -0.77551
 Alpha  occ. eigenvalues --   -0.76873  -0.72172  -0.71451  -0.71223  -0.70546
 Alpha  occ. eigenvalues --   -0.70386  -0.69901  -0.65083  -0.64841  -0.64414
 Alpha  occ. eigenvalues --   -0.64217  -0.62189  -0.61531  -0.55339  -0.54697
 Alpha  occ. eigenvalues --   -0.53167  -0.52935  -0.52415  -0.52291  -0.48876
 Alpha  occ. eigenvalues --   -0.48860  -0.48207  -0.48176  -0.44854  -0.44181
 Alpha  occ. eigenvalues --   -0.37426  -0.36616  -0.36469  -0.35708
 Alpha virt. eigenvalues --    0.04978   0.05711   0.11167   0.11865   0.16436
 Alpha virt. eigenvalues --    0.17237   0.20874   0.22063   0.26148   0.27755
 Alpha virt. eigenvalues --    0.28174   0.29342   0.30622   0.31382   0.32268

 Mulliken charges:
               1
     1  C   -0.170846
     2  C   -0.221312
     3  C   -0.175865
     4  C    0.157775
     5  C   -0.171065
     6  C   -0.219099
     7  H    0.225489
     8  H    0.223924
     9  H    0.283337
    10  H    0.275265
    11  H    0.223229
    12  N    0.491069
    13  O   -0.461089
    14  O   -0.462430
    15  C   -0.171403
    16  C   -0.216696
    17  C   -0.163966
    18  C    0.179493
    19  C   -0.174539
    20  C   -0.219121
    21  H    0.222655
    22  H    0.222674
    23  H    0.276607
    24  H    0.263243
    25  H    0.217636
    26  N    0.492879
    27  O   -0.471781
    28  O   -0.456065
 Sum of Mulliken charges =  -0.00000

 Dipole moment (field-independent basis, Debye):
    X=              3.8122    Y=              4.2882    Z=             -4.9181  Tot=              7.5571
 Quadrupole moment (field-independent basis, Debye-Ang):
   XX=            -87.1099   YY=           -106.3604   ZZ=           -104.9657
   XY=            -13.7632   XZ=             -5.3333   YZ=              1.3307

 Normal termination of Gaussian 16 at Wed May  5 16:14:55 2021.
