 Gaussian 16, Revision A.03,
 Gaussian 16:  EM64L-G16RevA.03 25-Dec-2016

 -------------
 #p 6-31g* mp2
 -------------

 ------------------------------------------------------
 Input file generated by CHIRIPA (05-May-2021 14:55:22)
 ------------------------------------------------------
 Symbolic Z-matrix:
 Charge =  0 Multiplicity = 1

                         Standard orientation:
 ---------------------------------------------------------------------
 Center     Atomic      Atomic             Coordinates (Angstroms)
 Number     Number       Type             X           Y           Z
 ---------------------------------------------------------------------
      1          6           0        1.189117    0.984545   -0.769234
      2          6           0        2.404002    1.588687   -1.109217
      3          6           0        3.617557    0.982117   -0.771718
      4          6           0        3.579084   -0.233905   -0.091203
      5          6           0        2.384928   -0.860738    0.261445
      6          6           0        1.183467   -0.236087   -0.086193
      7          1           0        0.251096    1.462766   -1.035350
      8          1           0        2.411428    2.536634   -1.639675
      9          1           0        4.572431    1.427842   -1.022643
     10          1           0        2.409534   -1.805820    0.790248
     11          1           0        0.241476   -0.707575    0.179130
     12          7           0        4.857419   -0.885624    0.271459
     13          8           0        4.796500   -1.956839    0.870978
     14          8           0        5.896090   -0.312885   -0.050673
     15          6           0       -4.012919    0.684847    0.663131
     16          6           0       -2.613928    1.143040    0.249772
     17          6           0       -2.029842    2.189251    1.199551
     18          1           0       -4.679864    1.556825    0.705333
     19          1           0       -3.970678    0.274067    1.681400
     20          1           0       -2.658536    1.551564   -0.767939
     21          1           0       -1.950281    0.269842    0.208363
     22          1           0       -1.956396    1.788679    2.215793
     23          1           0       -2.668675    3.077683    1.233944
     24          1           0       -1.029412    2.502715    0.885318
     25          6           0       -4.610183   -0.361022   -0.276637
     26          6           0       -6.009175   -0.819216    0.136723
     27          6           0       -6.593260   -1.865428   -0.813055
     28          1           0       -4.652424    0.049758   -1.294905
     29          1           0       -3.943237   -1.233001   -0.318838
     30          1           0       -6.672822    0.053981    0.178131
     31          1           0       -5.964567   -1.227740    1.154433
     32          1           0       -5.954428   -2.753859   -0.847449
     33          1           0       -6.666706   -1.464855   -1.829298
     34          1           0       -7.593690   -2.178890   -0.498823
 ---------------------------------------------------------------------

 SCF Done:  E(RHF) =  -669.534901932     A.U. after   15 cycles
 E2 =    -0.2092413772D+01 EUMP2 =    -0.67162731570395D+03

 The electronic state is 1-A.
 Alpha  occ. eigenvalues --  -20.60730 -20.60725 -15.85783 -11.31141 -11.27710
 Alpha  occ. eigenvalues --  -11.27704 -11.27402 -11.26719 -11.26696 -11.22939
 Alpha  occ. eigenvalues --  -11.22362 -11.22257 -11.22184 -11.22172 -11.21608
 Alpha  occ. eigenvalues --   -1.59805  -1.39359  -1.19311  -1.09372  -1.08703
 Alpha  occ. eigenvalues --   -1.04719  -1.04452  -0.96864  -0.95537  -0.87870
 Alpha  occ. eigenvalues --   -0.86117  -0.82376  -0.80570  -0.79151  -0.77427
 Alpha  occ. eigenvalues --   -0.72001  -0.71128  -0.70436  -0.66031  -0.64961
 Alpha  occ. eigenvalues --   -0.64740  -0.62157  -0.61750  -0.60271  -0.58500
 Alpha  occ. eigenvalues --   -0.56113  -0.55179  -0.53570  -0.53301  -0.52967
 Alpha  occ. eigenvalues --   -0.52819  -0.50784  -0.48878  -0.48757  -0.48739
 Alpha  occ. eigenvalues --   -0.47587  -0.46682  -0.46578  -0.44766  -0.44692
 Alpha  occ. eigenvalues --   -0.37269  -0.36319
 Alpha virt. eigenvalues --    0.05079   0.11314   0.16484   0.19515   0.22396
 Alpha virt. eigenvalues --    0.23963   0.24449   0.25951   0.26560   0.27879
 Alpha virt. eigenvalues --    0.29343   0.29538   0.30838   0.31540   0.31790

 Mulliken charges:
               1
     1  C   -0.174326
     2  C   -0.219985
     3  C   -0.170854
     4  C    0.158705
     5  C   -0.171211
     6  C   -0.223134
     7  H    0.232728
     8  H    0.223373
     9  H    0.275386
    10  H    0.275496
    11  H    0.227509
    12  N    0.487970
    13  O   -0.460577
    14  O   -0.460520
    15  C   -0.298195
    16  C   -0.308088
    17  C   -0.478912
    18  H    0.153513
    19  H    0.152545
    20  H    0.150565
    21  H    0.145646
    22  H    0.160648
    23  H    0.160184
    24  H    0.157764
    25  C   -0.298784
    26  C   -0.300447
    27  C   -0.476230
    28  H    0.150286
    29  H    0.148054
    30  H    0.153424
    31  H    0.153318
    32  H    0.155760
    33  H    0.155823
    34  H    0.162566
 Sum of Mulliken charges =  -0.00000

 Dipole moment (field-independent basis, Debye):
    X=             -4.7568    Y=              2.3232    Z=             -1.2216  Tot=              5.4329
 Quadrupole moment (field-independent basis, Debye-Ang):
   XX=           -125.3401   YY=            -93.2026   ZZ=            -94.2566
   XY=             10.7477   XZ=             -5.6986   YZ=             -2.5782

 Normal termination of Gaussian 16 at Thu May  6 01:29:11 2021.
