 Gaussian 16, Revision A.03,
 Gaussian 16:  EM64L-G16RevA.03 25-Dec-2016

 -------------
 #p 6-31g* mp2
 -------------

 ------------------------------------------------------
 Input file generated by CHIRIPA (05-May-2021 14:57:26)
 ------------------------------------------------------
 Symbolic Z-matrix:
 Charge =  0 Multiplicity = 1

                         Standard orientation:
 ---------------------------------------------------------------------
 Center     Atomic      Atomic             Coordinates (Angstroms)
 Number     Number       Type             X           Y           Z
 ---------------------------------------------------------------------
      1          6           0        3.665253    2.284814    0.126548
      2          6           0        2.648552    1.952306    1.027814
      3          6           0        2.141557    0.650371    1.077484
      4          6           0        2.676815   -0.298346    0.207584
      5          6           0        3.690038    0.002040   -0.701501
      6          6           0        4.181840    1.310337   -0.733716
      7          1           0        4.053198    3.298659    0.094743
      8          1           0        2.245461    2.707046    1.697090
      9          1           0        1.354690    0.365690    1.765391
     10          1           0        4.071813   -0.771936   -1.356197
     11          1           0        4.971447    1.565709   -1.434681
     12          7           0        2.148124   -1.680014    0.250929
     13          8           0        2.636611   -2.497586   -0.525984
     14          8           0        1.255259   -1.919231    1.060993
     15          6           0       -2.252784   -2.400106   -0.210156
     16          6           0       -3.318672   -1.908789    0.550772
     17          6           0       -3.611057   -0.541714    0.563668
     18          6           0       -2.813367    0.309492   -0.199501
     19          6           0       -1.744603   -0.149545   -0.967823
     20          6           0       -1.470530   -1.520468   -0.965693
     21          1           0       -2.032764   -3.463576   -0.214338
     22          1           0       -3.927874   -2.589597    1.138495
     23          1           0       -4.430238   -0.134461    1.143761
     24          1           0       -1.155167    0.553678   -1.543549
     25          1           0       -0.642120   -1.899213   -1.557582
     26          7           0       -3.113209    1.758789   -0.193803
     27          8           0       -2.395375    2.487968   -0.874721
     28          8           0       -4.060382    2.138127    0.491475
 ---------------------------------------------------------------------

 SCF Done:  E(RHF) =  -868.339696562     A.U. after   16 cycles
 E2 =    -0.2600251065D+01 EUMP2 =    -0.87093994762764D+03

 The electronic state is 1-A.
 Alpha  occ. eigenvalues --  -20.61455 -20.61403 -20.60498 -20.60486 -15.86427
 Alpha  occ. eigenvalues --  -15.85538 -11.31521 -11.30616 -11.28068 -11.28014
 Alpha  occ. eigenvalues --  -11.27703 -11.27152 -11.27128 -11.27003 -11.26933
 Alpha  occ. eigenvalues --  -11.26698 -11.26075 -11.26001  -1.60509  -1.59580
 Alpha  occ. eigenvalues --   -1.40061  -1.39141  -1.19660  -1.18734  -1.09104
 Alpha  occ. eigenvalues --   -1.08150  -1.05005  -1.04107  -0.95987  -0.95047
 Alpha  occ. eigenvalues --   -0.86415  -0.85498  -0.82821  -0.81911  -0.77909
 Alpha  occ. eigenvalues --   -0.77023  -0.72668  -0.71851  -0.71756  -0.70906
 Alpha  occ. eigenvalues --   -0.70743  -0.69788  -0.65302  -0.64991  -0.64378
 Alpha  occ. eigenvalues --   -0.64084  -0.62351  -0.61473  -0.55502  -0.54522
 Alpha  occ. eigenvalues --   -0.53366  -0.53082  -0.52431  -0.52187  -0.49447
 Alpha  occ. eigenvalues --   -0.49415  -0.48534  -0.48489  -0.45525  -0.44612
 Alpha  occ. eigenvalues --   -0.37627  -0.36646  -0.36538  -0.35665
 Alpha virt. eigenvalues --    0.04569   0.05503   0.11034   0.12007   0.16158
 Alpha virt. eigenvalues --    0.17107   0.21273   0.22127   0.27208   0.27811
 Alpha virt. eigenvalues --    0.28174   0.29062   0.30860   0.31711   0.32317

 Mulliken charges:
               1
     1  C   -0.169220
     2  C   -0.216533
     3  C   -0.170888
     4  C    0.154240
     5  C   -0.172635
     6  C   -0.218511
     7  H    0.228763
     8  H    0.228695
     9  H    0.277226
    10  H    0.274359
    11  H    0.224626
    12  N    0.485139
    13  O   -0.464950
    14  O   -0.458302
    15  C   -0.161698
    16  C   -0.219378
    17  C   -0.172937
    18  C    0.156302
    19  C   -0.178041
    20  C   -0.210879
    21  H    0.231223
    22  H    0.221968
    23  H    0.272389
    24  H    0.270673
    25  H    0.228280
    26  N    0.487718
    27  O   -0.465161
    28  O   -0.462470
 Sum of Mulliken charges =  -0.00000

 Dipole moment (field-independent basis, Debye):
    X=              3.1301    Y=             -0.3516    Z=             -0.0697  Tot=              3.1505
 Quadrupole moment (field-independent basis, Debye-Ang):
   XX=            -97.0683   YY=           -110.9992   ZZ=           -101.1895
   XY=             28.3637   XZ=             -5.5515   YZ=              2.7677

 Normal termination of Gaussian 16 at Thu May  6 06:47:11 2021.
