 Gaussian 16, Revision A.03,
 Gaussian 16:  EM64L-G16RevA.03 25-Dec-2016

 -------------
 #p 6-31g* mp2
 -------------

 ------------------------------------------------------
 Input file generated by CHIRIPA (05-May-2021 14:55:20)
 ------------------------------------------------------
 Symbolic Z-matrix:
 Charge =  0 Multiplicity = 1

                         Standard orientation:
 ---------------------------------------------------------------------
 Center     Atomic      Atomic             Coordinates (Angstroms)
 Number     Number       Type             X           Y           Z
 ---------------------------------------------------------------------
      1          6           0        0.391938   -2.425325    0.301966
      2          6           0        1.570393   -2.418996    1.055442
      3          6           0        2.549754   -1.446277    0.833593
      4          6           0        2.316783   -0.490590   -0.154171
      5          6           0        1.153041   -0.470456   -0.921366
      6          6           0        0.187384   -1.452750   -0.682298
      7          1           0       -0.363531   -3.184676    0.480992
      8          1           0        1.731950   -3.173080    1.820492
      9          1           0        3.471235   -1.418048    1.402358
     10          1           0        1.020419    0.294227   -1.677071
     11          1           0       -0.726860   -1.455220   -1.268982
     12          7           0        3.346335    0.544252   -0.398147
     13          8           0        3.117086    1.375259   -1.274223
     14          8           0        4.363051    0.504759    0.291321
     15          6           0       -3.264893    0.337100    0.385248
     16          6           0       -3.883179   -0.479100   -0.750325
     17          6           0       -4.914780   -1.493413   -0.255589
     18          1           0       -2.793508   -0.346176    1.104883
     19          1           0       -4.063879    0.860530    0.928421
     20          1           0       -3.083129   -0.999740   -1.292052
     21          1           0       -4.352981    0.206210   -1.467439
     22          1           0       -5.732833   -0.987207    0.267046
     23          1           0       -4.455766   -2.200010    0.443429
     24          1           0       -5.344078   -2.065900   -1.083733
     25          6           0       -2.231683    1.355431   -0.093510
     26          6           0       -1.613397    2.171630    1.042063
     27          6           0       -0.581796    3.185943    0.547328
     28          1           0       -1.432697    0.832000   -0.636682
     29          1           0       -2.703068    2.038707   -0.813145
     30          1           0       -1.143595    1.486320    1.759178
     31          1           0       -2.413447    2.692270    1.583792
     32          1           0       -1.040810    3.892541   -0.151690
     33          1           0        0.236257    2.679738    0.024693
     34          1           0       -0.152497    3.758429    1.375472
 ---------------------------------------------------------------------

 SCF Done:  E(RHF) =  -669.534161203     A.U. after   15 cycles
 E2 =    -0.2095197633D+01 EUMP2 =    -0.67162935883677D+03

 The electronic state is 1-A.
 Alpha  occ. eigenvalues --  -20.60880 -20.60875 -15.85918 -11.31299 -11.27853
 Alpha  occ. eigenvalues --  -11.27845 -11.27590 -11.26874 -11.26846 -11.22478
 Alpha  occ. eigenvalues --  -11.21981 -11.21850 -11.21776 -11.21717 -11.20959
 Alpha  occ. eigenvalues --   -1.59942  -1.39496  -1.19473  -1.08973  -1.08838
 Alpha  occ. eigenvalues --   -1.04883  -1.03972  -0.96392  -0.95693  -0.87410
 Alpha  occ. eigenvalues --   -0.86273  -0.82542  -0.80080  -0.78767  -0.77552
 Alpha  occ. eigenvalues --   -0.72136  -0.71260  -0.70571  -0.65791  -0.65122
 Alpha  occ. eigenvalues --   -0.64776  -0.62188  -0.61383  -0.59805  -0.57998
 Alpha  occ. eigenvalues --   -0.55697  -0.55366  -0.53214  -0.53111  -0.52940
 Alpha  occ. eigenvalues --   -0.52790  -0.50364  -0.48901  -0.48889  -0.48364
 Alpha  occ. eigenvalues --   -0.47140  -0.46252  -0.46163  -0.44873  -0.44218
 Alpha  occ. eigenvalues --   -0.37441  -0.36376
 Alpha virt. eigenvalues --    0.04917   0.11018   0.16298   0.19520   0.23186
 Alpha virt. eigenvalues --    0.23447   0.24988   0.26394   0.27058   0.28107
 Alpha virt. eigenvalues --    0.29447   0.30411   0.31270   0.31611   0.31951

 Mulliken charges:
               1
     1  C   -0.174850
     2  C   -0.218324
     3  C   -0.171395
     4  C    0.158174
     5  C   -0.172063
     6  C   -0.220775
     7  H    0.226274
     8  H    0.223981
     9  H    0.275978
    10  H    0.277128
    11  H    0.232829
    12  N    0.488398
    13  O   -0.460308
    14  O   -0.459294
    15  C   -0.299493
    16  C   -0.302571
    17  C   -0.475089
    18  H    0.147934
    19  H    0.153417
    20  H    0.140719
    21  H    0.156962
    22  H    0.159565
    23  H    0.151548
    24  H    0.161588
    25  C   -0.300303
    26  C   -0.300098
    27  C   -0.479452
    28  H    0.145019
    29  H    0.150813
    30  H    0.152516
    31  H    0.152008
    32  H    0.155319
    33  H    0.160753
    34  H    0.163092
 Sum of Mulliken charges =  -0.00000

 Dipole moment (field-independent basis, Debye):
    X=             -3.5953    Y=             -3.5835    Z=              0.9208  Tot=              5.1590
 Quadrupole moment (field-independent basis, Debye-Ang):
   XX=           -110.0082   YY=            -90.8794   ZZ=            -92.9243
   XY=             -9.2177   XZ=              5.0985   YZ=             -1.4777

 Normal termination of Gaussian 16 at Thu May  6 10:51:55 2021.
