 Gaussian 16, Revision A.03,
 Gaussian 16:  EM64L-G16RevA.03 25-Dec-2016

 -------------
 #p 6-31g* mp2
 -------------

 ------------------------------------------------------
 Input file generated by CHIRIPA (05-May-2021 14:51:10)
 ------------------------------------------------------
 Symbolic Z-matrix:
 Charge =  0 Multiplicity = 1

                         Standard orientation:
 ---------------------------------------------------------------------
 Center     Atomic      Atomic             Coordinates (Angstroms)
 Number     Number       Type             X           Y           Z
 ---------------------------------------------------------------------
      1          6           0       -2.778735   -0.651848    0.998938
      2          6           0       -1.595145    0.177526    1.498175
      3          6           0       -0.911504   -0.442127    2.717379
      4          1           0       -3.508427   -0.764511    1.812450
      5          1           0       -2.429530   -1.663507    0.749948
      6          1           0       -1.946218    1.187734    1.744840
      7          1           0       -0.868276    0.288390    0.683322
      8          1           0       -0.534051   -1.442157    2.480590
      9          1           0       -1.618119   -0.537703    3.548139
     10          1           0       -0.068256    0.167003    3.057605
     11          6           0       -3.472493   -0.045272   -0.219460
     12          6           0       -4.656083   -0.874646   -0.718698
     13          6           0       -5.339724   -0.254993   -1.937902
     14          1           0       -3.821698    0.966388    0.029529
     15          1           0       -2.742801    0.067392   -1.032973
     16          1           0       -5.382953   -0.985510    0.096156
     17          1           0       -4.305010   -1.884854   -0.965362
     18          1           0       -4.633110   -0.159416   -2.768662
     19          1           0       -5.717177    0.745038   -1.701113
     20          1           0       -6.182972   -0.864123   -2.278127
     21          6           0        2.465006    0.701318   -0.540038
     22          6           0        2.418289    2.142973   -0.032657
     23          6           0        1.090382    2.835403   -0.340869
     24          1           0        2.289683    0.695152   -1.624551
     25          1           0        1.640540    0.133592   -0.086895
     26          1           0        3.243429    2.707459   -0.485554
     27          1           0        2.593934    2.145723    1.050743
     28          1           0        0.258207    2.297260    0.124413
     29          1           0        0.911391    2.862188   -1.420613
     30          1           0        1.078700    3.864837    0.030597
     31          6           0        3.786223   -0.004199   -0.239439
     32          6           0        3.832938   -1.445853   -0.746821
     33          6           0        5.160846   -2.138284   -0.438608
     34          1           0        4.610688    0.563527   -0.692582
     35          1           0        3.961545    0.001967    0.845074
     36          1           0        3.657294   -1.448605   -1.830222
     37          1           0        3.007799   -2.010341   -0.293924
     38          1           0        5.339837   -2.165070    0.641136
     39          1           0        5.993022   -1.600141   -0.903890
     40          1           0        5.172529   -3.167719   -0.810074
 ---------------------------------------------------------------------

 SCF Done:  E(RHF) =  -470.732986561     A.U. after   11 cycles
 E2 =    -0.1583443914D+01 EUMP2 =    -0.47231643047547D+03

 The electronic state is 1-A.
 Alpha  occ. eigenvalues --  -11.21656 -11.21611 -11.21610 -11.21575 -11.21433
 Alpha  occ. eigenvalues --  -11.21407 -11.21368 -11.21348 -11.21156 -11.21076
 Alpha  occ. eigenvalues --  -11.21072 -11.20962  -1.08475  -1.08418  -1.03590
 Alpha  occ. eigenvalues --   -1.03498  -0.96019  -0.95958  -0.87041  -0.86970
 Alpha  occ. eigenvalues --   -0.79716  -0.79520  -0.78343  -0.78181  -0.65192
 Alpha  occ. eigenvalues --   -0.64977  -0.61080  -0.60830  -0.59421  -0.59291
 Alpha  occ. eigenvalues --   -0.57655  -0.57547  -0.55304  -0.55249  -0.52718
 Alpha  occ. eigenvalues --   -0.52649  -0.52463  -0.52369  -0.49982  -0.49906
 Alpha  occ. eigenvalues --   -0.48149  -0.47770  -0.46842  -0.46515  -0.45997
 Alpha  occ. eigenvalues --   -0.45760  -0.45753  -0.45312  -0.43817  -0.43770
 Alpha virt. eigenvalues --    0.20645   0.23187   0.23641   0.24896   0.25986
 Alpha virt. eigenvalues --    0.26590   0.26928   0.27628   0.28363   0.29071
 Alpha virt. eigenvalues --    0.30611   0.30895   0.31536   0.31870   0.32199

 Mulliken charges:
               1
     1  C   -0.297181
     2  C   -0.309806
     3  C   -0.475787
     4  H    0.149773
     5  H    0.149465
     6  H    0.152760
     7  H    0.160137
     8  H    0.154930
     9  H    0.155929
    10  H    0.160153
    11  C   -0.298736
    12  C   -0.299670
    13  C   -0.475734
    14  H    0.149753
    15  H    0.150213
    16  H    0.151927
    17  H    0.151942
    18  H    0.155330
    19  H    0.155280
    20  H    0.160252
    21  C   -0.303520
    22  C   -0.298939
    23  C   -0.483532
    24  H    0.149344
    25  H    0.153768
    26  H    0.151804
    27  H    0.151395
    28  H    0.164306
    29  H    0.154305
    30  H    0.159734
    31  C   -0.297953
    32  C   -0.299627
    33  C   -0.475717
    34  H    0.149684
    35  H    0.149829
    36  H    0.151804
    37  H    0.151637
    38  H    0.155323
    39  H    0.155234
    40  H    0.160191
 Sum of Mulliken charges =  -0.00000

 Dipole moment (field-independent basis, Debye):
    X=             -0.0343    Y=             -0.0135    Z=              0.0110  Tot=              0.0384
 Quadrupole moment (field-independent basis, Debye-Ang):
   XX=            -85.4148   YY=            -85.0062   ZZ=            -84.3864
   XY=              0.4988   XZ=             -1.3916   YZ=              0.4349

 Normal termination of Gaussian 16 at Wed May  5 23:03:05 2021.
