 Gaussian 16, Revision A.03,
 Gaussian 16:  EM64L-G16RevA.03 25-Dec-2016

 -------------
 #p 6-31g* mp2
 -------------

 ------------------------------------------------------
 Input file generated by CHIRIPA (05-May-2021 14:51:12)
 ------------------------------------------------------
 Symbolic Z-matrix:
 Charge =  0 Multiplicity = 1

                         Standard orientation:
 ---------------------------------------------------------------------
 Center     Atomic      Atomic             Coordinates (Angstroms)
 Number     Number       Type             X           Y           Z
 ---------------------------------------------------------------------
      1          6           0       -3.472628   -0.684640   -0.378339
      2          6           0       -4.544260    0.383829   -0.597344
      3          6           0       -5.424385    0.097611   -1.814411
      4          1           0       -2.845506   -0.755632   -1.277573
      5          1           0       -3.958978   -1.662639   -0.258436
      6          1           0       -4.056108    1.359729   -0.715418
      7          1           0       -5.168785    0.452420    0.302590
      8          1           0       -5.937668   -0.862783   -1.701340
      9          1           0       -4.818669    0.049681   -2.725131
     10          1           0       -6.183533    0.873840   -1.952333
     11          6           0       -2.584767   -0.412478    0.834657
     12          6           0       -1.513135   -1.480947    1.053662
     13          6           0       -0.633010   -1.194728    2.270730
     14          1           0       -2.098417    0.565521    0.714754
     15          1           0       -3.211889   -0.341485    1.733892
     16          1           0       -0.888610   -1.549538    0.153729
     17          1           0       -2.001287   -2.456847    1.171736
     18          1           0       -1.238726   -1.146799    3.181450
     19          1           0       -0.119727   -0.234334    2.157658
     20          1           0        0.126138   -1.970958    2.408652
     21          6           0        3.683345    0.179398   -0.091818
     22          6           0        4.091934   -0.767572   -1.220661
     23          6           0        5.403599   -1.498805   -0.933208
     24          1           0        4.485216    0.912360    0.071627
     25          1           0        3.588208   -0.393084    0.841247
     26          1           0        4.184926   -0.193714   -2.151604
     27          1           0        3.288915   -1.498247   -1.381565
     28          1           0        5.319643   -2.095630   -0.019232
     29          1           0        6.220744   -0.783685   -0.793646
     30          1           0        5.676837   -2.170414   -1.753050
     31          6           0        2.374050    0.917720   -0.364501
     32          6           0        1.965460    1.864690    0.764343
     33          6           0        0.653796    2.595922    0.476889
     34          1           0        2.469187    1.490201   -1.297566
     35          1           0        1.572179    0.184758   -0.527945
     36          1           0        2.768480    2.595364    0.925247
     37          1           0        1.872469    1.290833    1.695285
     38          1           0       -0.163350    1.880803    0.337328
     39          1           0        0.737752    3.192747   -0.437087
     40          1           0        0.380557    3.267532    1.296733
 ---------------------------------------------------------------------

 SCF Done:  E(RHF) =  -470.732912761     A.U. after   11 cycles
 E2 =    -0.1584149366D+01 EUMP2 =    -0.47231706212721D+03

 The electronic state is 1-A.
 Alpha  occ. eigenvalues --  -11.21661 -11.21638 -11.21614 -11.21601 -11.21432
 Alpha  occ. eigenvalues --  -11.21423 -11.21368 -11.21363 -11.21123 -11.21107
 Alpha  occ. eigenvalues --  -11.21078 -11.21068  -1.08487  -1.08433  -1.03605
 Alpha  occ. eigenvalues --   -1.03519  -0.96016  -0.96006  -0.87058  -0.86998
 Alpha  occ. eigenvalues --   -0.79631  -0.79618  -0.78280  -0.78264  -0.65335
 Alpha  occ. eigenvalues --   -0.64904  -0.61258  -0.60666  -0.59384  -0.59367
 Alpha  occ. eigenvalues --   -0.57656  -0.57586  -0.55333  -0.55280  -0.52707
 Alpha  occ. eigenvalues --   -0.52700  -0.52482  -0.52400  -0.50130  -0.49811
 Alpha  occ. eigenvalues --   -0.48063  -0.47845  -0.46694  -0.46619  -0.45934
 Alpha  occ. eigenvalues --   -0.45775  -0.45689  -0.45547  -0.43814  -0.43809
 Alpha virt. eigenvalues --    0.19282   0.23033   0.23793   0.24850   0.25733
 Alpha virt. eigenvalues --    0.26199   0.26426   0.28295   0.28745   0.29043
 Alpha virt. eigenvalues --    0.30653   0.31340   0.31563   0.31700   0.31837

 Mulliken charges:
               1
     1  C   -0.297848
     2  C   -0.299837
     3  C   -0.475742
     4  H    0.149578
     5  H    0.149595
     6  H    0.152402
     7  H    0.151983
     8  H    0.155112
     9  H    0.155267
    10  H    0.160343
    11  C   -0.306345
    12  C   -0.300616
    13  C   -0.482472
    14  H    0.156512
    15  H    0.150216
    16  H    0.152002
    17  H    0.152510
    18  H    0.155684
    19  H    0.162151
    20  H    0.159765
    21  C   -0.298394
    22  C   -0.299704
    23  C   -0.475726
    24  H    0.149715
    25  H    0.150253
    26  H    0.151844
    27  H    0.151867
    28  H    0.155303
    29  H    0.155209
    30  H    0.160281
    31  C   -0.300335
    32  C   -0.302599
    33  C   -0.484034
    34  H    0.149598
    35  H    0.151138
    36  H    0.152810
    37  H    0.154485
    38  H    0.161468
    39  H    0.155690
    40  H    0.160870
 Sum of Mulliken charges =  -0.00000

 Dipole moment (field-independent basis, Debye):
    X=             -0.0003    Y=              0.0132    Z=              0.0082  Tot=              0.0155
 Quadrupole moment (field-independent basis, Debye-Ang):
   XX=            -85.4032   YY=            -84.3103   ZZ=            -84.9437
   XY=              1.2489   XZ=             -1.2899   YZ=             -0.6701

 Normal termination of Gaussian 16 at Thu May  6 03:52:57 2021.
