 Gaussian 16, Revision A.03,
 Gaussian 16:  EM64L-G16RevA.03 25-Dec-2016

 -------------
 #p 6-31g* mp2
 -------------

 ------------------------------------------------------
 Input file generated by CHIRIPA (05-May-2021 14:51:13)
 ------------------------------------------------------
 Symbolic Z-matrix:
 Charge =  0 Multiplicity = 1

                         Standard orientation:
 ---------------------------------------------------------------------
 Center     Atomic      Atomic             Coordinates (Angstroms)
 Number     Number       Type             X           Y           Z
 ---------------------------------------------------------------------
      1          6           0       -2.366999   -1.515365   -0.130543
      2          6           0       -0.842578   -1.398162   -0.150202
      3          6           0       -0.150100   -2.736339   -0.410107
      4          1           0       -2.662835   -2.238952    0.641369
      5          1           0       -2.708655   -1.925639   -1.090929
      6          1           0       -0.504006   -0.986935    0.809422
      7          1           0       -0.550346   -0.674627   -0.922027
      8          1           0       -0.459388   -3.148984   -1.375854
      9          1           0       -0.412785   -3.463067    0.365433
     10          1           0        0.939096   -2.629494   -0.419986
     11          6           0       -3.073532   -0.185852    0.128176
     12          6           0       -4.597954   -0.303056    0.147834
     13          6           0       -5.290432    1.035121    0.407740
     14          1           0       -2.731876    0.224422    1.088562
     15          1           0       -2.777696    0.537735   -0.643736
     16          1           0       -4.890185   -1.026591    0.919659
     17          1           0       -4.936525   -0.714282   -0.811790
     18          1           0       -5.027746    1.761850   -0.367801
     19          1           0       -4.981143    1.447767    1.373486
     20          1           0       -6.379627    0.928276    0.417618
     21          6           0        3.247123    0.520309    0.444755
     22          6           0        4.131491   -0.477131   -0.304239
     23          6           0        5.180580   -1.129623    0.596573
     24          1           0        3.880834    1.297092    0.894157
     25          1           0        2.747764    0.004399    1.276544
     26          1           0        4.627962    0.040189   -1.135209
     27          1           0        3.495584   -1.251524   -0.752071
     28          1           0        4.700081   -1.670513    1.418254
     29          1           0        5.838894   -0.371461    1.032939
     30          1           0        5.801709   -1.838980    0.040813
     31          6           0        2.193408    1.180908   -0.442387
     32          6           0        1.309041    2.178349    0.306606
     33          6           0        0.259952    2.830840   -0.594206
     34          1           0        2.692767    1.696818   -1.274177
     35          1           0        1.559696    0.404125   -0.891790
     36          1           0        1.944948    2.952742    0.754438
     37          1           0        0.812569    1.661028    1.137576
     38          1           0       -0.398363    2.072678   -1.030571
     39          1           0        0.740449    3.371731   -1.415886
     40          1           0       -0.361178    3.540197   -0.038445
 ---------------------------------------------------------------------

 SCF Done:  E(RHF) =  -470.732803387     A.U. after   11 cycles
 E2 =    -0.1584745008D+01 EUMP2 =    -0.47231754839491D+03

 The electronic state is 1-A.
 Alpha  occ. eigenvalues --  -11.21702 -11.21635 -11.21596 -11.21533 -11.21466
 Alpha  occ. eigenvalues --  -11.21403 -11.21349 -11.21255 -11.21182 -11.21085
 Alpha  occ. eigenvalues --  -11.21061 -11.21013  -1.08517  -1.08365  -1.03608
 Alpha  occ. eigenvalues --   -1.03483  -0.96052  -0.95929  -0.87067  -0.86949
 Alpha  occ. eigenvalues --   -0.79692  -0.79547  -0.78373  -0.78145  -0.65176
 Alpha  occ. eigenvalues --   -0.65000  -0.61028  -0.60873  -0.59406  -0.59301
 Alpha  occ. eigenvalues --   -0.57690  -0.57532  -0.55350  -0.55192  -0.52749
 Alpha  occ. eigenvalues --   -0.52631  -0.52472  -0.52363  -0.50005  -0.49878
 Alpha  occ. eigenvalues --   -0.48092  -0.47791  -0.46914  -0.46547  -0.46059
 Alpha  occ. eigenvalues --   -0.45852  -0.45627  -0.45198  -0.43844  -0.43737
 Alpha virt. eigenvalues --    0.19648   0.21909   0.23581   0.24314   0.24854
 Alpha virt. eigenvalues --    0.26135   0.26395   0.27999   0.28923   0.29318
 Alpha virt. eigenvalues --    0.30267   0.31144   0.31742   0.31944   0.32458

 Mulliken charges:
               1
     1  C   -0.297838
     2  C   -0.305616
     3  C   -0.479490
     4  H    0.149865
     5  H    0.149705
     6  H    0.153320
     7  H    0.156002
     8  H    0.155857
     9  H    0.156012
    10  H    0.162431
    11  C   -0.300708
    12  C   -0.299694
    13  C   -0.475759
    14  H    0.149705
    15  H    0.152122
    16  H    0.152043
    17  H    0.152001
    18  H    0.155592
    19  H    0.155257
    20  H    0.160316
    21  C   -0.298128
    22  C   -0.302249
    23  C   -0.475596
    24  H    0.149535
    25  H    0.149349
    26  H    0.152138
    27  H    0.153274
    28  H    0.155136
    29  H    0.155258
    30  H    0.160223
    31  C   -0.304712
    32  C   -0.299664
    33  C   -0.479495
    34  H    0.148729
    35  H    0.157767
    36  H    0.151551
    37  H    0.152688
    38  H    0.158320
    39  H    0.154534
    40  H    0.160222
 Sum of Mulliken charges =  -0.00000

 Dipole moment (field-independent basis, Debye):
    X=             -0.0457    Y=             -0.0251    Z=             -0.0037  Tot=              0.0523
 Quadrupole moment (field-independent basis, Debye-Ang):
   XX=            -85.4512   YY=            -85.3443   ZZ=            -84.0093
   XY=              1.4947   XZ=             -0.4217   YZ=             -0.2053

 Normal termination of Gaussian 16 at Thu May  6 03:58:58 2021.
