 Gaussian 16, Revision A.03,
 Gaussian 16:  EM64L-G16RevA.03 25-Dec-2016

 -------------
 #p 6-31g* mp2
 -------------

 ------------------------------------------------------
 Input file generated by CHIRIPA (05-May-2021 14:57:23)
 ------------------------------------------------------
 Symbolic Z-matrix:
 Charge =  0 Multiplicity = 1

                         Standard orientation:
 ---------------------------------------------------------------------
 Center     Atomic      Atomic             Coordinates (Angstroms)
 Number     Number       Type             X           Y           Z
 ---------------------------------------------------------------------
      1          6           0       -3.405454    1.932794    1.212667
      2          6           0       -4.133466    1.546940    0.082342
      3          6           0       -3.868496    0.329195   -0.551248
      4          6           0       -2.864045   -0.481849   -0.025343
      5          6           0       -2.121396   -0.125277    1.099210
      6          6           0       -2.403508    1.096927    1.716605
      7          1           0       -3.617947    2.880499    1.698565
      8          1           0       -4.912162    2.194074   -0.311226
      9          1           0       -4.416823    0.005894   -1.427737
     10          1           0       -1.351183   -0.791570    1.468324
     11          1           0       -1.836523    1.394009    2.594281
     12          7           0       -2.574460   -1.773381   -0.687524
     13          8           0       -1.684446   -2.470016   -0.204603
     14          8           0       -3.242979   -2.064595   -1.676924
     15          6           0        1.763999    2.322117   -0.996591
     16          6           0        3.149982    2.181046   -1.121783
     17          6           0        3.796524    1.047685   -0.619765
     18          6           0        3.022735    0.070499    0.004454
     19          6           0        1.640276    0.182098    0.144611
     20          6           0        1.014891    1.323953   -0.364908
     21          1           0        1.269968    3.205839   -1.389484
     22          1           0        3.734287    2.954634   -1.611881
     23          1           0        4.868120    0.912925   -0.703073
     24          1           0        1.084548   -0.605923    0.638177
     25          1           0       -0.061626    1.430832   -0.266256
     26          7           0        3.696001   -1.133836    0.539887
     27          8           0        2.991720   -1.980494    1.085593
     28          8           0        4.915241   -1.208330    0.403717
 ---------------------------------------------------------------------

 SCF Done:  E(RHF) =  -868.336555248     A.U. after   16 cycles
 E2 =    -0.2602480074D+01 EUMP2 =    -0.87093903532130D+03

 The electronic state is 1-A.
 Alpha  occ. eigenvalues --  -20.61392 -20.61381 -20.60562 -20.60539 -15.86442
 Alpha  occ. eigenvalues --  -15.85607 -11.32083 -11.31066 -11.28669 -11.28601
 Alpha  occ. eigenvalues --  -11.28377 -11.27706 -11.27662 -11.27643 -11.27630
 Alpha  occ. eigenvalues --  -11.27408 -11.26689 -11.26581  -1.60457  -1.59627
 Alpha  occ. eigenvalues --   -1.40003  -1.39177  -1.20276  -1.19240  -1.09590
 Alpha  occ. eigenvalues --   -1.08622  -1.05705  -1.04654  -0.96384  -0.95446
 Alpha  occ. eigenvalues --   -0.87057  -0.86052  -0.83197  -0.82278  -0.78230
 Alpha  occ. eigenvalues --   -0.77304  -0.72639  -0.71831  -0.71791  -0.71326
 Alpha  occ. eigenvalues --   -0.70951  -0.70364  -0.65883  -0.65650  -0.64893
 Alpha  occ. eigenvalues --   -0.64680  -0.63044  -0.61988  -0.56125  -0.55204
 Alpha  occ. eigenvalues --   -0.54088  -0.53732  -0.52985  -0.52620  -0.49424
 Alpha  occ. eigenvalues --   -0.49396  -0.48592  -0.48574  -0.45342  -0.44562
 Alpha  occ. eigenvalues --   -0.38256  -0.37325  -0.37216  -0.36250
 Alpha virt. eigenvalues --    0.04260   0.05224   0.10224   0.11402   0.15724
 Alpha virt. eigenvalues --    0.16725   0.19999   0.21801   0.25102   0.27048
 Alpha virt. eigenvalues --    0.27795   0.28913   0.30128   0.30824   0.31626

 Mulliken charges:
               1
     1  C   -0.172978
     2  C   -0.218517
     3  C   -0.171090
     4  C    0.161239
     5  C   -0.188344
     6  C   -0.222245
     7  H    0.228795
     8  H    0.226739
     9  H    0.278925
    10  H    0.281249
    11  H    0.229206
    12  N    0.488098
    13  O   -0.456686
    14  O   -0.456922
    15  C   -0.172145
    16  C   -0.218365
    17  C   -0.170879
    18  C    0.159482
    19  C   -0.177443
    20  C   -0.226646
    21  H    0.223353
    22  H    0.222520
    23  H    0.275569
    24  H    0.278570
    25  H    0.229449
    26  N    0.487675
    27  O   -0.457221
    28  O   -0.461388
 Sum of Mulliken charges =  -0.00000

 Dipole moment (field-independent basis, Debye):
    X=             -3.6594    Y=              8.6576    Z=              0.4392  Tot=              9.4094
 Quadrupole moment (field-independent basis, Debye-Ang):
   XX=           -106.5415   YY=           -108.8520   ZZ=           -103.1533
   XY=              0.8641   XZ=            -11.2927   YZ=             -2.6057

 Normal termination of Gaussian 16 at Wed May  5 21:01:18 2021.
