 Gaussian 16, Revision A.03,
 Gaussian 16:  EM64L-G16RevA.03 25-Dec-2016

 -------------
 #p 6-31g* mp2
 -------------

 ------------------------------------------------------
 Input file generated by CHIRIPA (05-May-2021 14:51:09)
 ------------------------------------------------------
 Symbolic Z-matrix:
 Charge =  0 Multiplicity = 1

                         Standard orientation:
 ---------------------------------------------------------------------
 Center     Atomic      Atomic             Coordinates (Angstroms)
 Number     Number       Type             X           Y           Z
 ---------------------------------------------------------------------
      1          6           0        1.992400    1.857230    0.042706
      2          6           0        0.504874    2.157628    0.229821
      3          6           0        0.217826    3.651942    0.379556
      4          1           0        2.551100    2.255193    0.900858
      5          1           0        2.358712    2.392586   -0.844202
      6          1           0        0.141155    1.620762    1.115315
      7          1           0       -0.050372    1.758735   -0.628783
      8          1           0        0.553574    4.199454   -0.507069
      9          1           0        0.746189    4.060697    1.246939
     10          1           0       -0.851461    3.844030    0.512175
     11          6           0        2.295281    0.367546   -0.108402
     12          6           0        3.782808    0.067148   -0.295517
     13          6           0        4.069856   -1.427166   -0.445252
     14          1           0        1.928970   -0.167810    0.778506
     15          1           0        1.736581   -0.030417   -0.966554
     16          1           0        4.338054    0.466041    0.563088
     17          1           0        4.146527    0.604014   -1.181011
     18          1           0        3.541493   -1.835921   -1.312635
     19          1           0        3.734108   -1.974678    0.441374
     20          1           0        5.139143   -1.619254   -0.577871
     21          6           0       -2.645714   -0.774391   -0.433321
     22          6           0       -3.645595    0.121171    0.298929
     23          6           0       -4.643082    0.790339   -0.647129
     24          1           0       -2.102660   -0.175232   -1.176992
     25          1           0       -3.194924   -1.544240   -0.992870
     26          1           0       -3.094604    0.888256    0.858043
     27          1           0       -4.186197   -0.480146    1.041077
     28          1           0       -5.218251    0.037509   -1.195790
     29          1           0       -4.120456    1.413686   -1.379863
     30          1           0       -5.348474    1.425860   -0.102706
     31          6           0       -1.641968   -1.450385    0.499017
     32          6           0       -0.642087   -2.345947   -0.233234
     33          6           0        0.355401   -3.015115    0.712825
     34          1           0       -1.092757   -0.680536    1.058566
     35          1           0       -2.185023   -2.049543    1.242688
     36          1           0       -0.101485   -1.744630   -0.975380
     37          1           0       -1.193078   -3.113032   -0.792347
     38          1           0       -0.167225   -3.638462    1.445560
     39          1           0        0.930569   -2.262286    1.261486
     40          1           0        1.060793   -3.650637    0.168401
 ---------------------------------------------------------------------

 SCF Done:  E(RHF) =  -470.732134716     A.U. after   11 cycles
 E2 =    -0.1586015392D+01 EUMP2 =    -0.47231815010753D+03

 The electronic state is 1-A.
 Alpha  occ. eigenvalues --  -11.21716 -11.21643 -11.21557 -11.21486 -11.21478
 Alpha  occ. eigenvalues --  -11.21413 -11.21331 -11.21252 -11.21157 -11.21067
 Alpha  occ. eigenvalues --  -11.21046 -11.20959  -1.08544  -1.08327  -1.03611
 Alpha  occ. eigenvalues --   -1.03449  -0.96043  -0.95913  -0.87059  -0.86932
 Alpha  occ. eigenvalues --   -0.79670  -0.79531  -0.78371  -0.78171  -0.65159
 Alpha  occ. eigenvalues --   -0.64985  -0.61008  -0.60904  -0.59413  -0.59278
 Alpha  occ. eigenvalues --   -0.57669  -0.57507  -0.55335  -0.55215  -0.52732
 Alpha  occ. eigenvalues --   -0.52665  -0.52482  -0.52261  -0.50077  -0.49813
 Alpha  occ. eigenvalues --   -0.47985  -0.47840  -0.46856  -0.46610  -0.46150
 Alpha  occ. eigenvalues --   -0.46011  -0.45367  -0.45117  -0.43851  -0.43706
 Alpha virt. eigenvalues --    0.19842   0.21827   0.23526   0.23785   0.24960
 Alpha virt. eigenvalues --    0.25985   0.26756   0.27755   0.29076   0.29899
 Alpha virt. eigenvalues --    0.30255   0.31312   0.31508   0.32008   0.32530

 Mulliken charges:
               1
     1  C   -0.297658
     2  C   -0.305101
     3  C   -0.475817
     4  H    0.149868
     5  H    0.149766
     6  H    0.154334
     7  H    0.153921
     8  H    0.155568
     9  H    0.155603
    10  H    0.160589
    11  C   -0.305675
    12  C   -0.299478
    13  C   -0.477274
    14  H    0.153919
    15  H    0.152930
    16  H    0.151855
    17  H    0.151877
    18  H    0.155118
    19  H    0.157966
    20  H    0.160067
    21  C   -0.298899
    22  C   -0.300622
    23  C   -0.475661
    24  H    0.150194
    25  H    0.149204
    26  H    0.152842
    27  H    0.151762
    28  H    0.155123
    29  H    0.154858
    30  H    0.160034
    31  C   -0.302784
    32  C   -0.302117
    33  C   -0.478746
    34  H    0.154486
    35  H    0.148944
    36  H    0.154905
    37  H    0.151294
    38  H    0.154092
    39  H    0.157793
    40  H    0.160919
 Sum of Mulliken charges =  -0.00000

 Dipole moment (field-independent basis, Debye):
    X=              0.0560    Y=              0.0330    Z=              0.0046  Tot=              0.0652
 Quadrupole moment (field-independent basis, Debye-Ang):
   XX=            -85.1927   YY=            -85.6233   ZZ=            -84.0576
   XY=              1.2703   XZ=             -0.3325   YZ=              0.0387

 Normal termination of Gaussian 16 at Wed May  5 22:59:15 2021.
