 Gaussian 16, Revision A.03,
 Gaussian 16:  EM64L-G16RevA.03 25-Dec-2016

 -------------
 #p 6-31g* mp2
 -------------

 ------------------------------------------------------
 Input file generated by CHIRIPA (05-May-2021 14:55:25)
 ------------------------------------------------------
 Symbolic Z-matrix:
 Charge =  0 Multiplicity = 1

                         Standard orientation:
 ---------------------------------------------------------------------
 Center     Atomic      Atomic             Coordinates (Angstroms)
 Number     Number       Type             X           Y           Z
 ---------------------------------------------------------------------
      1          6           0        0.712189   -1.876719    1.586054
      2          6           0        1.157594   -0.611743    1.983510
      3          6           0        2.023049    0.124543    1.169004
      4          6           0        2.424908   -0.437088   -0.041934
      5          6           0        1.998571   -1.694861   -0.465648
      6          6           0        1.133357   -2.413295    0.364897
      7          1           0        0.039976   -2.441750    2.225012
      8          1           0        0.832152   -0.192531    2.931346
      9          1           0        2.383247    1.106098    1.452242
     10          1           0        2.340296   -2.086413   -1.416084
     11          1           0        0.789061   -3.395456    0.053664
     12          7           0        3.340999    0.332935   -0.912705
     13          8           0        3.680424   -0.184100   -1.974826
     14          8           0        3.702260    1.438933   -0.516605
     15          6           0       -3.349398    0.372783   -0.648688
     16          6           0       -4.351664   -0.605544   -0.035237
     17          6           0       -5.222236   -1.296133   -1.085468
     18          1           0       -3.893966    1.129051   -1.230453
     19          1           0       -2.708881   -0.167084   -1.359798
     20          1           0       -4.989196   -0.064272    0.675533
     21          1           0       -3.804660   -1.359459    0.545293
     22          1           0       -4.602041   -1.860770   -1.789133
     23          1           0       -5.793308   -0.558224   -1.658153
     24          1           0       -5.931457   -1.991058   -0.625093
     25          6           0       -2.471849    1.071050    0.388645
     26          6           0       -1.469584    2.049377   -0.224807
     27          6           0       -0.599012    2.739965    0.825424
     28          1           0       -3.112367    1.610917    1.099754
     29          1           0       -1.927282    0.314781    0.970409
     30          1           0       -2.016589    2.803292   -0.805336
     31          1           0       -0.832052    1.508104   -0.935577
     32          1           0       -0.027939    2.002056    1.398109
     33          1           0       -1.219207    3.304603    1.529090
     34          1           0        0.110209    3.434890    0.365050
 ---------------------------------------------------------------------

 SCF Done:  E(RHF) =  -669.534613687     A.U. after   15 cycles
 E2 =    -0.2093962564D+01 EUMP2 =    -0.67162857625046D+03

 The electronic state is 1-A.
 Alpha  occ. eigenvalues --  -20.60844 -20.60839 -15.85900 -11.31304 -11.27879
 Alpha  occ. eigenvalues --  -11.27870 -11.27641 -11.26898 -11.26887 -11.21969
 Alpha  occ. eigenvalues --  -11.21722 -11.21646 -11.21578 -11.21398 -11.21183
 Alpha  occ. eigenvalues --   -1.59919  -1.39471  -1.19495  -1.08877  -1.08671
 Alpha  occ. eigenvalues --   -1.04916  -1.03764  -0.96231  -0.95698  -0.87251
 Alpha  occ. eigenvalues --   -0.86287  -0.82539  -0.79846  -0.78496  -0.77569
 Alpha  occ. eigenvalues --   -0.72117  -0.71245  -0.70594  -0.65323  -0.65143
 Alpha  occ. eigenvalues --   -0.64893  -0.62284  -0.61170  -0.59581  -0.57829
 Alpha  occ. eigenvalues --   -0.55589  -0.55366  -0.53217  -0.53008  -0.52875
 Alpha  occ. eigenvalues --   -0.52636  -0.50180  -0.48879  -0.48868  -0.48154
 Alpha  occ. eigenvalues --   -0.46886  -0.46035  -0.45957  -0.44866  -0.44014
 Alpha  occ. eigenvalues --   -0.37454  -0.36397
 Alpha virt. eigenvalues --    0.04931   0.11075   0.16292   0.20867   0.22714
 Alpha virt. eigenvalues --    0.24121   0.26108   0.26554   0.27057   0.28234
 Alpha virt. eigenvalues --    0.28769   0.30490   0.31369   0.31651   0.32070

 Mulliken charges:
               1
     1  C   -0.171407
     2  C   -0.218041
     3  C   -0.168493
     4  C    0.157008
     5  C   -0.171416
     6  C   -0.218926
     7  H    0.226636
     8  H    0.225290
     9  H    0.278239
    10  H    0.276138
    11  H    0.224041
    12  N    0.488048
    13  O   -0.460223
    14  O   -0.459740
    15  C   -0.298331
    16  C   -0.298591
    17  C   -0.475680
    18  H    0.151398
    19  H    0.150222
    20  H    0.152322
    21  H    0.146359
    22  H    0.154741
    23  H    0.157128
    24  H    0.159766
    25  C   -0.300081
    26  C   -0.298260
    27  C   -0.480528
    28  H    0.148053
    29  H    0.146742
    30  H    0.153780
    31  H    0.154152
    32  H    0.149029
    33  H    0.153264
    34  H    0.167364
 Sum of Mulliken charges =  -0.00000

 Dipole moment (field-independent basis, Debye):
    X=             -3.1397    Y=             -2.7150    Z=              3.0056  Tot=              5.1247
 Quadrupole moment (field-independent basis, Debye-Ang):
   XX=           -111.2611   YY=            -89.6160   ZZ=            -93.5915
   XY=             -6.0991   XZ=              7.3633   YZ=              1.1154

 Normal termination of Gaussian 16 at Wed May  5 16:09:51 2021.
