 Gaussian 16, Revision A.03,
 Gaussian 16:  EM64L-G16RevA.03 25-Dec-2016

 -------------
 #p 6-31g* mp2
 -------------

 ------------------------------------------------------
 Input file generated by CHIRIPA (05-May-2021 14:57:23)
 ------------------------------------------------------
 Symbolic Z-matrix:
 Charge =  0 Multiplicity = 1

                         Standard orientation:
 ---------------------------------------------------------------------
 Center     Atomic      Atomic             Coordinates (Angstroms)
 Number     Number       Type             X           Y           Z
 ---------------------------------------------------------------------
      1          6           0       -0.788380    1.163174   -0.491733
      2          6           0       -1.955307    1.834472   -0.871422
      3          6           0       -3.209010    1.251099   -0.665382
      4          6           0       -3.259153   -0.010459   -0.074411
      5          6           0       -2.114538   -0.704500    0.314761
      6          6           0       -0.871574   -0.101939    0.099105
      7          1           0        0.181355    1.623805   -0.655525
      8          1           0       -1.893726    2.817076   -1.330487
      9          1           0       -4.128308    1.748550   -0.949724
     10          1           0       -2.207836   -1.682941    0.770135
     11          1           0        0.033010   -0.625609    0.394982
     12          7           0       -4.580708   -0.638207    0.148805
     13          8           0       -4.597941   -1.750542    0.671347
     14          8           0       -5.574285   -0.006014   -0.203008
     15          6           0        2.730820    2.295051    0.863996
     16          6           0        3.196898    2.022865   -0.426434
     17          6           0        3.372719    0.703549   -0.854265
     18          6           0        3.071364   -0.323869    0.038422
     19          6           0        2.605337   -0.084891    1.330319
     20          6           0        2.437045    1.242161    1.736715
     21          1           0        2.597163    3.322933    1.188018
     22          1           0        3.425848    2.838556   -1.106342
     23          1           0        3.732074    0.464411   -1.847791
     24          1           0        2.385548   -0.919066    1.985501
     25          1           0        2.074929    1.450566    2.739453
     26          7           0        3.253514   -1.724665   -0.403157
     27          8           0        2.980895   -2.612047    0.402368
     28          8           0        3.665452   -1.908704   -1.546430
 ---------------------------------------------------------------------

 SCF Done:  E(RHF) =  -868.336563490     A.U. after   16 cycles
 E2 =    -0.2603814480D+01 EUMP2 =    -0.87094037796998D+03

 The electronic state is 1-A.
 Alpha  occ. eigenvalues --  -20.61906 -20.61895 -20.60692 -20.60682 -15.86957
 Alpha  occ. eigenvalues --  -15.85743 -11.32570 -11.31100 -11.29123 -11.29101
 Alpha  occ. eigenvalues --  -11.28847 -11.28168 -11.28119 -11.27711 -11.27636
 Alpha  occ. eigenvalues --  -11.27326 -11.26723 -11.26564  -1.60974  -1.59766
 Alpha  occ. eigenvalues --   -1.40518  -1.39319  -1.20786  -1.19275  -1.10100
 Alpha  occ. eigenvalues --   -1.08666  -1.06175  -1.04680  -0.96884  -0.95502
 Alpha  occ. eigenvalues --   -0.87535  -0.86084  -0.83680  -0.82339  -0.78708
 Alpha  occ. eigenvalues --   -0.77399  -0.73151  -0.72331  -0.71959  -0.71787
 Alpha  occ. eigenvalues --   -0.71091  -0.70394  -0.66366  -0.66094  -0.64922
 Alpha  occ. eigenvalues --   -0.64746  -0.63459  -0.62064  -0.56593  -0.55456
 Alpha  occ. eigenvalues --   -0.54253  -0.54185  -0.53016  -0.52702  -0.49937
 Alpha  occ. eigenvalues --   -0.49905  -0.48725  -0.48716  -0.45857  -0.44727
 Alpha  occ. eigenvalues --   -0.38785  -0.37919  -0.37093  -0.36265
 Alpha virt. eigenvalues --    0.03758   0.05153   0.09689   0.11324   0.15238
 Alpha virt. eigenvalues --    0.16665   0.20197   0.21779   0.25980   0.26899
 Alpha virt. eigenvalues --    0.27631   0.28493   0.29853   0.30786   0.31747

 Mulliken charges:
               1
     1  C   -0.177515
     2  C   -0.221476
     3  C   -0.170969
     4  C    0.158067
     5  C   -0.172032
     6  C   -0.224543
     7  H    0.229755
     8  H    0.219886
     9  H    0.274608
    10  H    0.277690
    11  H    0.227619
    12  N    0.487953
    13  O   -0.459540
    14  O   -0.461464
    15  C   -0.177128
    16  C   -0.226256
    17  C   -0.171324
    18  C    0.160032
    19  C   -0.188116
    20  C   -0.211675
    21  H    0.231223
    22  H    0.228530
    23  H    0.280819
    24  H    0.279775
    25  H    0.231009
    26  N    0.488204
    27  O   -0.458521
    28  O   -0.454611
 Sum of Mulliken charges =  -0.00000

 Dipole moment (field-independent basis, Debye):
    X=              4.4257    Y=              7.1011    Z=              0.8381  Tot=              8.4092
 Quadrupole moment (field-independent basis, Debye-Ang):
   XX=           -138.1264   YY=           -104.8867   ZZ=           -100.2725
   XY=              7.0193   XZ=              6.3881   YZ=             -3.7432

 Normal termination of Gaussian 16 at Thu May  6 05:02:10 2021.
