 Gaussian 16, Revision A.03,
 Gaussian 16:  EM64L-G16RevA.03 25-Dec-2016

 -------------
 #p 6-31g* mp2
 -------------

 ------------------------------------------------------
 Input file generated by CHIRIPA (05-May-2021 14:53:18)
 ------------------------------------------------------
 Symbolic Z-matrix:
 Charge =  0 Multiplicity = 1

                         Standard orientation:
 ---------------------------------------------------------------------
 Center     Atomic      Atomic             Coordinates (Angstroms)
 Number     Number       Type             X           Y           Z
 ---------------------------------------------------------------------
      1          6           0        3.449597   -0.322307   -0.031431
      2          6           0        4.596935   -1.075895   -0.705007
      3          6           0        4.548013   -2.581885   -0.445398
      4          1           0        3.480929   -0.510529    1.050482
      5          1           0        2.493353   -0.726508   -0.391451
      6          1           0        5.550730   -0.669461   -0.344866
      7          1           0        4.562983   -0.885703   -1.785419
      8          1           0        3.611679   -3.007295   -0.820772
      9          1           0        4.605038   -2.789824    0.627966
     10          1           0        5.377249   -3.101000   -0.936057
     11          6           0        3.484834    1.184288   -0.281748
     12          6           0        2.337496    1.937877    0.391828
     13          6           0        2.386419    3.443866    0.132219
     14          1           0        4.441078    1.588489    0.078271
     15          1           0        3.453502    1.372511   -1.363661
     16          1           0        2.371449    1.747684    1.472240
     17          1           0        1.383701    1.531442    0.031687
     18          1           0        2.329393    3.651805   -0.941145
     19          1           0        3.322753    3.869276    0.507593
     20          1           0        1.557183    3.962981    0.622878
     21          6           0       -0.981993   -0.946872    1.857817
     22          6           0       -0.688160   -1.089305    0.497708
     23          6           0       -1.637279   -0.754312   -0.472603
     24          6           0       -2.875700   -0.277723   -0.045444
     25          6           0       -3.198408   -0.124706    1.302048
     26          6           0       -2.233972   -0.465876    2.254946
     27          1           0       -0.238745   -1.209502    2.604814
     28          1           0        0.283315   -1.462609    0.186379
     29          1           0       -1.436234   -0.854776   -1.532276
     30          1           0       -4.175551    0.249996    1.581707
     31          1           0       -2.464937   -0.354234    3.310519
     32          7           0       -3.888597    0.080188   -1.063452
     33          8           0       -4.972279    0.497891   -0.661215
     34          8           0       -3.579644   -0.063761   -2.244326
 ---------------------------------------------------------------------

 SCF Done:  E(RHF) =  -669.535587270     A.U. after   15 cycles
 E2 =    -0.2091948342D+01 EUMP2 =    -0.67162753561221D+03

 The electronic state is 1-A.
 Alpha  occ. eigenvalues --  -20.60762 -20.60757 -15.85816 -11.31181 -11.27757
 Alpha  occ. eigenvalues --  -11.27752 -11.27485 -11.26762 -11.26735 -11.22347
 Alpha  occ. eigenvalues --  -11.22288 -11.22106 -11.21994 -11.21810 -11.21430
 Alpha  occ. eigenvalues --   -1.59838  -1.39392  -1.19356  -1.09137  -1.08744
 Alpha  occ. eigenvalues --   -1.04761  -1.04140  -0.96606  -0.95581  -0.87615
 Alpha  occ. eigenvalues --   -0.86155  -0.82418  -0.80218  -0.78982  -0.77459
 Alpha  occ. eigenvalues --   -0.72034  -0.71161  -0.70455  -0.65806  -0.65005
 Alpha  occ. eigenvalues --   -0.64739  -0.62115  -0.61529  -0.59974  -0.58215
 Alpha  occ. eigenvalues --   -0.55907  -0.55248  -0.53275  -0.53098  -0.53054
 Alpha  occ. eigenvalues --   -0.52811  -0.50541  -0.48800  -0.48790  -0.48524
 Alpha  occ. eigenvalues --   -0.47257  -0.46477  -0.46405  -0.44797  -0.44427
 Alpha  occ. eigenvalues --   -0.37316  -0.36344
 Alpha virt. eigenvalues --    0.05063   0.11231   0.16488   0.19974   0.22717
 Alpha virt. eigenvalues --    0.23586   0.24886   0.26200   0.27345   0.28360
 Alpha virt. eigenvalues --    0.29268   0.30257   0.31127   0.31405   0.31693

 Mulliken charges:
               1
     1  C   -0.302034
     2  C   -0.299606
     3  C   -0.476159
     4  H    0.147158
     5  H    0.142769
     6  H    0.155168
     7  H    0.154924
     8  H    0.151645
     9  H    0.154463
    10  H    0.164374
    11  C   -0.298332
    12  C   -0.302645
    13  C   -0.476085
    14  H    0.151924
    15  H    0.152456
    16  H    0.148389
    17  H    0.154740
    18  H    0.157594
    19  H    0.155421
    20  H    0.162345
    21  C   -0.172013
    22  C   -0.221077
    23  C   -0.174049
    24  C    0.158826
    25  C   -0.170866
    26  C   -0.218604
    27  H    0.226381
    28  H    0.231574
    29  H    0.275270
    30  H    0.275593
    31  H    0.223375
    32  N    0.488123
    33  O   -0.460461
    34  O   -0.460580
 Sum of Mulliken charges =  -0.00000

 Dipole moment (field-independent basis, Debye):
    X=              3.6896    Y=             -1.1963    Z=              3.5734  Tot=              5.2738
 Quadrupole moment (field-independent basis, Debye-Ang):
   XX=           -112.7803   YY=            -95.5158   ZZ=            -91.9936
   XY=              1.9258   XZ=            -12.9850   YZ=              0.2873

 Normal termination of Gaussian 16 at Wed May  5 18:48:43 2021.
