 Gaussian 16, Revision A.03,
 Gaussian 16:  EM64L-G16RevA.03 25-Dec-2016

 -------------
 #p 6-31g* mp2
 -------------

 ------------------------------------------------------
 Input file generated by CHIRIPA (05-May-2021 14:53:16)
 ------------------------------------------------------
 Symbolic Z-matrix:
 Charge =  0 Multiplicity = 1

                         Standard orientation:
 ---------------------------------------------------------------------
 Center     Atomic      Atomic             Coordinates (Angstroms)
 Number     Number       Type             X           Y           Z
 ---------------------------------------------------------------------
      1          6           0       -5.094902   -0.034872   -0.126509
      2          6           0       -5.152567   -1.562612   -0.100581
      3          6           0       -6.583904   -2.100262   -0.101675
      4          1           0       -5.637468    0.360999    0.742889
      5          1           0       -5.623945    0.330001   -1.017786
      6          1           0       -4.622381   -1.924551    0.789654
      7          1           0       -4.609637   -1.954896   -0.970039
      8          1           0       -7.119779   -1.767374   -0.996451
      9          1           0       -7.132595   -1.736856    0.773239
     10          1           0       -6.601774   -3.194423   -0.082936
     11          6           0       -3.670692    0.517715   -0.125724
     12          6           0       -3.613026    2.045454   -0.151651
     13          6           0       -2.181690    2.583104   -0.150557
     14          1           0       -3.141648    0.152841    0.765554
     15          1           0       -3.128126    0.121843   -0.995122
     16          1           0       -4.155956    2.437739    0.717806
     17          1           0       -4.143213    2.407394   -1.041886
     18          1           0       -1.632998    2.219699   -1.025472
     19          1           0       -1.645814    2.250216    0.744219
     20          1           0       -2.163819    3.677266   -0.169296
     21          6           0        1.019969    0.293859    0.693078
     22          6           0        1.469041   -1.028324    0.611286
     23          6           0        2.798954   -1.307427    0.282678
     24          6           0        3.656479   -0.235254    0.041050
     25          6           0        3.239103    1.092775    0.114713
     26          6           0        1.904873    1.348329    0.444969
     27          1           0       -0.014816    0.501526    0.948989
     28          1           0        0.784045   -1.849234    0.803455
     29          1           0        3.173124   -2.321568    0.212449
     30          1           0        3.945455    1.890071   -0.082278
     31          1           0        1.558896    2.376143    0.507766
     32          7           0        5.066683   -0.518262   -0.307705
     33          8           0        5.802312    0.444078   -0.515997
     34          8           0        5.409669   -1.697068   -0.366162
 ---------------------------------------------------------------------

 SCF Done:  E(RHF) =  -669.535531480     A.U. after   15 cycles
 E2 =    -0.2091284072D+01 EUMP2 =    -0.67162681555233D+03

 The electronic state is 1-A.
 Alpha  occ. eigenvalues --  -20.60691 -20.60686 -15.85745 -11.31087 -11.27659
 Alpha  occ. eigenvalues --  -11.27654 -11.27335 -11.26654 -11.26638 -11.22635
 Alpha  occ. eigenvalues --  -11.22425 -11.22369 -11.22319 -11.22174 -11.21647
 Alpha  occ. eigenvalues --   -1.59768  -1.39322  -1.19255  -1.09346  -1.08647
 Alpha  occ. eigenvalues --   -1.04657  -1.04436  -0.96909  -0.95488  -0.87928
 Alpha  occ. eigenvalues --   -0.86049  -0.82328  -0.80516  -0.79146  -0.77378
 Alpha  occ. eigenvalues --   -0.71962  -0.71091  -0.70371  -0.65968  -0.64904
 Alpha  occ. eigenvalues --   -0.64660  -0.62008  -0.61825  -0.60285  -0.58514
 Alpha  occ. eigenvalues --   -0.56228  -0.55153  -0.53580  -0.53313  -0.52977
 Alpha  occ. eigenvalues --   -0.52741  -0.50844  -0.48816  -0.48719  -0.48712
 Alpha  occ. eigenvalues --   -0.47532  -0.46682  -0.46587  -0.44733  -0.44683
 Alpha  occ. eigenvalues --   -0.37220  -0.36267
 Alpha virt. eigenvalues --    0.05152   0.11374   0.16637   0.19541   0.22322
 Alpha virt. eigenvalues --    0.23662   0.25243   0.25927   0.26380   0.27761
 Alpha virt. eigenvalues --    0.29170   0.30023   0.30872   0.31148   0.31485

 Mulliken charges:
               1
     1  C   -0.298721
     2  C   -0.300289
     3  C   -0.476191
     4  H    0.151509
     5  H    0.152525
     6  H    0.150309
     7  H    0.152646
     8  H    0.156787
     9  H    0.156235
    10  H    0.161985
    11  C   -0.300080
    12  C   -0.299762
    13  C   -0.481940
    14  H    0.142762
    15  H    0.151403
    16  H    0.155065
    17  H    0.156976
    18  H    0.159430
    19  H    0.145642
    20  H    0.165746
    21  C   -0.174617
    22  C   -0.220025
    23  C   -0.170933
    24  C    0.158086
    25  C   -0.171041
    26  C   -0.221428
    27  H    0.233083
    28  H    0.223386
    29  H    0.275101
    30  H    0.275209
    31  H    0.224601
    32  N    0.488067
    33  O   -0.460749
    34  O   -0.460775
 Sum of Mulliken charges =  -0.00000

 Dipole moment (field-independent basis, Debye):
    X=             -5.2674    Y=              1.0471    Z=              1.1457  Tot=              5.4914
 Quadrupole moment (field-independent basis, Debye-Ang):
   XX=           -131.5626   YY=            -90.4334   ZZ=            -94.4662
   XY=              5.2316   XZ=              4.4573   YZ=             -0.7262

 Normal termination of Gaussian 16 at Thu May  6 10:37:07 2021.
