 Gaussian 16, Revision A.03,
 Gaussian 16:  EM64L-G16RevA.03 25-Dec-2016

 -------------
 #p 6-31g* mp2
 -------------

 ------------------------------------------------------
 Input file generated by CHIRIPA (05-May-2021 14:57:26)
 ------------------------------------------------------
 Symbolic Z-matrix:
 Charge =  0 Multiplicity = 1

                         Standard orientation:
 ---------------------------------------------------------------------
 Center     Atomic      Atomic             Coordinates (Angstroms)
 Number     Number       Type             X           Y           Z
 ---------------------------------------------------------------------
      1          6           0        2.869992    2.522498    0.211576
      2          6           0        1.957908    2.022781   -0.723789
      3          6           0        1.931046    0.659126   -1.030824
      4          6           0        2.834537   -0.180134   -0.380720
      5          6           0        3.755173    0.287480    0.555794
      6          6           0        3.764137    1.654782    0.847261
      7          1           0        2.883908    3.583234    0.444042
      8          1           0        1.262336    2.694324   -1.219020
      9          1           0        1.235445    0.245557   -1.750906
     10          1           0        4.436243   -0.406571    1.033135
     11          1           0        4.473575    2.040069    1.574102
     12          7           0        2.815573   -1.625705   -0.697524
     13          8           0        3.621944   -2.344305   -0.110994
     14          8           0        1.994697   -2.012771   -1.526366
     15          6           0       -0.720585   -0.610357    1.585062
     16          6           0       -0.895301    0.663165    1.033576
     17          6           0       -2.064253    0.980257    0.335326
     18          6           0       -3.042334   -0.004725    0.207027
     19          6           0       -2.897719   -1.282563    0.745085
     20          6           0       -1.720588   -1.577451    1.439314
     21          1           0        0.190661   -0.848057    2.125917
     22          1           0       -0.120373    1.416206    1.145201
     23          1           0       -2.225506    1.958236   -0.101676
     24          1           0       -3.687989   -2.012336    0.617327
     25          1           0       -1.587626   -2.567317    1.866551
     26          7           0       -4.284180    0.319213   -0.530050
     27          8           0       -5.130856   -0.566198   -0.629165
     28          8           0       -4.387348    1.452392   -0.994698
 ---------------------------------------------------------------------

 SCF Done:  E(RHF) =  -868.336667899     A.U. after   16 cycles
 E2 =    -0.2603030094D+01 EUMP2 =    -0.87093969799263D+03

 The electronic state is 1-A.
 Alpha  occ. eigenvalues --  -20.61554 -20.61527 -20.60810 -20.60791 -15.86599
 Alpha  occ. eigenvalues --  -15.85852 -11.32081 -11.31198 -11.28694 -11.28631
 Alpha  occ. eigenvalues --  -11.28454 -11.27772 -11.27692 -11.27669 -11.27657
 Alpha  occ. eigenvalues --  -11.27410 -11.26698 -11.26684  -1.60623  -1.59877
 Alpha  occ. eigenvalues --   -1.40167  -1.39433  -1.20310  -1.19336  -1.09668
 Alpha  occ. eigenvalues --   -1.08732  -1.05714  -1.04729  -0.96465  -0.95580
 Alpha  occ. eigenvalues --   -0.87079  -0.86130  -0.83283  -0.82414  -0.78308
 Alpha  occ. eigenvalues --   -0.77478  -0.72804  -0.72073  -0.71970  -0.71354
 Alpha  occ. eigenvalues --   -0.71199  -0.70438  -0.65923  -0.65668  -0.64983
 Alpha  occ. eigenvalues --   -0.64758  -0.63008  -0.62115  -0.56171  -0.55227
 Alpha  occ. eigenvalues --   -0.54239  -0.53754  -0.53011  -0.52661  -0.49582
 Alpha  occ. eigenvalues --   -0.49554  -0.48835  -0.48819  -0.45541  -0.44845
 Alpha  occ. eigenvalues --   -0.38385  -0.37767  -0.37029  -0.36019
 Alpha virt. eigenvalues --    0.04146   0.05065   0.10111   0.11443   0.15529
 Alpha virt. eigenvalues --    0.16687   0.20412   0.21653   0.26061   0.27498
 Alpha virt. eigenvalues --    0.27809   0.28164   0.30370   0.31090   0.31821

 Mulliken charges:
               1
     1  C   -0.173873
     2  C   -0.231041
     3  C   -0.163801
     4  C    0.154362
     5  C   -0.173940
     6  C   -0.219798
     7  H    0.229245
     8  H    0.227239
     9  H    0.281855
    10  H    0.277608
    11  H    0.226595
    12  N    0.486939
    13  O   -0.460668
    14  O   -0.455458
    15  C   -0.173876
    16  C   -0.220013
    17  C   -0.179150
    18  C    0.160290
    19  C   -0.170659
    20  C   -0.213920
    21  H    0.226210
    22  H    0.225933
    23  H    0.269601
    24  H    0.276679
    25  H    0.227289
    26  N    0.488119
    27  O   -0.458573
    28  O   -0.463196
 Sum of Mulliken charges =  -0.00000

 Dipole moment (field-independent basis, Debye):
    X=              4.5846    Y=              3.7735    Z=              3.6435  Tot=              6.9666
 Quadrupole moment (field-independent basis, Debye-Ang):
   XX=           -128.5401   YY=           -102.7728   ZZ=           -103.4237
   XY=             19.6676   XZ=             -1.5639   YZ=             -3.9875

 Normal termination of Gaussian 16 at Thu May  6 08:23:14 2021.
