 Gaussian 16, Revision A.03,
 Gaussian 16:  EM64L-G16RevA.03 25-Dec-2016

 -------------
 #p 6-31g* mp2
 -------------

 ------------------------------------------------------
 Input file generated by CHIRIPA (05-May-2021 14:51:11)
 ------------------------------------------------------
 Symbolic Z-matrix:
 Charge =  0 Multiplicity = 1

                         Standard orientation:
 ---------------------------------------------------------------------
 Center     Atomic      Atomic             Coordinates (Angstroms)
 Number     Number       Type             X           Y           Z
 ---------------------------------------------------------------------
      1          6           0       -3.481499   -0.196387    0.588713
      2          6           0       -2.214433   -0.976579    0.236821
      3          6           0       -1.027819   -0.610333    1.128788
      4          1           0       -3.276802    0.879772    0.505490
      5          1           0       -3.739816   -0.385046    1.639939
      6          1           0       -1.959364   -0.787596   -0.813818
      7          1           0       -2.422225   -2.051010    0.320706
      8          1           0       -1.257748   -0.815594    2.179312
      9          1           0       -0.792258    0.454998    1.038343
     10          1           0       -0.132650   -1.179744    0.859897
     11          6           0       -4.676464   -0.551513   -0.294277
     12          6           0       -5.943531    0.228680    0.057616
     13          6           0       -7.130144   -0.137566   -0.834351
     14          1           0       -4.418147   -0.362853   -1.345502
     15          1           0       -4.881162   -1.627671   -0.211053
     16          1           0       -5.735739    1.303111   -0.026269
     17          1           0       -6.198600    0.039696    1.108254
     18          1           0       -7.365706   -1.202898   -0.743906
     19          1           0       -6.900215    0.067695   -1.884876
     20          1           0       -8.025314    0.431845   -0.565460
     21          6           0        4.778478    0.119954    0.024897
     22          6           0        5.052922   -1.294522   -0.486889
     23          6           0        6.456353   -1.788664   -0.134754
     24          1           0        5.526507    0.806450   -0.394769
     25          1           0        4.912515    0.140285    1.115317
     26          1           0        4.917057   -1.312501   -1.575849
     27          1           0        4.304037   -1.977697   -0.066108
     28          1           0        6.599969   -1.799381    0.950538
     29          1           0        7.216474   -1.130405   -0.567781
     30          1           0        6.631210   -2.801767   -0.510131
     31          6           0        3.379486    0.627946   -0.319334
     32          6           0        3.105042    2.042421    0.192452
     33          6           0        1.701610    2.536564   -0.159681
     34          1           0        3.245448    0.607615   -1.409753
     35          1           0        2.631456   -0.058550    0.100333
     36          1           0        3.853927    2.725597   -0.228329
     37          1           0        3.240906    2.060400    1.281412
     38          1           0        0.941489    1.878304    0.273344
     39          1           0        1.557994    2.547280   -1.244975
     40          1           0        1.526753    3.549666    0.215695
 ---------------------------------------------------------------------

 SCF Done:  E(RHF) =  -470.733291113     A.U. after   11 cycles
 E2 =    -0.1582593226D+01 EUMP2 =    -0.47231588433950D+03

 The electronic state is 1-A.
 Alpha  occ. eigenvalues --  -11.21626 -11.21603 -11.21587 -11.21566 -11.21414
 Alpha  occ. eigenvalues --  -11.21375 -11.21354 -11.21314 -11.21126 -11.21071
 Alpha  occ. eigenvalues --  -11.21058 -11.21016  -1.08443  -1.08400  -1.03556
 Alpha  occ. eigenvalues --   -1.03496  -0.96015  -0.95942  -0.87042  -0.86953
 Alpha  occ. eigenvalues --   -0.79645  -0.79537  -0.78258  -0.78207  -0.65097
 Alpha  occ. eigenvalues --   -0.65011  -0.61053  -0.60813  -0.59381  -0.59308
 Alpha  occ. eigenvalues --   -0.57654  -0.57534  -0.55458  -0.55097  -0.52706
 Alpha  occ. eigenvalues --   -0.52646  -0.52512  -0.52300  -0.50124  -0.49728
 Alpha  occ. eigenvalues --   -0.47974  -0.47829  -0.46752  -0.46471  -0.45818
 Alpha  occ. eigenvalues --   -0.45751  -0.45712  -0.45623  -0.43796  -0.43756
 Alpha virt. eigenvalues --    0.21394   0.23029   0.23592   0.24827   0.26082
 Alpha virt. eigenvalues --    0.26214   0.27023   0.27193   0.27826   0.29160
 Alpha virt. eigenvalues --    0.30155   0.31186   0.31705   0.31844   0.31989

 Mulliken charges:
               1
     1  C   -0.298667
     2  C   -0.299379
     3  C   -0.483131
     4  H    0.150180
     5  H    0.149477
     6  H    0.152691
     7  H    0.152042
     8  H    0.155555
     9  H    0.160794
    10  H    0.161085
    11  C   -0.298342
    12  C   -0.299697
    13  C   -0.475721
    14  H    0.149702
    15  H    0.149624
    16  H    0.152092
    17  H    0.151899
    18  H    0.155155
    19  H    0.155235
    20  H    0.160278
    21  C   -0.298287
    22  C   -0.299579
    23  C   -0.475686
    24  H    0.149581
    25  H    0.149609
    26  H    0.151850
    27  H    0.151720
    28  H    0.155210
    29  H    0.155158
    30  H    0.160170
    31  C   -0.300356
    32  C   -0.298812
    33  C   -0.483345
    34  H    0.149215
    35  H    0.151892
    36  H    0.151704
    37  H    0.151994
    38  H    0.162593
    39  H    0.154690
    40  H    0.159807
 Sum of Mulliken charges =  -0.00000

 Dipole moment (field-independent basis, Debye):
    X=             -0.0301    Y=             -0.0103    Z=              0.0065  Tot=              0.0325
 Quadrupole moment (field-independent basis, Debye-Ang):
   XX=            -86.4856   YY=            -84.4349   ZZ=            -83.9189
   XY=              0.6530   XZ=             -1.1826   YZ=             -0.8286

 Normal termination of Gaussian 16 at Wed May  5 16:46:11 2021.
