 Gaussian 16, Revision A.03,
 Gaussian 16:  EM64L-G16RevA.03 25-Dec-2016

 -------------
 #p 6-31g* mp2
 -------------

 ------------------------------------------------------
 Input file generated by CHIRIPA (05-May-2021 14:53:16)
 ------------------------------------------------------
 Symbolic Z-matrix:
 Charge =  0 Multiplicity = 1

                         Standard orientation:
 ---------------------------------------------------------------------
 Center     Atomic      Atomic             Coordinates (Angstroms)
 Number     Number       Type             X           Y           Z
 ---------------------------------------------------------------------
      1          6           0        3.158069   -0.446177   -0.545577
      2          6           0        2.502977   -1.819017   -0.390175
      3          6           0        1.309826   -2.014040   -1.326205
      4          1           0        2.408872    0.334287   -0.354458
      5          1           0        3.483447   -0.318712   -1.587343
      6          1           0        2.180173   -1.944409    0.651309
      7          1           0        3.253867   -2.596304   -0.581498
      8          1           0        1.620100   -1.915583   -2.371498
      9          1           0        0.540305   -1.259984   -1.131686
     10          1           0        0.856635   -3.002047   -1.198457
     11          6           0        4.352378   -0.236161    0.383534
     12          6           0        5.007470    1.136680    0.228133
     13          6           0        6.200620    1.331703    1.164162
     14          1           0        4.027000   -0.363625    1.425300
     15          1           0        5.101574   -1.016625    0.192416
     16          1           0        4.256580    1.913967    0.419455
     17          1           0        5.330274    1.262072   -0.813352
     18          1           0        6.970141    0.577646    0.969643
     19          1           0        5.890346    1.233245    2.209455
     20          1           0        6.653812    2.319710    1.036415
     21          6           0       -3.234746   -2.089132    0.915447
     22          6           0       -2.426809   -1.846203   -0.200234
     23          6           0       -2.252863   -0.545032   -0.681110
     24          6           0       -2.904671    0.494276   -0.019085
     25          6           0       -3.716089    0.284360    1.094839
     26          6           0       -3.875679   -1.024950    1.558289
     27          1           0       -3.364296   -3.103074    1.282235
     28          1           0       -1.927829   -2.670722   -0.701466
     29          1           0       -1.633075   -0.328624   -1.542765
     30          1           0       -4.200601    1.126711    1.573494
     31          1           0       -4.503730   -1.210640    2.424958
     32          7           0       -2.728121    1.876076   -0.518942
     33          8           0       -3.313252    2.774459    0.082030
     34          8           0       -2.007954    2.034584   -1.502238
 ---------------------------------------------------------------------

 SCF Done:  E(RHF) =  -669.534937064     A.U. after   15 cycles
 E2 =    -0.2092012341D+01 EUMP2 =    -0.67162694940457D+03

 The electronic state is 1-A.
 Alpha  occ. eigenvalues --  -20.60774 -20.60769 -15.85827 -11.31186 -11.27750
 Alpha  occ. eigenvalues --  -11.27717 -11.27480 -11.26774 -11.26726 -11.21964
 Alpha  occ. eigenvalues --  -11.21695 -11.21551 -11.21501 -11.21418 -11.21022
 Alpha  occ. eigenvalues --   -1.59850  -1.39404  -1.19357  -1.08751  -1.08566
 Alpha  occ. eigenvalues --   -1.04763  -1.03724  -0.96204  -0.95587  -0.87237
 Alpha  occ. eigenvalues --   -0.86152  -0.82420  -0.79806  -0.78341  -0.77462
 Alpha  occ. eigenvalues --   -0.72045  -0.71175  -0.70473  -0.65207  -0.64998
 Alpha  occ. eigenvalues --   -0.64762  -0.62177  -0.61074  -0.59592  -0.57790
 Alpha  occ. eigenvalues --   -0.55529  -0.55220  -0.53125  -0.53024  -0.52801
 Alpha  occ. eigenvalues --   -0.52519  -0.50123  -0.48802  -0.48799  -0.48104
 Alpha  occ. eigenvalues --   -0.46801  -0.45892  -0.45789  -0.44809  -0.43968
 Alpha  occ. eigenvalues --   -0.37339  -0.36320
 Alpha virt. eigenvalues --    0.05023   0.11242   0.16472   0.20720   0.22865
 Alpha virt. eigenvalues --    0.24137   0.25953   0.26459   0.26963   0.28017
 Alpha virt. eigenvalues --    0.29277   0.29536   0.31403   0.31679   0.32486

 Mulliken charges:
               1
     1  C   -0.300083
     2  C   -0.298503
     3  C   -0.482763
     4  H    0.154772
     5  H    0.151083
     6  H    0.152033
     7  H    0.152782
     8  H    0.159233
     9  H    0.155952
    10  H    0.152646
    11  C   -0.298602
    12  C   -0.300348
    13  C   -0.475860
    14  H    0.149167
    15  H    0.148885
    16  H    0.155076
    17  H    0.152707
    18  H    0.154405
    19  H    0.154902
    20  H    0.161373
    21  C   -0.171752
    22  C   -0.216931
    23  C   -0.174840
    24  C    0.158062
    25  C   -0.171545
    26  C   -0.218217
    27  H    0.225584
    28  H    0.227224
    29  H    0.277574
    30  H    0.275469
    31  H    0.223380
    32  N    0.488037
    33  O   -0.460444
    34  O   -0.460458
 Sum of Mulliken charges =  -0.00000

 Dipole moment (field-independent basis, Debye):
    X=             -0.5438    Y=             -4.8087    Z=              1.7729  Tot=              5.1539
 Quadrupole moment (field-independent basis, Debye-Ang):
   XX=            -90.0031   YY=            -99.6913   ZZ=            -92.4564
   XY=             12.5249   XZ=             -8.7916   YZ=              2.3778

 Normal termination of Gaussian 16 at Wed May  5 18:41:36 2021.
