 Gaussian 16, Revision A.03,
 Gaussian 16:  EM64L-G16RevA.03 25-Dec-2016

 -------------
 #p 6-31g* mp2
 -------------

 ------------------------------------------------------
 Input file generated by CHIRIPA (05-May-2021 14:55:25)
 ------------------------------------------------------
 Symbolic Z-matrix:
 Charge =  0 Multiplicity = 1

                         Standard orientation:
 ---------------------------------------------------------------------
 Center     Atomic      Atomic             Coordinates (Angstroms)
 Number     Number       Type             X           Y           Z
 ---------------------------------------------------------------------
      1          6           0       -4.838589   -1.007758   -0.938819
      2          6           0       -4.902015    0.115634   -0.107863
      3          6           0       -3.760214    0.572129    0.557308
      4          6           0       -2.566155   -0.121873    0.367909
      5          6           0       -2.470945   -1.244251   -0.453367
      6          6           0       -3.625396   -1.682925   -1.108620
      7          1           0       -5.730481   -1.355453   -1.451688
      8          1           0       -5.842840    0.641949    0.025877
      9          1           0       -3.781065    1.439073    1.206454
     10          1           0       -1.518782   -1.748133   -0.566977
     11          1           0       -3.573177   -2.555654   -1.753339
     12          7           0       -1.350686    0.351965    1.066845
     13          8           0       -0.310792   -0.276993    0.883346
     14          8           0       -1.460909    1.343344    1.784937
     15          6           0        3.015138    0.599545   -0.757932
     16          6           0        2.785795    2.065153   -0.387287
     17          6           0        1.730818    2.738857   -1.265321
     18          1           0        3.319289    0.537729   -1.811790
     19          1           0        2.064747    0.054408   -0.674404
     20          1           0        3.736624    2.607070   -0.470154
     21          1           0        2.482340    2.123503    0.665863
     22          1           0        0.768879    2.223872   -1.175510
     23          1           0        2.030290    2.710187   -2.317982
     24          1           0        1.582740    3.785898   -0.983122
     25          6           0        4.067047   -0.087628    0.110980
     26          6           0        4.296391   -1.553237   -0.259664
     27          6           0        5.351368   -2.226940    0.618369
     28          1           0        5.017439    0.457510    0.027453
     29          1           0        3.762896   -0.025812    1.164838
     30          1           0        4.599846   -1.611586   -1.312815
     31          1           0        3.345563   -2.095153   -0.176798
     32          1           0        5.051895   -2.198270    1.671030
     33          1           0        6.313306   -1.711955    0.528558
     34          1           0        5.499446   -3.273982    0.336169
 ---------------------------------------------------------------------

 SCF Done:  E(RHF) =  -669.536450209     A.U. after   15 cycles
 E2 =    -0.2091540875D+01 EUMP2 =    -0.67162799108422D+03

 The electronic state is 1-A.
 Alpha  occ. eigenvalues --  -20.61054 -20.61048 -15.86078 -11.31350 -11.27909
 Alpha  occ. eigenvalues --  -11.27903 -11.27637 -11.26904 -11.26894 -11.20710
 Alpha  occ. eigenvalues --  -11.20335 -11.20315 -11.20246 -11.20033 -11.20010
 Alpha  occ. eigenvalues --   -1.60109  -1.39666  -1.19514  -1.08928  -1.07271
 Alpha  occ. eigenvalues --   -1.04903  -1.02482  -0.95777  -0.94948  -0.86306
 Alpha  occ. eigenvalues --   -0.85977  -0.82614  -0.78563  -0.77677  -0.77071
 Alpha  occ. eigenvalues --   -0.72304  -0.71421  -0.70623  -0.65174  -0.64906
 Alpha  occ. eigenvalues --   -0.63858  -0.62251  -0.59860  -0.58335  -0.56568
 Alpha  occ. eigenvalues --   -0.55409  -0.54222  -0.53236  -0.52994  -0.51698
 Alpha  occ. eigenvalues --   -0.51397  -0.49077  -0.49058  -0.48868  -0.46898
 Alpha  occ. eigenvalues --   -0.45586  -0.45196  -0.44617  -0.44334  -0.42704
 Alpha  occ. eigenvalues --   -0.37489  -0.36501
 Alpha virt. eigenvalues --    0.04822   0.11154   0.16295   0.21239   0.23994
 Alpha virt. eigenvalues --    0.25255   0.27089   0.27499   0.28232   0.28728
 Alpha virt. eigenvalues --    0.29021   0.30923   0.32206   0.32445   0.32753

 Mulliken charges:
               1
     1  C   -0.170403
     2  C   -0.218551
     3  C   -0.170504
     4  C    0.157559
     5  C   -0.170481
     6  C   -0.218491
     7  H    0.226270
     8  H    0.224071
     9  H    0.276045
    10  H    0.275568
    11  H    0.224144
    12  N    0.490684
    13  O   -0.463266
    14  O   -0.458098
    15  C   -0.304769
    16  C   -0.298535
    17  C   -0.473652
    18  H    0.140060
    19  H    0.168464
    20  H    0.145105
    21  H    0.163653
    22  H    0.154356
    23  H    0.148491
    24  H    0.157631
    25  C   -0.297686
    26  C   -0.299144
    27  C   -0.475193
    28  H    0.144296
    29  H    0.156039
    30  H    0.147406
    31  H    0.153257
    32  H    0.156302
    33  H    0.153215
    34  H    0.156157
 Sum of Mulliken charges =  -0.00000

 Dipole moment (field-independent basis, Debye):
    X=             -4.6250    Y=             -1.6988    Z=             -2.2786  Tot=              5.4285
 Quadrupole moment (field-independent basis, Debye-Ang):
   XX=            -72.8376   YY=            -92.7139   ZZ=            -96.5085
   XY=              3.3618   XZ=              3.3147   YZ=              2.0554

 Normal termination of Gaussian 16 at Wed May  5 20:50:24 2021.
