 Gaussian 16, Revision A.03,
 Gaussian 16:  EM64L-G16RevA.03 25-Dec-2016

 -------------
 #p 6-31g* mp2
 -------------

 ------------------------------------------------------
 Input file generated by CHIRIPA (05-May-2021 14:57:22)
 ------------------------------------------------------
 Symbolic Z-matrix:
 Charge =  0 Multiplicity = 1

                         Standard orientation:
 ---------------------------------------------------------------------
 Center     Atomic      Atomic             Coordinates (Angstroms)
 Number     Number       Type             X           Y           Z
 ---------------------------------------------------------------------
      1          6           0        6.414108    0.751596   -0.940213
      2          6           0        6.484531   -0.289852   -0.009113
      3          6           0        5.318927   -0.824089    0.548117
      4          6           0        4.094187   -0.290541    0.149836
      5          6           0        3.991259    0.746939   -0.775546
      6          6           0        5.169890    1.265761   -1.319789
      7          1           0        7.324637    1.160617   -1.368039
      8          1           0        7.449428   -0.691127    0.287529
      9          1           0        5.344537   -1.630468    1.270970
     10          1           0        3.014876    1.126218   -1.051664
     11          1           0        5.112168    2.074550   -2.042681
     12          7           0        2.853319   -0.847955    0.732876
     13          8           0        1.786585   -0.360395    0.365450
     14          8           0        2.970956   -1.761860    1.546249
     15          6           0       -2.508791    1.823392    0.669062
     16          6           0       -3.837029    2.026780    1.057571
     17          6           0       -4.837030    1.133030    0.662912
     18          6           0       -4.471738    0.041601   -0.123622
     19          6           0       -3.157252   -0.188232   -0.526848
     20          6           0       -2.173733    0.718483   -0.120515
     21          1           0       -1.738368    2.522714    0.980177
     22          1           0       -4.100150    2.883997    1.670754
     23          1           0       -5.873134    1.266493    0.949436
     24          1           0       -2.925624   -1.051927   -1.138237
     25          1           0       -1.143027    0.558014   -0.423729
     26          7           0       -5.521671   -0.911435   -0.547608
     27          8           0       -5.173960   -1.865235   -1.240429
     28          8           0       -6.672437   -0.686579   -0.179081
 ---------------------------------------------------------------------

 SCF Done:  E(RHF) =  -868.339358556     A.U. after   16 cycles
 E2 =    -0.2598326120D+01 EUMP2 =    -0.87093768467520D+03

 The electronic state is 1-A.
 Alpha  occ. eigenvalues --  -20.61634 -20.61567 -20.60095 -20.60086 -15.86655
 Alpha  occ. eigenvalues --  -15.85138 -11.31839 -11.30369 -11.28421 -11.28355
 Alpha  occ. eigenvalues --  -11.28075 -11.27367 -11.27331 -11.26946 -11.26835
 Alpha  occ. eigenvalues --  -11.26602 -11.25967 -11.25727  -1.60663  -1.59170
 Alpha  occ. eigenvalues --   -1.40228  -1.38728  -1.19990  -1.18509  -1.09412
 Alpha  occ. eigenvalues --   -1.07931  -1.05369  -1.03875  -0.96281  -0.94796
 Alpha  occ. eigenvalues --   -0.86774  -0.85279  -0.83126  -0.81620  -0.78198
 Alpha  occ. eigenvalues --   -0.76686  -0.72888  -0.71973  -0.71362  -0.71095
 Alpha  occ. eigenvalues --   -0.70490  -0.69630  -0.65649  -0.65366  -0.64155
 Alpha  occ. eigenvalues --   -0.63843  -0.62723  -0.61210  -0.55863  -0.54395
 Alpha  occ. eigenvalues --   -0.53703  -0.53458  -0.52232  -0.51941  -0.49644
 Alpha  occ. eigenvalues --   -0.49592  -0.48124  -0.48104  -0.45673  -0.44163
 Alpha  occ. eigenvalues --   -0.37951  -0.36963  -0.36492  -0.35471
 Alpha virt. eigenvalues --    0.04338   0.05816   0.10694   0.12179   0.15873
 Alpha virt. eigenvalues --    0.17355   0.20773   0.22314   0.26687   0.27307
 Alpha virt. eigenvalues --    0.28504   0.29121   0.30376   0.31490   0.32359

 Mulliken charges:
               1
     1  C   -0.170104
     2  C   -0.218309
     3  C   -0.170298
     4  C    0.158189
     5  C   -0.170433
     6  C   -0.218196
     7  H    0.227781
     8  H    0.225741
     9  H    0.277212
    10  H    0.270817
    11  H    0.224576
    12  N    0.493555
    13  O   -0.474504
    14  O   -0.454517
    15  C   -0.171951
    16  C   -0.218622
    17  C   -0.172844
    18  C    0.158313
    19  C   -0.172519
    20  C   -0.220781
    21  H    0.223922
    22  H    0.219881
    23  H    0.272639
    24  H    0.275562
    25  H    0.241099
    26  N    0.488137
    27  O   -0.461237
    28  O   -0.463108
 Sum of Mulliken charges =  -0.00000

 Dipole moment (field-independent basis, Debye):
    X=              8.5988    Y=              5.2420    Z=             -0.5524  Tot=             10.0857
 Quadrupole moment (field-independent basis, Debye-Ang):
   XX=            -98.9615   YY=           -103.2171   ZZ=           -104.3469
   XY=            -12.1134   XZ=            -15.2085   YZ=             -0.1675

 Normal termination of Gaussian 16 at Thu May  6 14:34:27 2021.
