 Gaussian 16, Revision A.03,
 Gaussian 16:  EM64L-G16RevA.03 25-Dec-2016

 -------------
 #p 6-31g* mp2
 -------------

 ------------------------------------------------------
 Input file generated by CHIRIPA (05-May-2021 14:53:16)
 ------------------------------------------------------
 Symbolic Z-matrix:
 Charge =  0 Multiplicity = 1

                         Standard orientation:
 ---------------------------------------------------------------------
 Center     Atomic      Atomic             Coordinates (Angstroms)
 Number     Number       Type             X           Y           Z
 ---------------------------------------------------------------------
      1          6           0        3.325310    0.651091    0.054656
      2          6           0        3.009745    1.835261   -0.859753
      3          6           0        2.008275    2.810303   -0.239959
      4          1           0        2.393066    0.120255    0.291468
      5          1           0        3.721102    1.028129    1.007854
      6          1           0        2.615963    1.456046   -1.811461
      7          1           0        3.942874    2.363226   -1.094571
      8          1           0        2.396920    3.216380    0.699539
      9          1           0        1.062470    2.304045   -0.021424
     10          1           0        1.797053    3.649131   -0.910490
     11          6           0        4.325013   -0.332486   -0.551066
     12          6           0        4.640578   -1.516657    0.363343
     13          6           0        5.642049   -2.491698   -0.256451
     14          1           0        3.929221   -0.709524   -1.504264
     15          1           0        5.257257    0.198350   -0.787878
     16          1           0        3.707449   -2.044622    0.598161
     17          1           0        5.034360   -1.137441    1.315051
     18          1           0        6.587853   -1.985440   -0.474986
     19          1           0        5.253403   -2.897775   -1.195949
     20          1           0        5.853270   -3.330527    0.414080
     21          6           0       -1.109806    1.107027    1.342924
     22          6           0       -1.943850    1.782274    0.445742
     23          6           0       -2.987855    1.110005   -0.196640
     24          6           0       -3.170024   -0.243510    0.082827
     25          6           0       -2.355961   -0.943964    0.971623
     26          6           0       -1.318157   -0.251541    1.602543
     27          1           0       -0.301206    1.637091    1.837489
     28          1           0       -1.784393    2.837351    0.242195
     29          1           0       -3.648471    1.608326   -0.895697
     30          1           0       -2.539686   -1.995777    1.154255
     31          1           0       -0.671992   -0.778507    2.298835
     32          7           0       -4.271983   -0.965879   -0.591166
     33          8           0       -4.411562   -2.158277   -0.327838
     34          8           0       -4.975255   -0.325996   -1.370009
 ---------------------------------------------------------------------

 SCF Done:  E(RHF) =  -669.535110029     A.U. after   15 cycles
 E2 =    -0.2092318425D+01 EUMP2 =    -0.67162742845412D+03

 The electronic state is 1-A.
 Alpha  occ. eigenvalues --  -20.60797 -20.60792 -15.85852 -11.31234 -11.27807
 Alpha  occ. eigenvalues --  -11.27797 -11.27506 -11.26814 -11.26797 -11.22296
 Alpha  occ. eigenvalues --  -11.22102 -11.22076 -11.21947 -11.21901 -11.21455
 Alpha  occ. eigenvalues --   -1.59873  -1.39426  -1.19411  -1.09047  -1.08800
 Alpha  occ. eigenvalues --   -1.04810  -1.04148  -0.96623  -0.95631  -0.87645
 Alpha  occ. eigenvalues --   -0.86203  -0.82462  -0.80229  -0.78857  -0.77503
 Alpha  occ. eigenvalues --   -0.72069  -0.71196  -0.70530  -0.65671  -0.65060
 Alpha  occ. eigenvalues --   -0.64805  -0.62157  -0.61536  -0.59988  -0.58237
 Alpha  occ. eigenvalues --   -0.55967  -0.55275  -0.53306  -0.53242  -0.52934
 Alpha  occ. eigenvalues --   -0.52889  -0.50541  -0.48829  -0.48823  -0.48530
 Alpha  occ. eigenvalues --   -0.47239  -0.46400  -0.46302  -0.44828  -0.44398
 Alpha  occ. eigenvalues --   -0.37332  -0.36411
 Alpha virt. eigenvalues --    0.04988   0.11114   0.16408   0.20782   0.22484
 Alpha virt. eigenvalues --    0.23916   0.26011   0.26413   0.26625   0.27768
 Alpha virt. eigenvalues --    0.29290   0.30826   0.31060   0.31233   0.31693

 Mulliken charges:
               1
     1  C   -0.300112
     2  C   -0.297987
     3  C   -0.486150
     4  H    0.147214
     5  H    0.147678
     6  H    0.155845
     7  H    0.154476
     8  H    0.152731
     9  H    0.155315
    10  H    0.162385
    11  C   -0.298690
    12  C   -0.299836
    13  C   -0.476084
    14  H    0.152180
    15  H    0.151219
    16  H    0.150488
    17  H    0.151269
    18  H    0.156091
    19  H    0.156867
    20  H    0.161204
    21  C   -0.172049
    22  C   -0.218398
    23  C   -0.171208
    24  C    0.158483
    25  C   -0.171037
    26  C   -0.221080
    27  H    0.230203
    28  H    0.225519
    29  H    0.275922
    30  H    0.275787
    31  H    0.224230
    32  N    0.488086
    33  O   -0.460332
    34  O   -0.460228
 Sum of Mulliken charges =  -0.00000

 Dipole moment (field-independent basis, Debye):
    X=              3.9465    Y=              2.5011    Z=              2.3136  Tot=              5.2137
 Quadrupole moment (field-independent basis, Debye-Ang):
   XX=           -119.2299   YY=            -93.0758   ZZ=            -93.6922
   XY=             -9.5416   XZ=             -6.2429   YZ=             -2.7766

 Normal termination of Gaussian 16 at Thu May  6 18:54:58 2021.
