 Gaussian 16, Revision A.03,
 Gaussian 16:  EM64L-G16RevA.03 25-Dec-2016

 -------------
 #p 6-31g* mp2
 -------------

 ------------------------------------------------------
 Input file generated by CHIRIPA (05-May-2021 14:57:24)
 ------------------------------------------------------
 Symbolic Z-matrix:
 Charge =  0 Multiplicity = 1

                         Standard orientation:
 ---------------------------------------------------------------------
 Center     Atomic      Atomic             Coordinates (Angstroms)
 Number     Number       Type             X           Y           Z
 ---------------------------------------------------------------------
      1          6           0        5.709803    0.673482    0.169041
      2          6           0        5.193415   -0.190867    1.140002
      3          6           0        3.854118   -0.589456    1.095731
      4          6           0        3.055953   -0.102325    0.061843
      5          6           0        3.541073    0.759952   -0.920210
      6          6           0        4.883441    1.145301   -0.856159
      7          1           0        6.751394    0.977973    0.211114
      8          1           0        5.832851   -0.558864    1.937337
      9          1           0        3.428432   -1.257631    1.834481
     10          1           0        2.879131    1.110177   -1.702893
     11          1           0        5.281758    1.816667   -1.611576
     12          7           0        1.636474   -0.517286    0.004505
     13          8           0        0.953990   -0.074097   -0.916602
     14          8           0        1.233248   -1.277862    0.881756
     15          6           0       -3.974662    2.368847    0.595945
     16          6           0       -3.091561    2.176492   -0.471600
     17          6           0       -2.705276    0.887265   -0.850050
     18          6           0       -3.223700   -0.191796   -0.135799
     19          6           0       -4.105255   -0.032641    0.932292
     20          6           0       -4.477803    1.265613    1.293255
     21          1           0       -4.269401    3.373857    0.883142
     22          1           0       -2.699229    3.031418   -1.014944
     23          1           0       -2.023109    0.709677   -1.672564
     24          1           0       -4.479655   -0.904483    1.454915
     25          1           0       -5.163789    1.411993    2.122738
     26          7           0       -2.822028   -1.561421   -0.527190
     27          8           0       -3.292856   -2.495519    0.118115
     28          8           0       -2.043977   -1.674901   -1.471857
 ---------------------------------------------------------------------

 SCF Done:  E(RHF) =  -868.337161372     A.U. after   16 cycles
 E2 =    -0.2600365112D+01 EUMP2 =    -0.87093752648411D+03

 The electronic state is 1-A.
 Alpha  occ. eigenvalues --  -20.60565 -20.60550 -20.59227 -20.59118 -15.85613
 Alpha  occ. eigenvalues --  -15.84236 -11.31078 -11.29835 -11.27676 -11.27640
 Alpha  occ. eigenvalues --  -11.27420 -11.26707 -11.26682 -11.26534 -11.26382
 Alpha  occ. eigenvalues --  -11.26370 -11.25621 -11.25563  -1.59614  -1.58231
 Alpha  occ. eigenvalues --   -1.39172  -1.37778  -1.19258  -1.18070  -1.08632
 Alpha  occ. eigenvalues --   -1.07438  -1.04678  -1.03524  -0.95452  -0.94224
 Alpha  occ. eigenvalues --   -0.86072  -0.84911  -0.82288  -0.81066  -0.77320
 Alpha  occ. eigenvalues --   -0.76039  -0.71834  -0.70940  -0.70476  -0.70370
 Alpha  occ. eigenvalues --   -0.69528  -0.69213  -0.64913  -0.64683  -0.63738
 Alpha  occ. eigenvalues --   -0.63562  -0.62027  -0.60858  -0.55176  -0.54078
 Alpha  occ. eigenvalues --   -0.53000  -0.52774  -0.51837  -0.51638  -0.48599
 Alpha  occ. eigenvalues --   -0.48571  -0.47263  -0.47170  -0.44552  -0.43106
 Alpha  occ. eigenvalues --   -0.37244  -0.36287  -0.36096  -0.35127
 Alpha virt. eigenvalues --    0.05224   0.06528   0.11366   0.12523   0.16697
 Alpha virt. eigenvalues --    0.17929   0.21477   0.22491   0.27382   0.28252
 Alpha virt. eigenvalues --    0.28461   0.29455   0.31024   0.31963   0.32605

 Mulliken charges:
               1
     1  C   -0.171143
     2  C   -0.218516
     3  C   -0.170733
     4  C    0.158991
     5  C   -0.171081
     6  C   -0.218487
     7  H    0.225062
     8  H    0.223387
     9  H    0.276721
    10  H    0.273420
    11  H    0.222434
    12  N    0.490013
    13  O   -0.462345
    14  O   -0.456210
    15  C   -0.171946
    16  C   -0.221466
    17  C   -0.161921
    18  C    0.159577
    19  C   -0.171003
    20  C   -0.219901
    21  H    0.219735
    22  H    0.217922
    23  H    0.284507
    24  H    0.272798
    25  H    0.218206
    26  N    0.490461
    27  O   -0.468309
    28  O   -0.450173
 Sum of Mulliken charges =  -0.00000

 Dipole moment (field-independent basis, Debye):
    X=              3.9038    Y=              6.0664    Z=              1.4486  Tot=              7.3580
 Quadrupole moment (field-independent basis, Debye-Ang):
   XX=            -66.3444   YY=           -106.4860   ZZ=            -99.7886
   XY=            -10.2421   XZ=             -4.6748   YZ=             -5.1380

 Normal termination of Gaussian 16 at Thu May  6 19:39:24 2021.
