 Gaussian 16, Revision A.03,
 Gaussian 16:  EM64L-G16RevA.03 25-Dec-2016

 -------------
 #p 6-31g* mp2
 -------------

 ------------------------------------------------------
 Input file generated by CHIRIPA (05-May-2021 14:53:12)
 ------------------------------------------------------
 Symbolic Z-matrix:
 Charge =  0 Multiplicity = 1

                         Standard orientation:
 ---------------------------------------------------------------------
 Center     Atomic      Atomic             Coordinates (Angstroms)
 Number     Number       Type             X           Y           Z
 ---------------------------------------------------------------------
      1          6           0       -2.653502    1.008545    0.102221
      2          6           0       -2.739039    1.818435   -1.191899
      3          6           0       -2.373662    3.289830   -0.993683
      4          1           0       -3.320578    1.455699    0.851893
      5          1           0       -1.634478    1.083018    0.506498
      6          1           0       -3.757227    1.741325   -1.594346
      7          1           0       -2.071826    1.369187   -1.938639
      8          1           0       -1.351009    3.385132   -0.614605
      9          1           0       -3.045986    3.759385   -0.268357
     10          1           0       -2.441490    3.850171   -1.931381
     11          6           0       -3.015887   -0.464303   -0.079779
     12          6           0       -2.930350   -1.274192    1.214341
     13          6           0       -3.295727   -2.745587    1.016125
     14          1           0       -4.034911   -0.538775   -0.484056
     15          1           0       -2.348811   -0.911457   -0.829451
     16          1           0       -3.597562   -0.824944    1.961080
     17          1           0       -1.912162   -1.197083    1.616788
     18          1           0       -2.623402   -3.215142    0.290798
     19          1           0       -4.318379   -2.840889    0.637047
     20          1           0       -3.227898   -3.305928    1.953823
     21          6           0        2.754311    1.094275    2.080906
     22          6           0        3.691873    1.009956    1.046310
     23          6           0        3.403604    0.288595   -0.116054
     24          6           0        2.162428   -0.338938   -0.210788
     25          6           0        1.207461   -0.273432    0.802640
     26          6           0        1.517279    0.453441    1.955990
     27          1           0        2.986615    1.656787    2.980357
     28          1           0        4.653372    1.506623    1.140573
     29          1           0        4.111034    0.206990   -0.932326
     30          1           0        0.257459   -0.779201    0.679707
     31          1           0        0.787228    0.517214    2.757865
     32          7           0        1.845845   -1.105529   -1.436559
     33          8           0        0.745217   -1.649381   -1.495564
     34          8           0        2.704328   -1.148014   -2.315103
 ---------------------------------------------------------------------

 SCF Done:  E(RHF) =  -669.535734397     A.U. after   15 cycles
 E2 =    -0.2093238157D+01 EUMP2 =    -0.67162897255338D+03

 The electronic state is 1-A.
 Alpha  occ. eigenvalues --  -20.60907 -20.60899 -15.85947 -11.31258 -11.27832
 Alpha  occ. eigenvalues --  -11.27797 -11.27561 -11.26837 -11.26823 -11.21847
 Alpha  occ. eigenvalues --  -11.21498 -11.21428 -11.21225 -11.21042 -11.21000
 Alpha  occ. eigenvalues --   -1.59970  -1.39526  -1.19435  -1.08836  -1.08442
 Alpha  occ. eigenvalues --   -1.04832  -1.03535  -0.95956  -0.95678  -0.86974
 Alpha  occ. eigenvalues --   -0.86229  -0.82516  -0.79613  -0.78260  -0.77566
 Alpha  occ. eigenvalues --   -0.72171  -0.71288  -0.70557  -0.65248  -0.65084
 Alpha  occ. eigenvalues --   -0.64704  -0.62163  -0.60915  -0.59328  -0.57574
 Alpha  occ. eigenvalues --   -0.55346  -0.55219  -0.53163  -0.52924  -0.52659
 Alpha  occ. eigenvalues --   -0.52370  -0.49892  -0.48932  -0.48917  -0.47921
 Alpha  occ. eigenvalues --   -0.46653  -0.45803  -0.45662  -0.44922  -0.43778
 Alpha  occ. eigenvalues --   -0.37411  -0.36408
 Alpha virt. eigenvalues --    0.04910   0.11197   0.16364   0.19473   0.23047
 Alpha virt. eigenvalues --    0.24111   0.25373   0.26987   0.27928   0.28069
 Alpha virt. eigenvalues --    0.29977   0.30783   0.31493   0.31799   0.32050

 Mulliken charges:
               1
     1  C   -0.299642
     2  C   -0.300874
     3  C   -0.475941
     4  H    0.147429
     5  H    0.141605
     6  H    0.152787
     7  H    0.159641
     8  H    0.153645
     9  H    0.153229
    10  H    0.161528
    11  C   -0.309158
    12  C   -0.299017
    13  C   -0.477879
    14  H    0.151428
    15  H    0.169938
    16  H    0.151641
    17  H    0.135800
    18  H    0.165480
    19  H    0.156818
    20  H    0.158108
    21  C   -0.170428
    22  C   -0.218898
    23  C   -0.170048
    24  C    0.157966
    25  C   -0.179027
    26  C   -0.222670
    27  H    0.226172
    28  H    0.223885
    29  H    0.275794
    30  H    0.289201
    31  H    0.225072
    32  N    0.488411
    33  O   -0.462822
    34  O   -0.459173
 Sum of Mulliken charges =  -0.00000

 Dipole moment (field-independent basis, Debye):
    X=              1.1272    Y=              2.6095    Z=              4.1345  Tot=              5.0174
 Quadrupole moment (field-independent basis, Debye-Ang):
   XX=            -84.7509   YY=            -98.1688   ZZ=            -96.4160
   XY=              6.6388   XZ=              7.5745   YZ=             -2.2899

 Normal termination of Gaussian 16 at Thu May  6 05:44:45 2021.
