 Gaussian 16, Revision A.03,
 Gaussian 16:  EM64L-G16RevA.03 25-Dec-2016

 -------------
 #p 6-31g* mp2
 -------------

 ------------------------------------------------------
 Input file generated by CHIRIPA (05-May-2021 14:57:22)
 ------------------------------------------------------
 Symbolic Z-matrix:
 Charge =  0 Multiplicity = 1

                         Standard orientation:
 ---------------------------------------------------------------------
 Center     Atomic      Atomic             Coordinates (Angstroms)
 Number     Number       Type             X           Y           Z
 ---------------------------------------------------------------------
      1          6           0       -6.329097   -0.414401   -0.294477
      2          6           0       -5.377707   -1.166409   -0.991515
      3          6           0       -4.012034   -0.935021   -0.801927
      4          6           0       -3.631353    0.060681    0.096376
      5          6           0       -4.555183    0.826655    0.805680
      6          6           0       -5.915527    0.577982    0.600319
      7          1           0       -7.387915   -0.600862   -0.447880
      8          1           0       -5.695989   -1.937751   -1.687053
      9          1           0       -3.254268   -1.502440   -1.328468
     10          1           0       -4.207332    1.588776    1.492403
     11          1           0       -6.652163    1.163549    1.143019
     12          7           0       -2.188397    0.314790    0.305433
     13          8           0       -1.878826    1.197738    1.102432
     14          8           0       -1.394300   -0.373798   -0.331664
     15          6           0        3.568187    2.434537   -0.568343
     16          6           0        2.459578    1.581729   -0.553336
     17          6           0        2.614535    0.220665   -0.273978
     18          6           0        3.898268   -0.255981   -0.012962
     19          6           0        5.022387    0.568391   -0.020503
     20          6           0        4.843805    1.926043   -0.302348
     21          1           0        3.438636    3.490520   -0.786320
     22          1           0        1.467732    1.973861   -0.759541
     23          1           0        1.773568   -0.461876   -0.255821
     24          1           0        5.998631    0.148277    0.188952
     25          1           0        5.706576    2.586004   -0.313318
     26          7           0        4.074819   -1.695072    0.284098
     27          8           0        5.216324   -2.090330    0.510762
     28          8           0        3.068354   -2.400525    0.284645
 ---------------------------------------------------------------------

 SCF Done:  E(RHF) =  -868.340568340     A.U. after   16 cycles
 E2 =    -0.2598450542D+01 EUMP2 =    -0.87093901888167D+03

 The electronic state is 1-A.
 Alpha  occ. eigenvalues --  -20.61548 -20.61517 -20.59717 -20.59694 -15.86538
 Alpha  occ. eigenvalues --  -15.84752 -11.31629 -11.29926 -11.28172 -11.28146
 Alpha  occ. eigenvalues --  -11.27863 -11.27125 -11.27103 -11.26594 -11.26285
 Alpha  occ. eigenvalues --  -11.26275 -11.25609 -11.25342  -1.60588  -1.58789
 Alpha  occ. eigenvalues --   -1.40144  -1.38344  -1.19776  -1.18106  -1.09226
 Alpha  occ. eigenvalues --   -1.07562  -1.05135  -1.03449  -0.96105  -0.94410
 Alpha  occ. eigenvalues --   -0.86547  -0.84879  -0.82944  -0.81225  -0.78019
 Alpha  occ. eigenvalues --   -0.76274  -0.72771  -0.71879  -0.70979  -0.70881
 Alpha  occ. eigenvalues --   -0.70110  -0.69231  -0.65432  -0.65137  -0.63754
 Alpha  occ. eigenvalues --   -0.63450  -0.62482  -0.60763  -0.55652  -0.54037
 Alpha  occ. eigenvalues --   -0.53481  -0.53223  -0.51844  -0.51523  -0.49536
 Alpha  occ. eigenvalues --   -0.49514  -0.47740  -0.47717  -0.45603  -0.43790
 Alpha  occ. eigenvalues --   -0.37743  -0.36725  -0.36144  -0.35052
 Alpha virt. eigenvalues --    0.04491   0.06209   0.10934   0.12580   0.16041
 Alpha virt. eigenvalues --    0.17717   0.21093   0.22719   0.27034   0.27931
 Alpha virt. eigenvalues --    0.28719   0.29582   0.30714   0.32148   0.32245

 Mulliken charges:
               1
     1  C   -0.169771
     2  C   -0.218646
     3  C   -0.170163
     4  C    0.157375
     5  C   -0.170451
     6  C   -0.218687
     7  H    0.227371
     8  H    0.225651
     9  H    0.277628
    10  H    0.275562
    11  H    0.224697
    12  N    0.490177
    13  O   -0.461256
    14  O   -0.465792
    15  C   -0.171858
    16  C   -0.220422
    17  C   -0.175246
    18  C    0.156800
    19  C   -0.172573
    20  C   -0.219785
    21  H    0.221222
    22  H    0.232044
    23  H    0.293959
    24  H    0.271163
    25  H    0.218233
    26  N    0.487726
    27  O   -0.465938
    28  O   -0.459022
 Sum of Mulliken charges =  -0.00000

 Dipole moment (field-independent basis, Debye):
    X=             -6.3507    Y=              4.1144    Z=             -1.7943  Tot=              7.7768
 Quadrupole moment (field-independent basis, Debye-Ang):
   XX=            -69.2535   YY=           -106.1742   ZZ=           -104.0704
   XY=             22.9108   XZ=             -2.0439   YZ=              3.0715

 Normal termination of Gaussian 16 at Wed May  5 17:47:39 2021.
