 Gaussian 16, Revision A.03,
 Gaussian 16:  EM64L-G16RevA.03 25-Dec-2016

 -------------
 #p 6-31g* mp2
 -------------

 ------------------------------------------------------
 Input file generated by CHIRIPA (05-May-2021 14:57:25)
 ------------------------------------------------------
 Symbolic Z-matrix:
 Charge =  0 Multiplicity = 1

                         Standard orientation:
 ---------------------------------------------------------------------
 Center     Atomic      Atomic             Coordinates (Angstroms)
 Number     Number       Type             X           Y           Z
 ---------------------------------------------------------------------
      1          6           0        2.815290    2.079779    0.973252
      2          6           0        1.990521    0.977977    0.723631
      3          6           0        2.525683   -0.208248    0.212730
      4          6           0        3.896051   -0.258055   -0.038074
      5          6           0        4.743810    0.822612    0.200156
      6          6           0        4.186884    1.998723    0.711180
      7          1           0        2.391110    2.997338    1.370181
      8          1           0        0.924971    1.038063    0.926206
      9          1           0        1.910136   -1.076301    0.010238
     10          1           0        5.802285    0.732551   -0.011825
     11          1           0        4.829816    2.852816    0.904071
     12          7           0        4.474123   -1.508504   -0.579007
     13          8           0        5.684557   -1.526917   -0.791486
     14          8           0        3.705836   -2.446516   -0.780269
     15          6           0       -4.886114   -2.076424    0.760047
     16          6           0       -3.641117   -1.688620    1.266118
     17          6           0       -3.030394   -0.511319    0.823930
     18          6           0       -3.695851    0.257731   -0.129495
     19          6           0       -4.936867   -0.101915   -0.652777
     20          6           0       -5.528884   -1.283232   -0.196100
     21          1           0       -5.353273   -2.992538    1.109177
     22          1           0       -3.139618   -2.302659    2.008748
     23          1           0       -2.067082   -0.187505    1.198886
     24          1           0       -5.412373    0.530878   -1.392295
     25          1           0       -6.495820   -1.581934   -0.590885
     26          7           0       -3.059208    1.506212   -0.605290
     27          8           0       -3.666088    2.166279   -1.445911
     28          8           0       -1.965383    1.801063   -0.128587
 ---------------------------------------------------------------------

 SCF Done:  E(RHF) =  -868.339249247     A.U. after   16 cycles
 E2 =    -0.2598682074D+01 EUMP2 =    -0.87093793132111D+03

 The electronic state is 1-A.
 Alpha  occ. eigenvalues --  -20.61567 -20.61513 -20.60457 -20.60449 -15.86585
 Alpha  occ. eigenvalues --  -15.85503 -11.31775 -11.30734 -11.28382 -11.28276
 Alpha  occ. eigenvalues --  -11.27984 -11.27292 -11.27281 -11.27264 -11.27252
 Alpha  occ. eigenvalues --  -11.26916 -11.26268 -11.26143  -1.60599  -1.59533
 Alpha  occ. eigenvalues --   -1.40166  -1.39091  -1.19918  -1.18870  -1.09335
 Alpha  occ. eigenvalues --   -1.08276  -1.05300  -1.04251  -0.96208  -0.95145
 Alpha  occ. eigenvalues --   -0.86705  -0.85641  -0.83055  -0.81983  -0.78136
 Alpha  occ. eigenvalues --   -0.77060  -0.72817  -0.71905  -0.71725  -0.71025
 Alpha  occ. eigenvalues --   -0.70853  -0.69960  -0.65578  -0.65297  -0.64515
 Alpha  occ. eigenvalues --   -0.64218  -0.62666  -0.61598  -0.55784  -0.54714
 Alpha  occ. eigenvalues --   -0.53626  -0.53392  -0.52587  -0.52322  -0.49577
 Alpha  occ. eigenvalues --   -0.49527  -0.48490  -0.48466  -0.45605  -0.44528
 Alpha  occ. eigenvalues --   -0.37867  -0.36892  -0.36819  -0.35852
 Alpha virt. eigenvalues --    0.04403   0.05461   0.10764   0.11811   0.15944
 Alpha virt. eigenvalues --    0.17009   0.19856   0.22001   0.25118   0.27211
 Alpha virt. eigenvalues --    0.28808   0.28888   0.30125   0.31208   0.32617

 Mulliken charges:
               1
     1  C   -0.171296
     2  C   -0.221846
     3  C   -0.173051
     4  C    0.158514
     5  C   -0.172215
     6  C   -0.218507
     7  H    0.229021
     8  H    0.237111
     9  H    0.270717
    10  H    0.273823
    11  H    0.222225
    12  N    0.488278
    13  O   -0.461446
    14  O   -0.463104
    15  C   -0.169782
    16  C   -0.218016
    17  C   -0.170521
    18  C    0.159210
    19  C   -0.170189
    20  C   -0.218032
    21  H    0.228429
    22  H    0.225605
    23  H    0.268283
    24  H    0.277004
    25  H    0.225892
    26  N    0.492045
    27  O   -0.455104
    28  O   -0.473048
 Sum of Mulliken charges =  -0.00000

 Dipole moment (field-independent basis, Debye):
    X=             -4.6802    Y=              0.0548    Z=              3.5630  Tot=              5.8823
 Quadrupole moment (field-independent basis, Debye-Ang):
   XX=            -96.6485   YY=           -109.2586   ZZ=           -104.8866
   XY=             35.7808   XZ=              4.4753   YZ=             -0.3952

 Normal termination of Gaussian 16 at Fri May  7 06:34:43 2021.
