 Gaussian 16, Revision A.03,
 Gaussian 16:  EM64L-G16RevA.03 25-Dec-2016

 -------------
 #p 6-31g* mp2
 -------------

 ------------------------------------------------------
 Input file generated by CHIRIPA (05-May-2021 14:51:13)
 ------------------------------------------------------
 Symbolic Z-matrix:
 Charge =  0 Multiplicity = 1

                         Standard orientation:
 ---------------------------------------------------------------------
 Center     Atomic      Atomic             Coordinates (Angstroms)
 Number     Number       Type             X           Y           Z
 ---------------------------------------------------------------------
      1          6           0       -3.159823   -0.569544    0.619125
      2          6           0       -2.280601   -1.615058   -0.067792
      3          6           0       -1.567822   -2.532980    0.925766
      4          1           0       -2.540206    0.032774    1.297530
      5          1           0       -3.903496   -1.080738    1.246042
      6          1           0       -1.539693   -1.102077   -0.694307
      7          1           0       -2.902347   -2.214833   -0.744784
      8          1           0       -2.294608   -3.070751    1.543169
      9          1           0       -0.924211   -1.951673    1.593933
     10          1           0       -0.944824   -3.272642    0.413287
     11          6           0       -3.879000    0.355603   -0.360985
     12          6           0       -4.758221    1.401117    0.325933
     13          6           0       -5.471000    2.319040   -0.667626
     14          1           0       -3.135326    0.866798   -0.987901
     15          1           0       -4.498616   -0.246715   -1.039390
     16          1           0       -4.136475    2.000892    1.002925
     17          1           0       -5.499130    0.888136    0.952448
     18          1           0       -6.114611    1.737732   -1.335793
     19          1           0       -4.744215    2.856810   -1.285029
     20          1           0       -6.093998    3.058701   -0.155147
     21          6           0        4.081490    0.566232    0.108791
     22          6           0        3.745983    2.052388   -0.020678
     23          6           0        4.880247    2.958470    0.459173
     24          1           0        4.314792    0.339589    1.158147
     25          1           0        4.992217    0.351542   -0.467298
     26          1           0        2.835380    2.263936    0.554358
     27          1           0        3.513267    2.275480   -1.069816
     28          1           0        5.790525    2.776388   -0.121207
     29          1           0        5.108787    2.764780    1.512195
     30          1           0        4.619163    4.016488    0.357724
     31          6           0        2.957332   -0.352292   -0.366931
     32          6           0        3.292839   -1.838447   -0.237462
     33          6           0        2.158576   -2.744528   -0.717313
     34          1           0        2.046605   -0.137601    0.209158
     35          1           0        2.724031   -0.125649   -1.416287
     36          1           0        3.525555   -2.061539    0.811675
     37          1           0        4.203442   -2.049996   -0.812498
     38          1           0        1.930035   -2.550838   -1.770335
     39          1           0        1.248297   -2.562448   -0.136934
     40          1           0        2.419659   -3.802548   -0.615864
 ---------------------------------------------------------------------

 SCF Done:  E(RHF) =  -470.733058508     A.U. after   11 cycles
 E2 =    -0.1582680868D+01 EUMP2 =    -0.47231573937581D+03

 The electronic state is 1-A.
 Alpha  occ. eigenvalues --  -11.21619 -11.21604 -11.21603 -11.21578 -11.21414
 Alpha  occ. eigenvalues --  -11.21409 -11.21355 -11.21349 -11.21085 -11.21080
 Alpha  occ. eigenvalues --  -11.21071 -11.20976  -1.08442  -1.08424  -1.03561
 Alpha  occ. eigenvalues --   -1.03499  -0.96039  -0.95926  -0.87074  -0.86927
 Alpha  occ. eigenvalues --   -0.79634  -0.79553  -0.78249  -0.78243  -0.65107
 Alpha  occ. eigenvalues --   -0.65026  -0.61054  -0.60836  -0.59395  -0.59325
 Alpha  occ. eigenvalues --   -0.57710  -0.57483  -0.55413  -0.55133  -0.52810
 Alpha  occ. eigenvalues --   -0.52639  -0.52464  -0.52240  -0.50032  -0.49781
 Alpha  occ. eigenvalues --   -0.47950  -0.47849  -0.46672  -0.46561  -0.45809
 Alpha  occ. eigenvalues --   -0.45772  -0.45708  -0.45702  -0.43799  -0.43750
 Alpha virt. eigenvalues --    0.21318   0.23150   0.23537   0.24976   0.26373
 Alpha virt. eigenvalues --    0.26859   0.27030   0.27541   0.27659   0.29091
 Alpha virt. eigenvalues --    0.30748   0.31307   0.31669   0.31791   0.32192

 Mulliken charges:
               1
     1  C   -0.298248
     2  C   -0.301064
     3  C   -0.480065
     4  H    0.149333
     5  H    0.149599
     6  H    0.153494
     7  H    0.152296
     8  H    0.155996
     9  H    0.153823
    10  H    0.164708
    11  C   -0.298350
    12  C   -0.299646
    13  C   -0.475718
    14  H    0.149742
    15  H    0.149712
    16  H    0.151870
    17  H    0.151911
    18  H    0.155195
    19  H    0.155238
    20  H    0.160239
    21  C   -0.298276
    22  C   -0.299608
    23  C   -0.475703
    24  H    0.149697
    25  H    0.149701
    26  H    0.151574
    27  H    0.151897
    28  H    0.155277
    29  H    0.155222
    30  H    0.160226
    31  C   -0.298394
    32  C   -0.299170
    33  C   -0.484716
    34  H    0.148862
    35  H    0.149507
    36  H    0.151814
    37  H    0.151703
    38  H    0.154502
    39  H    0.166233
    40  H    0.159588
 Sum of Mulliken charges =  -0.00000

 Dipole moment (field-independent basis, Debye):
    X=             -0.0224    Y=             -0.0138    Z=              0.0003  Tot=              0.0263
 Quadrupole moment (field-independent basis, Debye-Ang):
   XX=            -84.9244   YY=            -85.5122   ZZ=            -84.3632
   XY=              0.4603   XZ=             -0.8705   YZ=              0.1839

 Normal termination of Gaussian 16 at Wed May  5 19:58:23 2021.
