 Gaussian 16, Revision A.03,
 Gaussian 16:  EM64L-G16RevA.03 25-Dec-2016

 -------------
 #p 6-31g* mp2
 -------------

 ------------------------------------------------------
 Input file generated by CHIRIPA (05-May-2021 14:51:11)
 ------------------------------------------------------
 Symbolic Z-matrix:
 Charge =  0 Multiplicity = 1

                         Standard orientation:
 ---------------------------------------------------------------------
 Center     Atomic      Atomic             Coordinates (Angstroms)
 Number     Number       Type             X           Y           Z
 ---------------------------------------------------------------------
      1          6           0        2.541379   -1.350117   -0.220272
      2          6           0        1.340198   -1.628973    0.683823
      3          6           0        0.431424   -2.730087    0.136586
      4          1           0        2.182455   -1.068342   -1.219633
      5          1           0        3.119962   -2.275839   -0.345473
      6          1           0        0.764821   -0.702670    0.808402
      7          1           0        1.702021   -1.909930    1.681202
      8          1           0        0.985094   -3.668400    0.028787
      9          1           0        0.042569   -2.454280   -0.848972
     10          1           0       -0.420787   -2.913149    0.798465
     11          6           0        3.459248   -0.251742    0.313409
     12          6           0        4.660429    0.027114   -0.590687
     13          6           0        5.569203    1.128229   -0.043449
     14          1           0        2.880665    0.673980    0.438610
     15          1           0        3.818172   -0.533516    1.312770
     16          1           0        4.298607    0.308071   -1.588065
     17          1           0        5.235806   -0.899189   -0.715265
     18          1           0        5.958058    0.852422    0.942109
     19          1           0        5.015533    2.066541    0.064350
     20          1           0        6.421414    1.311291   -0.705328
     21          6           0       -2.762730    1.485370    0.195354
     22          6           0       -1.344946    1.831226   -0.260997
     23          6           0       -0.883849    3.203544    0.230865
     24          1           0       -3.455838    2.257656   -0.165371
     25          1           0       -2.804782    1.515659    1.292947
     26          1           0       -1.305236    1.798941   -1.357354
     27          1           0       -0.655161    1.057927    0.100693
     28          1           0       -0.894955    3.244387    1.324853
     29          1           0       -1.548723    3.989611   -0.141479
     30          1           0        0.132192    3.430479   -0.106806
     31          6           0       -3.237897    0.116488   -0.288491
     32          6           0       -4.655681   -0.229368    0.167861
     33          6           0       -5.116779   -1.601685   -0.324001
     34          1           0       -3.195845    0.086199   -1.386083
     35          1           0       -2.544789   -0.655797    0.072234
     36          1           0       -5.345466    0.543932   -0.193830
     37          1           0       -4.695391   -0.197082    1.264217
     38          1           0       -4.451903   -2.387753    0.048342
     39          1           0       -5.105671   -1.642528   -1.417989
     40          1           0       -6.132819   -1.828620    0.013670
 ---------------------------------------------------------------------

 SCF Done:  E(RHF) =  -470.733384705     A.U. after   11 cycles
 E2 =    -0.1583328433D+01 EUMP2 =    -0.47231671313814D+03

 The electronic state is 1-A.
 Alpha  occ. eigenvalues --  -11.21638 -11.21626 -11.21607 -11.21601 -11.21417
 Alpha  occ. eigenvalues --  -11.21417 -11.21357 -11.21352 -11.21119 -11.21106
 Alpha  occ. eigenvalues --  -11.21074 -11.21062  -1.08465  -1.08429  -1.03565
 Alpha  occ. eigenvalues --   -1.03535  -0.96004  -0.95987  -0.87030  -0.86994
 Alpha  occ. eigenvalues --   -0.79680  -0.79554  -0.78306  -0.78214  -0.65220
 Alpha  occ. eigenvalues --   -0.64954  -0.61069  -0.60835  -0.59377  -0.59354
 Alpha  occ. eigenvalues --   -0.57618  -0.57599  -0.55311  -0.55251  -0.52705
 Alpha  occ. eigenvalues --   -0.52685  -0.52442  -0.52401  -0.50028  -0.49861
 Alpha  occ. eigenvalues --   -0.48069  -0.47844  -0.46894  -0.46447  -0.45962
 Alpha  occ. eigenvalues --   -0.45772  -0.45756  -0.45407  -0.43801  -0.43801
 Alpha virt. eigenvalues --    0.20048   0.22909   0.23876   0.24084   0.26128
 Alpha virt. eigenvalues --    0.26795   0.27105   0.27380   0.28119   0.29556
 Alpha virt. eigenvalues --    0.30485   0.31545   0.31688   0.31773   0.32277

 Mulliken charges:
               1
     1  C   -0.297976
     2  C   -0.308092
     3  C   -0.476242
     4  H    0.150208
     5  H    0.149650
     6  H    0.158712
     7  H    0.152197
     8  H    0.155454
     9  H    0.156756
    10  H    0.159475
    11  C   -0.298654
    12  C   -0.299705
    13  C   -0.475710
    14  H    0.149597
    15  H    0.149648
    16  H    0.152051
    17  H    0.151961
    18  H    0.155185
    19  H    0.155212
    20  H    0.160283
    21  C   -0.297477
    22  C   -0.309272
    23  C   -0.475153
    24  H    0.149820
    25  H    0.149467
    26  H    0.151814
    27  H    0.160054
    28  H    0.155413
    29  H    0.155582
    30  H    0.159592
    31  C   -0.301334
    32  C   -0.299653
    33  C   -0.475701
    34  H    0.149254
    35  H    0.152981
    36  H    0.151932
    37  H    0.151863
    38  H    0.155441
    39  H    0.155176
    40  H    0.160194
 Sum of Mulliken charges =  -0.00000

 Dipole moment (field-independent basis, Debye):
    X=              0.0027    Y=             -0.0085    Z=             -0.0058  Tot=              0.0106
 Quadrupole moment (field-independent basis, Debye-Ang):
   XX=            -85.1363   YY=            -85.6475   ZZ=            -83.9485
   XY=             -1.6125   XZ=              0.2640   YZ=             -1.1865

 Normal termination of Gaussian 16 at Thu May  6 00:41:04 2021.
