 Gaussian 16, Revision A.03,
 Gaussian 16:  EM64L-G16RevA.03 25-Dec-2016

 -------------
 #p 6-31g* mp2
 -------------

 ------------------------------------------------------
 Input file generated by CHIRIPA (05-May-2021 14:51:07)
 ------------------------------------------------------
 Symbolic Z-matrix:
 Charge =  0 Multiplicity = 1

                         Standard orientation:
 ---------------------------------------------------------------------
 Center     Atomic      Atomic             Coordinates (Angstroms)
 Number     Number       Type             X           Y           Z
 ---------------------------------------------------------------------
      1          6           0        3.267964   -0.803732   -0.093814
      2          6           0        3.677462    0.601974    0.346965
      3          6           0        5.168425    0.874012    0.144929
      4          1           0        3.856293   -1.542898    0.466943
      5          1           0        3.525805   -0.937853   -1.153495
      6          1           0        3.417665    0.733884    1.405134
      7          1           0        3.087953    1.337875   -0.214769
      8          1           0        5.439471    0.769739   -0.910657
      9          1           0        5.771056    0.162316    0.718449
     10          1           0        5.439343    1.884471    0.466543
     11          6           0        1.780337   -1.090727    0.101966
     12          6           0        1.370839   -2.496434   -0.338812
     13          6           0       -0.120124   -2.768471   -0.136776
     14          1           0        1.522496   -0.956607    1.161648
     15          1           0        1.192008   -0.351562   -0.458791
     16          1           0        1.960347   -3.232335    0.222922
     17          1           0        1.630636   -2.628344   -1.396981
     18          1           0       -0.722755   -2.056775   -0.710297
     19          1           0       -0.391170   -2.664198    0.918810
     20          1           0       -0.391042   -3.778931   -0.458390
     21          6           0       -1.797861    1.176968   -0.060258
     22          6           0       -1.646108    2.697018   -0.126601
     23          6           0       -0.187354    3.141139   -0.238800
     24          1           0       -1.229752    0.795297    0.799117
     25          1           0       -1.345713    0.730843   -0.956879
     26          1           0       -2.099634    3.140236    0.769216
     27          1           0       -2.214801    3.075136   -0.985805
     28          1           0        0.273336    2.726257   -1.141151
     29          1           0        0.389157    2.791728    0.623841
     30          1           0       -0.102003    4.231302   -0.284839
     31          6           0       -3.250439    0.717491    0.052105
     32          6           0       -3.402193   -0.802559    0.118448
     33          6           0       -4.860947   -1.246679    0.230647
     34          1           0       -3.702588    1.163616    0.948727
     35          1           0       -3.818549    1.099163   -0.807269
     36          1           0       -2.833500   -1.180676    0.977653
     37          1           0       -2.948666   -1.245777   -0.777369
     38          1           0       -5.437458   -0.897268   -0.631994
     39          1           0       -5.321638   -0.831799    1.132999
     40          1           0       -4.946298   -2.336841    0.276686
 ---------------------------------------------------------------------

 SCF Done:  E(RHF) =  -470.732224306     A.U. after   11 cycles
 E2 =    -0.1584941727D+01 EUMP2 =    -0.47231716603302D+03

 The electronic state is 1-A.
 Alpha  occ. eigenvalues --  -11.21613 -11.21536 -11.21515 -11.21512 -11.21392
 Alpha  occ. eigenvalues --  -11.21330 -11.21327 -11.21257 -11.21090 -11.21025
 Alpha  occ. eigenvalues --  -11.21020 -11.20918  -1.08445  -1.08334  -1.03529
 Alpha  occ. eigenvalues --   -1.03440  -0.95969  -0.95903  -0.87030  -0.86880
 Alpha  occ. eigenvalues --   -0.79697  -0.79443  -0.78441  -0.77939  -0.65118
 Alpha  occ. eigenvalues --   -0.64933  -0.60965  -0.60812  -0.59367  -0.59274
 Alpha  occ. eigenvalues --   -0.57591  -0.57489  -0.55264  -0.55195  -0.52704
 Alpha  occ. eigenvalues --   -0.52598  -0.52519  -0.52183  -0.49979  -0.49809
 Alpha  occ. eigenvalues --   -0.48148  -0.47643  -0.46757  -0.46529  -0.46218
 Alpha  occ. eigenvalues --   -0.45817  -0.45479  -0.44960  -0.43763  -0.43706
 Alpha virt. eigenvalues --    0.21035   0.22567   0.23725   0.24017   0.24717
 Alpha virt. eigenvalues --    0.25724   0.26885   0.27718   0.29019   0.29962
 Alpha virt. eigenvalues --    0.30513   0.31108   0.31339   0.31891   0.32048

 Mulliken charges:
               1
     1  C   -0.298080
     2  C   -0.301673
     3  C   -0.475612
     4  H    0.149281
     5  H    0.149023
     6  H    0.151060
     7  H    0.154987
     8  H    0.154990
     9  H    0.154943
    10  H    0.160192
    11  C   -0.302266
    12  C   -0.299917
    13  C   -0.479119
    14  H    0.148037
    15  H    0.155640
    16  H    0.151137
    17  H    0.150942
    18  H    0.162209
    19  H    0.154159
    20  H    0.158760
    21  C   -0.301112
    22  C   -0.299829
    23  C   -0.477589
    24  H    0.153168
    25  H    0.149269
    26  H    0.152089
    27  H    0.151716
    28  H    0.154443
    29  H    0.157851
    30  H    0.160326
    31  C   -0.298361
    32  C   -0.302204
    33  C   -0.475421
    34  H    0.149251
    35  H    0.149046
    36  H    0.154988
    37  H    0.153901
    38  H    0.154626
    39  H    0.154700
    40  H    0.160451
 Sum of Mulliken charges =  -0.00000

 Dipole moment (field-independent basis, Debye):
    X=             -0.0423    Y=              0.0244    Z=              0.0067  Tot=              0.0493
 Quadrupole moment (field-independent basis, Debye-Ang):
   XX=            -87.0980   YY=            -85.1250   ZZ=            -82.8402
   XY=             -0.8026   XZ=              0.3924   YZ=             -0.1997

 Normal termination of Gaussian 16 at Thu May  6 09:59:32 2021.
