 Gaussian 16, Revision A.03,
 Gaussian 16:  EM64L-G16RevA.03 25-Dec-2016

 -------------
 #p 6-31g* mp2
 -------------

 ------------------------------------------------------
 Input file generated by CHIRIPA (05-May-2021 14:55:25)
 ------------------------------------------------------
 Symbolic Z-matrix:
 Charge =  0 Multiplicity = 1

                         Standard orientation:
 ---------------------------------------------------------------------
 Center     Atomic      Atomic             Coordinates (Angstroms)
 Number     Number       Type             X           Y           Z
 ---------------------------------------------------------------------
      1          6           0        2.068766    2.375875   -0.268404
      2          6           0        3.377285    2.193038   -0.727610
      3          6           0        3.965936    0.925104   -0.708109
      4          6           0        3.213875   -0.142602   -0.220563
      5          6           0        1.908090    0.007518    0.243849
      6          6           0        1.339630    1.284456    0.215007
      7          1           0        1.619330    3.364334   -0.287181
      8          1           0        3.945909    3.038826   -1.103580
      9          1           0        4.977116    0.755281   -1.057527
     10          1           0        1.366210   -0.854807    0.612874
     11          1           0        0.323225    1.423486    0.572270
     12          7           0        3.826366   -1.489673   -0.194974
     13          8           0        3.142733   -2.414111    0.239418
     14          8           0        4.978473   -1.595562   -0.609794
     15          6           0       -4.487770    0.198006   -0.202596
     16          6           0       -5.367529   -0.850109   -0.884846
     17          6           0       -6.369139   -0.235193   -1.862826
     18          1           0       -5.128144    0.915297    0.328779
     19          1           0       -3.948259    0.769707   -0.970372
     20          1           0       -5.904168   -1.420582   -0.115953
     21          1           0       -4.724977   -1.565099   -1.414500
     22          1           0       -5.848102    0.318226   -2.650766
     23          1           0       -7.033992    0.463564   -1.344841
     24          1           0       -6.987729   -1.002185   -2.339199
     25          6           0       -3.481329   -0.401301    0.778034
     26          6           0       -2.601571    0.646815    1.460283
     27          6           0       -1.599960    0.031898    2.438265
     28          1           0       -4.020840   -0.973002    1.545811
     29          1           0       -2.840956   -1.118592    0.246658
     30          1           0       -3.244122    1.361804    1.989938
     31          1           0       -2.064932    1.217288    0.691391
     32          1           0       -0.935107   -0.666859    1.920279
     33          1           0       -2.120998   -0.521521    3.226204
     34          1           0       -0.981370    0.798890    2.914638
 ---------------------------------------------------------------------

 SCF Done:  E(RHF) =  -669.535085709     A.U. after   15 cycles
 E2 =    -0.2092105589D+01 EUMP2 =    -0.67162719129826D+03

 The electronic state is 1-A.
 Alpha  occ. eigenvalues --  -20.60724 -20.60719 -15.85775 -11.31125 -11.27694
 Alpha  occ. eigenvalues --  -11.27676 -11.27424 -11.26711 -11.26632 -11.22622
 Alpha  occ. eigenvalues --  -11.22102 -11.22077 -11.22005 -11.21918 -11.21405
 Alpha  occ. eigenvalues --   -1.59799  -1.39353  -1.19293  -1.09109  -1.08691
 Alpha  occ. eigenvalues --   -1.04704  -1.04221  -0.96663  -0.95531  -0.87675
 Alpha  occ. eigenvalues --   -0.86095  -0.82363  -0.80308  -0.78870  -0.77419
 Alpha  occ. eigenvalues --   -0.71994  -0.71121  -0.70413  -0.65813  -0.64943
 Alpha  occ. eigenvalues --   -0.64701  -0.62300  -0.61378  -0.60037  -0.58256
 Alpha  occ. eigenvalues --   -0.55950  -0.55165  -0.53372  -0.53117  -0.53018
 Alpha  occ. eigenvalues --   -0.52718  -0.50607  -0.48756  -0.48752  -0.48601
 Alpha  occ. eigenvalues --   -0.47346  -0.46412  -0.46311  -0.44762  -0.44451
 Alpha  occ. eigenvalues --   -0.37278  -0.36289
 Alpha virt. eigenvalues --    0.05115   0.11332   0.16589   0.19210   0.22759
 Alpha virt. eigenvalues --    0.23824   0.25069   0.25772   0.26879   0.28066
 Alpha virt. eigenvalues --    0.28935   0.30089   0.31002   0.31438   0.31952

 Mulliken charges:
               1
     1  C   -0.173073
     2  C   -0.218516
     3  C   -0.171071
     4  C    0.159741
     5  C   -0.178053
     6  C   -0.227841
     7  H    0.225681
     8  H    0.223076
     9  H    0.275314
    10  H    0.277653
    11  H    0.239162
    12  N    0.488267
    13  O   -0.460677
    14  O   -0.460690
    15  C   -0.298889
    16  C   -0.300468
    17  C   -0.476105
    18  H    0.150335
    19  H    0.148725
    20  H    0.153365
    21  H    0.153975
    22  H    0.155234
    23  H    0.155329
    24  H    0.162240
    25  C   -0.298232
    26  C   -0.306432
    27  C   -0.484323
    28  H    0.153461
    29  H    0.151797
    30  H    0.156761
    31  H    0.144716
    32  H    0.154075
    33  H    0.165227
    34  H    0.160235
 Sum of Mulliken charges =  -0.00000

 Dipole moment (field-independent basis, Debye):
    X=             -2.3984    Y=              4.6834    Z=             -0.0325  Tot=              5.2619
 Quadrupole moment (field-independent basis, Debye-Ang):
   XX=           -104.6514   YY=            -96.0699   ZZ=            -94.3814
   XY=             17.8946   XZ=             -2.9937   YZ=             -1.6743

 Normal termination of Gaussian 16 at Thu May  6 19:22:39 2021.
