 Gaussian 16, Revision A.03,
 Gaussian 16:  EM64L-G16RevA.03 25-Dec-2016

 -------------
 #p 6-31g* mp2
 -------------

 ------------------------------------------------------
 Input file generated by CHIRIPA (05-May-2021 14:53:16)
 ------------------------------------------------------
 Symbolic Z-matrix:
 Charge =  0 Multiplicity = 1

                         Standard orientation:
 ---------------------------------------------------------------------
 Center     Atomic      Atomic             Coordinates (Angstroms)
 Number     Number       Type             X           Y           Z
 ---------------------------------------------------------------------
      1          6           0        4.999483   -0.559336   -0.055127
      2          6           0        6.333710    0.177446    0.067242
      3          6           0        7.483885   -0.745599    0.470826
      4          1           0        4.765108   -1.041930    0.903578
      5          1           0        5.100400   -1.365805   -0.794599
      6          1           0        6.229912    0.983165    0.805251
      7          1           0        6.564843    0.658502   -0.891809
      8          1           0        7.616166   -1.542153   -0.268501
      9          1           0        7.279333   -1.215645    1.438202
     10          1           0        8.428153   -0.198287    0.552481
     11          6           0        3.839972    0.350061   -0.457943
     12          6           0        2.505745   -0.386720   -0.580312
     13          6           0        1.355570    0.536325   -0.983897
     14          1           0        3.739055    1.156530    0.281529
     15          1           0        4.074347    0.832656   -1.416649
     16          1           0        2.274612   -0.867776    0.378739
     17          1           0        2.609543   -1.192440   -1.318322
     18          1           0        1.560123    1.006370   -1.951273
     19          1           0        1.223289    1.332878   -0.244570
     20          1           0        0.411302   -0.010988   -1.065551
     21          6           0       -1.802405    1.923439    0.700344
     22          6           0       -1.566661    0.626317    1.167700
     23          6           0       -2.474308   -0.401926    0.896705
     24          6           0       -3.612477   -0.096300    0.152087
     25          6           0       -3.875375    1.185983   -0.327417
     26          6           0       -2.953980    2.198647   -0.044410
     27          1           0       -1.091984    2.716152    0.915525
     28          1           0       -0.673181    0.409681    1.746326
     29          1           0       -2.316526   -1.415000    1.246282
     30          1           0       -4.774979    1.371307   -0.901686
     31          1           0       -3.139654    3.205077   -0.408647
     32          7           0       -4.580640   -1.176608   -0.141162
     33          8           0       -5.575820   -0.881491   -0.799309
     34          8           0       -4.325973   -2.298016    0.292691
 ---------------------------------------------------------------------

 SCF Done:  E(RHF) =  -669.534714920     A.U. after   15 cycles
 E2 =    -0.2092114678D+01 EUMP2 =    -0.67162682959745D+03

 The electronic state is 1-A.
 Alpha  occ. eigenvalues --  -20.60757 -20.60752 -15.85811 -11.31179 -11.27732
 Alpha  occ. eigenvalues --  -11.27726 -11.27464 -11.26758 -11.26742 -11.22184
 Alpha  occ. eigenvalues --  -11.21980 -11.21917 -11.21797 -11.21646 -11.21382
 Alpha  occ. eigenvalues --   -1.59833  -1.39386  -1.19349  -1.08919  -1.08740
 Alpha  occ. eigenvalues --   -1.04757  -1.04006  -0.96457  -0.95575  -0.87478
 Alpha  occ. eigenvalues --   -0.86141  -0.82409  -0.80075  -0.78720  -0.77457
 Alpha  occ. eigenvalues --   -0.72029  -0.71156  -0.70454  -0.65566  -0.64999
 Alpha  occ. eigenvalues --   -0.64756  -0.62119  -0.61397  -0.59826  -0.58062
 Alpha  occ. eigenvalues --   -0.55776  -0.55249  -0.53474  -0.52892  -0.52844
 Alpha  occ. eigenvalues --   -0.52699  -0.50398  -0.48787  -0.48783  -0.48387
 Alpha  occ. eigenvalues --   -0.47125  -0.46262  -0.46189  -0.44792  -0.44253
 Alpha  occ. eigenvalues --   -0.37273  -0.36314
 Alpha virt. eigenvalues --    0.05048   0.11278   0.16486   0.20247   0.22625
 Alpha virt. eigenvalues --    0.23971   0.25932   0.26478   0.27015   0.27818
 Alpha virt. eigenvalues --    0.28583   0.30211   0.31144   0.31391   0.31856

 Mulliken charges:
               1
     1  C   -0.298469
     2  C   -0.299836
     3  C   -0.475938
     4  H    0.149163
     5  H    0.151414
     6  H    0.151104
     7  H    0.152628
     8  H    0.156243
     9  H    0.155344
    10  H    0.161102
    11  C   -0.297908
    12  C   -0.300736
    13  C   -0.476069
    14  H    0.146298
    15  H    0.151273
    16  H    0.147097
    17  H    0.156182
    18  H    0.156996
    19  H    0.142795
    20  H    0.168128
    21  C   -0.168431
    22  C   -0.213776
    23  C   -0.174109
    24  C    0.158712
    25  C   -0.171294
    26  C   -0.218909
    27  H    0.225199
    28  H    0.224186
    29  H    0.275453
    30  H    0.275512
    31  H    0.223491
    32  N    0.488089
    33  O   -0.460424
    34  O   -0.460511
 Sum of Mulliken charges =  -0.00000

 Dipole moment (field-independent basis, Debye):
    X=              3.4707    Y=              3.7902    Z=              0.9744  Tot=              5.2307
 Quadrupole moment (field-independent basis, Debye-Ang):
   XX=           -118.8924   YY=            -94.0563   ZZ=            -92.8622
   XY=            -16.0533   XZ=             -2.1586   YZ=             -1.0267

 Normal termination of Gaussian 16 at Thu May  6 15:33:32 2021.
