 Gaussian 16, Revision A.03,
 Gaussian 16:  EM64L-G16RevA.03 25-Dec-2016

 -------------
 #p 6-31g* mp2
 -------------

 ------------------------------------------------------
 Input file generated by CHIRIPA (05-May-2021 14:57:25)
 ------------------------------------------------------
 Symbolic Z-matrix:
 Charge =  0 Multiplicity = 1

                         Standard orientation:
 ---------------------------------------------------------------------
 Center     Atomic      Atomic             Coordinates (Angstroms)
 Number     Number       Type             X           Y           Z
 ---------------------------------------------------------------------
      1          6           0       -3.337328    2.267160    0.673714
      2          6           0       -2.231293    1.703373    0.029235
      3          6           0       -2.256732    0.369425   -0.388475
      4          6           0       -3.409729   -0.375119   -0.144460
      5          6           0       -4.527716    0.158028    0.495188
      6          6           0       -4.479994    1.494051    0.904228
      7          1           0       -3.308911    3.304209    0.994833
      8          1           0       -1.342540    2.301401   -0.151112
      9          1           0       -1.414611   -0.092247   -0.889583
     10          1           0       -5.399509   -0.463185    0.660983
     11          1           0       -5.340436    1.929253    1.404511
     12          7           0       -3.448455   -1.788409   -0.582081
     13          8           0       -4.476201   -2.423187   -0.355298
     14          8           0       -2.450328   -2.234606   -1.143586
     15          6           0        2.327902    2.288260   -0.704666
     16          6           0        1.825492    1.619401    0.416375
     17          6           0        2.413445    0.429568    0.855872
     18          6           0        3.507317   -0.065282    0.147453
     19          6           0        4.030875    0.577937   -0.973015
     20          6           0        3.427051    1.766314   -1.394567
     21          1           0        1.865001    3.211985   -1.039109
     22          1           0        0.971992    2.022423    0.954108
     23          1           0        2.044787   -0.108695    1.720615
     24          1           0        4.882893    0.151648   -1.488534
     25          1           0        3.819356    2.283614   -2.265510
     26          7           0        4.138156   -1.324134    0.603230
     27          8           0        5.100839   -1.739383   -0.038212
     28          8           0        3.657981   -1.871738    1.593280
 ---------------------------------------------------------------------

 SCF Done:  E(RHF) =  -868.336591505     A.U. after   16 cycles
 E2 =    -0.2600227263D+01 EUMP2 =    -0.87093681876777D+03

 The electronic state is 1-A.
 Alpha  occ. eigenvalues --  -20.61047 -20.61040 -20.60968 -20.60962 -15.86108
 Alpha  occ. eigenvalues --  -15.86030 -11.31640 -11.31600 -11.28271 -11.28232
 Alpha  occ. eigenvalues --  -11.28232 -11.28184 -11.28077 -11.28072 -11.27397
 Alpha  occ. eigenvalues --  -11.27362 -11.27261 -11.27240  -1.60119  -1.60037
 Alpha  occ. eigenvalues --   -1.39667  -1.39585  -1.19857  -1.19816  -1.09227
 Alpha  occ. eigenvalues --   -1.09188  -1.05312  -1.05232  -0.96019  -0.95979
 Alpha  occ. eigenvalues --   -0.86733  -0.86612  -0.82872  -0.82788  -0.77907
 Alpha  occ. eigenvalues --   -0.77763  -0.72321  -0.72247  -0.71447  -0.71360
 Alpha  occ. eigenvalues --   -0.70964  -0.70946  -0.65572  -0.65508  -0.65458
 Alpha  occ. eigenvalues --   -0.65086  -0.62759  -0.62445  -0.55819  -0.55776
 Alpha  occ. eigenvalues --   -0.53656  -0.53554  -0.53504  -0.53194  -0.49098
 Alpha  occ. eigenvalues --   -0.49065  -0.49020  -0.48985  -0.45035  -0.44945
 Alpha  occ. eigenvalues --   -0.37861  -0.37832  -0.36987  -0.36765
 Alpha virt. eigenvalues --    0.04645   0.04777   0.10588   0.10761   0.15978
 Alpha virt. eigenvalues --    0.16235   0.19144   0.21868   0.25280   0.27427
 Alpha virt. eigenvalues --    0.27795   0.28440   0.30276   0.30929   0.31791

 Mulliken charges:
               1
     1  C   -0.170667
     2  C   -0.222718
     3  C   -0.171532
     4  C    0.159145
     5  C   -0.169371
     6  C   -0.218510
     7  H    0.224926
     8  H    0.214493
     9  H    0.278839
    10  H    0.277864
    11  H    0.225221
    12  N    0.488011
    13  O   -0.458867
    14  O   -0.457826
    15  C   -0.172860
    16  C   -0.225446
    17  C   -0.169724
    18  C    0.159863
    19  C   -0.169037
    20  C   -0.217821
    21  H    0.222227
    22  H    0.219078
    23  H    0.278982
    24  H    0.278307
    25  H    0.225369
    26  N    0.488274
    27  O   -0.458556
    28  O   -0.457665
 Sum of Mulliken charges =  -0.00000

 Dipole moment (field-independent basis, Debye):
    X=             -2.0250    Y=              9.1602    Z=             -0.0798  Tot=              9.3817
 Quadrupole moment (field-independent basis, Debye-Ang):
   XX=           -113.7968   YY=           -110.7127   ZZ=           -103.2588
   XY=             -0.7151   XZ=            -16.2856   YZ=             -1.0311

 Normal termination of Gaussian 16 at Thu May  6 01:56:53 2021.
