 Gaussian 16, Revision A.03,
 Gaussian 16:  EM64L-G16RevA.03 25-Dec-2016

 -------------
 #p 6-31g* mp2
 -------------

 ------------------------------------------------------
 Input file generated by CHIRIPA (05-May-2021 14:53:15)
 ------------------------------------------------------
 Symbolic Z-matrix:
 Charge =  0 Multiplicity = 1

                         Standard orientation:
 ---------------------------------------------------------------------
 Center     Atomic      Atomic             Coordinates (Angstroms)
 Number     Number       Type             X           Y           Z
 ---------------------------------------------------------------------
      1          6           0        3.252853   -0.437287   -0.623375
      2          6           0        3.456953   -1.611494    0.334521
      3          6           0        3.635844   -2.944086   -0.393482
      4          1           0        2.373877   -0.633987   -1.252387
      5          1           0        4.114670   -0.372640   -1.301967
      6          1           0        2.595652   -1.673057    1.012007
      7          1           0        4.335433   -1.411888    0.961456
      8          1           0        4.506308   -2.907062   -1.056446
      9          1           0        2.756643   -3.169715   -1.005608
     10          1           0        3.780242   -3.769784    0.310246
     11          6           0        3.072550    0.901776    0.089457
     12          6           0        2.868450    2.075983   -0.868439
     13          6           0        2.689560    3.408575   -0.140436
     14          1           0        2.210733    0.837129    0.768049
     15          1           0        3.951526    1.098476    0.718469
     16          1           0        1.989971    1.876377   -1.495374
     17          1           0        3.729751    2.137546   -1.545925
     18          1           0        3.568761    3.634204    0.471690
     19          1           0        1.819095    3.371551    0.522528
     20          1           0        2.545162    4.234273   -0.844164
     21          6           0       -4.332722   -0.016499   -1.486192
     22          6           0       -4.533291    0.439914   -0.179295
     23          6           0       -3.508768    0.353498    0.768035
     24          6           0       -2.290863   -0.197387    0.372404
     25          6           0       -2.060311   -0.660803   -0.921961
     26          6           0       -3.099047   -0.564434   -1.852708
     27          1           0       -5.134116    0.054497   -2.215659
     28          1           0       -5.490340    0.865907    0.108163
     29          1           0       -3.636936    0.699179    1.786610
     30          1           0       -1.095327   -1.080616   -1.178828
     31          1           0       -2.940441   -0.919693   -2.866947
     32          7           0       -1.198722   -0.294140    1.366521
     33          8           0       -0.134992   -0.783554    0.992908
     34          8           0       -1.427114    0.121272    2.500500
 ---------------------------------------------------------------------

 SCF Done:  E(RHF) =  -669.536438375     A.U. after   15 cycles
 E2 =    -0.2092286764D+01 EUMP2 =    -0.67162872513912D+03

 The electronic state is 1-A.
 Alpha  occ. eigenvalues --  -20.61138 -20.61132 -15.86152 -11.31400 -11.27954
 Alpha  occ. eigenvalues --  -11.27949 -11.27676 -11.26942 -11.26933 -11.20823
 Alpha  occ. eigenvalues --  -11.20410 -11.20333 -11.20249 -11.20157 -11.20122
 Alpha  occ. eigenvalues --   -1.60188  -1.39748  -1.19560  -1.08979  -1.07347
 Alpha  occ. eigenvalues --   -1.04944  -1.02567  -0.95834  -0.95039  -0.86349
 Alpha  occ. eigenvalues --   -0.86069  -0.82673  -0.78622  -0.77736  -0.77143
 Alpha  occ. eigenvalues --   -0.72396  -0.71495  -0.70669  -0.65229  -0.64946
 Alpha  occ. eigenvalues --   -0.63921  -0.62293  -0.59955  -0.58423  -0.56651
 Alpha  occ. eigenvalues --   -0.55452  -0.54332  -0.53278  -0.53036  -0.51788
 Alpha  occ. eigenvalues --   -0.51479  -0.49174  -0.49138  -0.48981  -0.46961
 Alpha  occ. eigenvalues --   -0.45689  -0.45170  -0.44739  -0.44375  -0.42783
 Alpha  occ. eigenvalues --   -0.37532  -0.36541
 Alpha virt. eigenvalues --    0.04759   0.11111   0.16253   0.20866   0.23486
 Alpha virt. eigenvalues --    0.25016   0.26425   0.27440   0.28476   0.28817
 Alpha virt. eigenvalues --    0.29206   0.31072   0.31912   0.32583   0.32695

 Mulliken charges:
               1
     1  C   -0.291403
     2  C   -0.308738
     3  C   -0.473884
     4  H    0.143083
     5  H    0.142066
     6  H    0.179224
     7  H    0.146753
     8  H    0.149923
     9  H    0.149947
    10  H    0.158195
    11  C   -0.306381
    12  C   -0.297923
    13  C   -0.475068
    14  H    0.171920
    15  H    0.145353
    16  H    0.145492
    17  H    0.147910
    18  H    0.154928
    19  H    0.156480
    20  H    0.155367
    21  C   -0.170257
    22  C   -0.218605
    23  C   -0.170203
    24  C    0.157301
    25  C   -0.171095
    26  C   -0.218583
    27  H    0.226494
    28  H    0.224233
    29  H    0.276076
    30  H    0.276169
    31  H    0.224459
    32  N    0.493610
    33  O   -0.465413
    34  O   -0.457430
 Sum of Mulliken charges =  -0.00000

 Dipole moment (field-independent basis, Debye):
    X=             -4.2221    Y=              0.2992    Z=             -3.2552  Tot=              5.3396
 Quadrupole moment (field-independent basis, Debye-Ang):
   XX=            -75.6775   YY=            -96.5631   ZZ=            -95.4911
   XY=             -1.1574   XZ=              5.1318   YZ=              2.1104

 Normal termination of Gaussian 16 at Thu May  6 13:48:38 2021.
