 Gaussian 16, Revision A.03,
 Gaussian 16:  EM64L-G16RevA.03 25-Dec-2016

 -------------
 #p 6-31g* mp2
 -------------

 ------------------------------------------------------
 Input file generated by CHIRIPA (05-May-2021 14:55:23)
 ------------------------------------------------------
 Symbolic Z-matrix:
 Charge =  0 Multiplicity = 1

                         Standard orientation:
 ---------------------------------------------------------------------
 Center     Atomic      Atomic             Coordinates (Angstroms)
 Number     Number       Type             X           Y           Z
 ---------------------------------------------------------------------
      1          6           0       -4.473144    1.676039    0.951492
      2          6           0       -4.744486    0.306337    0.868958
      3          6           0       -3.882464   -0.547663    0.174587
      4          6           0       -2.753126    0.004324   -0.428071
      5          6           0       -2.455513    1.364678   -0.363633
      6          6           0       -3.331536    2.199914    0.336019
      7          1           0       -5.148221    2.332158    1.492948
      8          1           0       -5.630326   -0.103290    1.345967
      9          1           0       -4.068467   -1.611846    0.094991
     10          1           0       -1.564595    1.743742   -0.849424
     11          1           0       -3.118287    3.263244    0.398471
     12          7           0       -1.833131   -0.889835   -1.165966
     13          8           0       -0.844826   -0.378821   -1.688225
     14          8           0       -2.117764   -2.084760   -1.208096
     15          6           0        3.061238   -0.557274    0.250351
     16          6           0        2.488476   -1.274635    1.473184
     17          6           0        1.174323   -1.996395    1.173420
     18          1           0        2.321860    0.164338   -0.123201
     19          1           0        3.218749   -1.288451   -0.554612
     20          1           0        2.333388   -0.542556    2.276069
     21          1           0        3.229379   -1.994487    1.843983
     22          1           0        1.317444   -2.747740    0.390095
     23          1           0        0.416362   -1.287560    0.824636
     24          1           0        0.782586   -2.502374    2.061332
     25          6           0        4.374928    0.168942    0.534180
     26          6           0        4.947690    0.886303   -0.688653
     27          6           0        6.261843    1.608064   -0.388890
     28          1           0        4.217416    0.900120    1.339142
     29          1           0        5.114306   -0.552670    0.907732
     30          1           0        4.206787    1.606156   -1.059453
     31          1           0        5.102778    0.154225   -1.491539
     32          1           0        7.019804    0.899228   -0.040106
     33          1           0        6.118722    2.359409    0.394435
     34          1           0        6.653580    2.114043   -1.276802
 ---------------------------------------------------------------------

 SCF Done:  E(RHF) =  -669.535719748     A.U. after   15 cycles
 E2 =    -0.2091573795D+01 EUMP2 =    -0.67162729354318D+03

 The electronic state is 1-A.
 Alpha  occ. eigenvalues --  -20.60865 -20.60851 -15.85881 -11.31251 -11.27823
 Alpha  occ. eigenvalues --  -11.27811 -11.27560 -11.26833 -11.26822 -11.21070
 Alpha  occ. eigenvalues --  -11.20853 -11.20779 -11.20670 -11.20512 -11.20125
 Alpha  occ. eigenvalues --   -1.59921  -1.39475  -1.19422  -1.08820  -1.07743
 Alpha  occ. eigenvalues --   -1.04824  -1.02862  -0.95656  -0.95298  -0.86311
 Alpha  occ. eigenvalues --   -0.86223  -0.82488  -0.78937  -0.77549  -0.77506
 Alpha  occ. eigenvalues --   -0.72110  -0.71255  -0.70530  -0.65076  -0.64827
 Alpha  occ. eigenvalues --   -0.64384  -0.62171  -0.60270  -0.58681  -0.56899
 Alpha  occ. eigenvalues --   -0.55326  -0.54587  -0.53154  -0.52916  -0.52020
 Alpha  occ. eigenvalues --   -0.51697  -0.49241  -0.48874  -0.48872  -0.47233
 Alpha  occ. eigenvalues --   -0.45999  -0.45154  -0.45021  -0.44711  -0.43109
 Alpha  occ. eigenvalues --   -0.37403  -0.36426
 Alpha virt. eigenvalues --    0.04981   0.11222   0.16440   0.21336   0.23483
 Alpha virt. eigenvalues --    0.24914   0.27066   0.27367   0.27922   0.28496
 Alpha virt. eigenvalues --    0.28558   0.30834   0.31911   0.32352   0.32475

 Mulliken charges:
               1
     1  C   -0.170657
     2  C   -0.218552
     3  C   -0.170552
     4  C    0.156945
     5  C   -0.171567
     6  C   -0.218477
     7  H    0.225841
     8  H    0.223734
     9  H    0.276024
    10  H    0.275390
    11  H    0.223607
    12  N    0.488171
    13  O   -0.459312
    14  O   -0.457765
    15  C   -0.297906
    16  C   -0.300352
    17  C   -0.471981
    18  H    0.154950
    19  H    0.153740
    20  H    0.145954
    21  H    0.149195
    22  H    0.164446
    23  H    0.152668
    24  H    0.153590
    25  C   -0.298054
    26  C   -0.298814
    27  C   -0.475262
    28  H    0.145607
    29  H    0.147876
    30  H    0.151399
    31  H    0.153601
    32  H    0.154520
    33  H    0.153016
    34  H    0.158975
 Sum of Mulliken charges =  -0.00000

 Dipole moment (field-independent basis, Debye):
    X=             -3.4142    Y=              3.0744    Z=              2.4558  Tot=              5.2095
 Quadrupole moment (field-independent basis, Debye-Ang):
   XX=            -76.8223   YY=            -91.4275   ZZ=            -97.7937
   XY=             -7.4271   XZ=             -7.2626   YZ=             -1.8973

 Normal termination of Gaussian 16 at Thu May  6 12:38:42 2021.
