 Gaussian 16, Revision A.03,
 Gaussian 16:  EM64L-G16RevA.03 25-Dec-2016

 -------------
 #p 6-31g* mp2
 -------------

 ------------------------------------------------------
 Input file generated by CHIRIPA (05-May-2021 14:55:20)
 ------------------------------------------------------
 Symbolic Z-matrix:
 Charge =  0 Multiplicity = 1

                         Standard orientation:
 ---------------------------------------------------------------------
 Center     Atomic      Atomic             Coordinates (Angstroms)
 Number     Number       Type             X           Y           Z
 ---------------------------------------------------------------------
      1          6           0        1.210575   -1.867375    0.092323
      2          6           0        2.024954   -1.701233   -1.032712
      3          6           0        2.983617   -0.684365   -1.071353
      4          6           0        3.101424    0.152028    0.037637
      5          6           0        2.304900    0.011926    1.173071
      6          6           0        1.352896   -1.011774    1.189690
      7          1           0        0.468449   -2.659956    0.113787
      8          1           0        1.916644   -2.364218   -1.886389
      9          1           0        3.627195   -0.533305   -1.929494
     10          1           0        2.436249    0.688477    2.008800
     11          1           0        0.721813   -1.138451    2.064751
     12          7           0        4.112793    1.232156    0.008387
     13          8           0        4.196842    1.955802    0.998291
     14          8           0        4.802304    1.334663   -1.003890
     15          6           0       -3.688808    0.774810   -0.224554
     16          6           0       -4.971401    1.571674    0.016172
     17          6           0       -4.820265    3.053513   -0.328940
     18          1           0       -2.876271    1.210817    0.372627
     19          1           0       -3.393110    0.878658   -1.277728
     20          1           0       -5.265352    1.465225    1.068254
     21          1           0       -5.781025    1.133601   -0.581504
     22          1           0       -4.550119    3.178071   -1.382556
     23          1           0       -4.031515    3.511579    0.276576
     24          1           0       -5.748857    3.604275   -0.149396
     25          6           0       -3.824122   -0.708273    0.115861
     26          6           0       -2.541529   -1.505137   -0.124864
     27          6           0       -2.692666   -2.986977    0.220248
     28          1           0       -4.119819   -0.812122    1.169035
     29          1           0       -4.636659   -1.144280   -0.481319
     30          1           0       -1.731904   -1.067065    0.472813
     31          1           0       -2.247578   -1.398689   -1.176947
     32          1           0       -3.481415   -3.445044   -0.385269
     33          1           0       -2.962811   -3.111535    1.273864
     34          1           0       -1.764073   -3.537739    0.040704
 ---------------------------------------------------------------------

 SCF Done:  E(RHF) =  -669.534891756     A.U. after   15 cycles
 E2 =    -0.2092426970D+01 EUMP2 =    -0.67162731872556D+03

 The electronic state is 1-A.
 Alpha  occ. eigenvalues --  -20.60747 -20.60742 -15.85802 -11.31161 -11.27749
 Alpha  occ. eigenvalues --  -11.27745 -11.27444 -11.26745 -11.26728 -11.22505
 Alpha  occ. eigenvalues --  -11.22250 -11.22080 -11.21999 -11.21874 -11.21354
 Alpha  occ. eigenvalues --   -1.59823  -1.39377  -1.19342  -1.09089  -1.08728
 Alpha  occ. eigenvalues --   -1.04749  -1.04222  -0.96680  -0.95564  -0.87683
 Alpha  occ. eigenvalues --   -0.86146  -0.82405  -0.80291  -0.78841  -0.77451
 Alpha  occ. eigenvalues --   -0.72020  -0.71147  -0.70479  -0.65724  -0.64991
 Alpha  occ. eigenvalues --   -0.64757  -0.62108  -0.61596  -0.60143  -0.58310
 Alpha  occ. eigenvalues --   -0.55943  -0.55195  -0.53375  -0.53101  -0.53030
 Alpha  occ. eigenvalues --   -0.52839  -0.50589  -0.48782  -0.48775  -0.48597
 Alpha  occ. eigenvalues --   -0.47314  -0.46389  -0.46285  -0.44784  -0.44461
 Alpha  occ. eigenvalues --   -0.37264  -0.36350
 Alpha virt. eigenvalues --    0.05078   0.11171   0.16531   0.19685   0.22609
 Alpha virt. eigenvalues --    0.23999   0.25520   0.26173   0.26700   0.27562
 Alpha virt. eigenvalues --    0.29034   0.29907   0.30876   0.31592   0.32079

 Mulliken charges:
               1
     1  C   -0.169679
     2  C   -0.222089
     3  C   -0.170363
     4  C    0.158051
     5  C   -0.171170
     6  C   -0.222325
     7  H    0.234491
     8  H    0.223510
     9  H    0.275548
    10  H    0.275432
    11  H    0.223344
    12  N    0.488075
    13  O   -0.460627
    14  O   -0.460530
    15  C   -0.298618
    16  C   -0.300242
    17  C   -0.476122
    18  H    0.150452
    19  H    0.151147
    20  H    0.152003
    21  H    0.152454
    22  H    0.156241
    23  H    0.156419
    24  H    0.161534
    25  C   -0.298651
    26  C   -0.304625
    27  C   -0.479998
    28  H    0.149727
    29  H    0.151470
    30  H    0.151541
    31  H    0.153924
    32  H    0.161951
    33  H    0.157959
    34  H    0.149765
 Sum of Mulliken charges =  -0.00000

 Dipole moment (field-independent basis, Debye):
    X=             -3.7189    Y=             -3.7356    Z=              0.0639  Tot=              5.2715
 Quadrupole moment (field-independent basis, Debye-Ang):
   XX=           -116.6182   YY=            -97.4130   ZZ=            -89.7603
   XY=            -12.8453   XZ=             -0.9454   YZ=              1.8492

 Normal termination of Gaussian 16 at Thu May  6 01:21:44 2021.
