 Gaussian 16, Revision A.03,
 Gaussian 16:  EM64L-G16RevA.03 25-Dec-2016

 -------------
 #p 6-31g* mp2
 -------------

 ------------------------------------------------------
 Input file generated by CHIRIPA (05-May-2021 14:53:15)
 ------------------------------------------------------
 Symbolic Z-matrix:
 Charge =  0 Multiplicity = 1

                         Standard orientation:
 ---------------------------------------------------------------------
 Center     Atomic      Atomic             Coordinates (Angstroms)
 Number     Number       Type             X           Y           Z
 ---------------------------------------------------------------------
      1          6           0       -4.191857    0.248350    0.004966
      2          6           0       -3.120704   -0.387903    0.891417
      3          6           0       -1.705706    0.057374    0.520871
      4          1           0       -3.988880   -0.005943   -1.044358
      5          1           0       -4.118848    1.342078    0.081283
      6          1           0       -3.196609   -1.480122    0.814521
      7          1           0       -3.326363   -0.132224    1.938770
      8          1           0       -1.606453    1.143555    0.615527
      9          1           0       -1.475962   -0.212001   -0.515110
     10          1           0       -0.955785   -0.409420    1.167077
     11          6           0       -5.611670   -0.187059    0.363125
     12          6           0       -6.682824    0.449195   -0.523326
     13          6           0       -8.097821    0.003918   -0.152780
     14          1           0       -5.684679   -1.280786    0.286807
     15          1           0       -5.814647    0.067235    1.412449
     16          1           0       -6.477164    0.193516   -1.570679
     17          1           0       -6.606918    1.541414   -0.446431
     18          1           0       -8.327565    0.273293    0.883200
     19          1           0       -8.197074   -1.082263   -0.247436
     20          1           0       -8.847742    0.470712   -0.798986
     21          6           0        6.262574    0.381409    0.387042
     22          6           0        5.781342   -0.926196    0.264134
     23          6           0        4.435134   -1.162638   -0.029748
     24          6           0        3.594282   -0.063130   -0.195104
     25          6           0        4.043700    1.251338   -0.078959
     26          6           0        5.393749    1.464093    0.215406
     27          1           0        7.309833    0.555883    0.615525
     28          1           0        6.453790   -1.768947    0.396906
     29          1           0        4.036068   -2.164645   -0.130469
     30          1           0        3.349219    2.071160   -0.216819
     31          1           0        5.764702    2.480675    0.310275
     32          7           0        2.167079   -0.300902   -0.506479
     33          8           0        1.446678    0.684880   -0.647509
     34          8           0        1.795862   -1.468551   -0.603610
 ---------------------------------------------------------------------

 SCF Done:  E(RHF) =  -669.535874973     A.U. after   15 cycles
 E2 =    -0.2091312573D+01 EUMP2 =    -0.67162718754620D+03

 The electronic state is 1-A.
 Alpha  occ. eigenvalues --  -20.60904 -20.60882 -15.85915 -11.31271 -11.27834
 Alpha  occ. eigenvalues --  -11.27831 -11.27576 -11.26846 -11.26836 -11.20899
 Alpha  occ. eigenvalues --  -11.20523 -11.20496 -11.20282 -11.20175 -11.19075
 Alpha  occ. eigenvalues --   -1.59945  -1.39501  -1.19439  -1.08837  -1.07418
 Alpha  occ. eigenvalues --   -1.04838  -1.02406  -0.95678  -0.94811  -0.86238
 Alpha  occ. eigenvalues --   -0.85815  -0.82505  -0.78505  -0.77557  -0.77178
 Alpha  occ. eigenvalues --   -0.72122  -0.71261  -0.70546  -0.65092  -0.64841
 Alpha  occ. eigenvalues --   -0.64062  -0.62185  -0.59811  -0.58289  -0.56425
 Alpha  occ. eigenvalues --   -0.55344  -0.54106  -0.53171  -0.52930  -0.51517
 Alpha  occ. eigenvalues --   -0.51251  -0.49004  -0.48885  -0.48608  -0.46771
 Alpha  occ. eigenvalues --   -0.45566  -0.44925  -0.44667  -0.44619  -0.42643
 Alpha  occ. eigenvalues --   -0.37418  -0.36441
 Alpha virt. eigenvalues --    0.04960   0.11214   0.16456   0.21351   0.23791
 Alpha virt. eigenvalues --    0.25454   0.27264   0.27614   0.28219   0.28436
 Alpha virt. eigenvalues --    0.29225   0.30919   0.32452   0.32535   0.32683

 Mulliken charges:
               1
     1  C   -0.297082
     2  C   -0.302986
     3  C   -0.464229
     4  H    0.150136
     5  H    0.147168
     6  H    0.149065
     7  H    0.144495
     8  H    0.149383
     9  H    0.168910
    10  H    0.156910
    11  C   -0.297142
    12  C   -0.298868
    13  C   -0.475111
    14  H    0.148311
    15  H    0.147290
    16  H    0.151580
    17  H    0.150654
    18  H    0.153905
    19  H    0.154416
    20  H    0.158144
    21  C   -0.170666
    22  C   -0.218573
    23  C   -0.170902
    24  C    0.158645
    25  C   -0.170836
    26  C   -0.218559
    27  H    0.225879
    28  H    0.223710
    29  H    0.275757
    30  H    0.275865
    31  H    0.223732
    32  N    0.488020
    33  O   -0.457004
    34  O   -0.460018
 Sum of Mulliken charges =  -0.00000

 Dipole moment (field-independent basis, Debye):
    X=              5.4208    Y=              0.8373    Z=              0.9851  Tot=              5.5728
 Quadrupole moment (field-independent basis, Debye-Ang):
   XX=            -61.8310   YY=            -89.4768   ZZ=            -95.8785
   XY=              1.5885   XZ=              3.4973   YZ=              0.2395

 Normal termination of Gaussian 16 at Wed May  5 20:17:11 2021.
