 Gaussian 16, Revision A.03,
 Gaussian 16:  EM64L-G16RevA.03 25-Dec-2016

 -------------
 #p 6-31g* mp2
 -------------

 ------------------------------------------------------
 Input file generated by CHIRIPA (05-May-2021 14:51:08)
 ------------------------------------------------------
 Symbolic Z-matrix:
 Charge =  0 Multiplicity = 1

                         Standard orientation:
 ---------------------------------------------------------------------
 Center     Atomic      Atomic             Coordinates (Angstroms)
 Number     Number       Type             X           Y           Z
 ---------------------------------------------------------------------
      1          6           0        2.694009   -0.342517   -0.150439
      2          6           0        1.723330   -0.808441    0.935232
      3          6           0        0.313993   -1.061631    0.399081
      4          1           0        2.305135    0.575685   -0.611554
      5          1           0        2.733876   -1.099228   -0.946174
      6          1           0        1.686357   -0.051717    1.729345
      7          1           0        2.114656   -1.725535    1.393947
      8          1           0        0.330274   -1.832238   -0.378416
      9          1           0       -0.100459   -0.148909   -0.041111
     10          1           0       -0.363476   -1.393843    1.191881
     11          6           0        4.107018   -0.085258    0.370092
     12          6           0        5.077697    0.380667   -0.715578
     13          6           0        6.487034    0.633857   -0.179428
     14          1           0        4.067152    0.671454    1.165827
     15          1           0        4.495892   -1.003459    0.831207
     16          1           0        4.686371    1.297761   -1.174294
     17          1           0        5.114670   -0.376058   -1.509692
     18          1           0        6.901486   -0.278865    0.260765
     19          1           0        6.470754    1.404464    0.598069
     20          1           0        7.164503    0.966069   -0.972228
     21          6           0       -3.487328    0.860294    0.287733
     22          6           0       -3.192910    2.118809   -0.529239
     23          6           0       -3.370953    3.403907    0.279843
     24          1           0       -4.514695    0.913149    0.673308
     25          1           0       -2.825248    0.837442    1.164387
     26          1           0       -3.854396    2.138576   -1.404832
     27          1           0       -2.166189    2.062862   -0.913075
     28          1           0       -2.700014    3.410552    1.144943
     29          1           0       -4.397813    3.486695    0.650392
     30          1           0       -3.155415    4.291267   -0.323477
     31          6           0       -3.313699   -0.432519   -0.507386
     32          6           0       -3.608117   -1.691034    0.309586
     33          6           0       -3.430074   -2.976134   -0.499496
     34          1           0       -3.975780   -0.409668   -1.384040
     35          1           0       -2.286332   -0.485376   -0.892961
     36          1           0       -4.634839   -1.635088    0.693422
     37          1           0       -2.946632   -1.710801    1.185179
     38          1           0       -2.403215   -3.058921   -0.870044
     39          1           0       -4.101014   -2.982778   -1.364596
     40          1           0       -3.645612   -3.863494    0.103825
 ---------------------------------------------------------------------

 SCF Done:  E(RHF) =  -470.732504211     A.U. after   11 cycles
 E2 =    -0.1583959226D+01 EUMP2 =    -0.47231646343685D+03

 The electronic state is 1-A.
 Alpha  occ. eigenvalues --  -11.21683 -11.21639 -11.21584 -11.21489 -11.21467
 Alpha  occ. eigenvalues --  -11.21404 -11.21306 -11.21193 -11.21184 -11.21100
 Alpha  occ. eigenvalues --  -11.21060 -11.20976  -1.08501  -1.08339  -1.03612
 Alpha  occ. eigenvalues --   -1.03454  -0.96068  -0.95900  -0.87105  -0.86908
 Alpha  occ. eigenvalues --   -0.79687  -0.79525  -0.78319  -0.78141  -0.65170
 Alpha  occ. eigenvalues --   -0.64962  -0.61010  -0.60893  -0.59391  -0.59275
 Alpha  occ. eigenvalues --   -0.57683  -0.57517  -0.55523  -0.55033  -0.52749
 Alpha  occ. eigenvalues --   -0.52619  -0.52521  -0.52308  -0.50056  -0.49776
 Alpha  occ. eigenvalues --   -0.48056  -0.47842  -0.46707  -0.46550  -0.45958
 Alpha  occ. eigenvalues --   -0.45772  -0.45671  -0.45395  -0.43827  -0.43702
 Alpha virt. eigenvalues --    0.20520   0.22954   0.23489   0.24662   0.25698
 Alpha virt. eigenvalues --    0.26283   0.26530   0.27742   0.27819   0.29491
 Alpha virt. eigenvalues --    0.30281   0.30392   0.31776   0.32270   0.32287

 Mulliken charges:
               1
     1  C   -0.298654
     2  C   -0.300592
     3  C   -0.480995
     4  H    0.149566
     5  H    0.149704
     6  H    0.152062
     7  H    0.152332
     8  H    0.155839
     9  H    0.157549
    10  H    0.163833
    11  C   -0.298298
    12  C   -0.299691
    13  C   -0.475748
    14  H    0.149634
    15  H    0.149828
    16  H    0.152017
    17  H    0.152025
    18  H    0.155248
    19  H    0.155247
    20  H    0.160405
    21  C   -0.299030
    22  C   -0.300342
    23  C   -0.475580
    24  H    0.149441
    25  H    0.149826
    26  H    0.152188
    27  H    0.151021
    28  H    0.154905
    29  H    0.155340
    30  H    0.159997
    31  C   -0.303324
    32  C   -0.300396
    33  C   -0.477284
    34  H    0.148561
    35  H    0.158076
    36  H    0.151273
    37  H    0.152863
    38  H    0.156910
    39  H    0.154765
    40  H    0.159479
 Sum of Mulliken charges =  -0.00000

 Dipole moment (field-independent basis, Debye):
    X=              0.0602    Y=             -0.0095    Z=              0.0000  Tot=              0.0609
 Quadrupole moment (field-independent basis, Debye-Ang):
   XX=            -85.0866   YY=            -84.9878   ZZ=            -84.9490
   XY=             -0.4915   XZ=              0.0145   YZ=             -0.3313

 Normal termination of Gaussian 16 at Wed May  5 18:06:26 2021.
