 Gaussian 16, Revision A.03,
 Gaussian 16:  EM64L-G16RevA.03 25-Dec-2016

 -------------
 #p 6-31g* mp2
 -------------

 ------------------------------------------------------
 Input file generated by CHIRIPA (05-May-2021 14:53:12)
 ------------------------------------------------------
 Symbolic Z-matrix:
 Charge =  0 Multiplicity = 1

                         Standard orientation:
 ---------------------------------------------------------------------
 Center     Atomic      Atomic             Coordinates (Angstroms)
 Number     Number       Type             X           Y           Z
 ---------------------------------------------------------------------
      1          6           0        3.458461   -0.512478    0.368455
      2          6           0        3.731147   -1.570519   -0.701207
      3          6           0        3.874238   -2.976912   -0.118648
      4          1           0        4.274472   -0.524981    1.103924
      5          1           0        2.542427   -0.779597    0.913362
      6          1           0        4.645636   -1.300750   -1.244852
      7          1           0        2.914488   -1.555364   -1.434321
      8          1           0        2.960155   -3.270860    0.407327
      9          1           0        4.701139   -3.014798    0.597871
     10          1           0        4.068752   -3.717508   -0.900659
     11          6           0        3.312960    0.898625   -0.198420
     12          6           0        3.040274    1.956666    0.871242
     13          6           0        2.897183    3.363059    0.288682
     14          1           0        4.228994    1.165744   -0.743328
     15          1           0        2.496949    0.911128   -0.933890
     16          1           0        3.856933    1.941511    1.604355
     17          1           0        2.125785    1.686897    1.414887
     18          1           0        2.070282    3.400945   -0.427837
     19          1           0        3.811266    3.657007   -0.237293
     20          1           0        2.702669    4.103655    1.070693
     21          6           0       -5.145044    0.109074    0.153982
     22          6           0       -4.496665   -0.968683    0.766000
     23          6           0       -3.111923   -1.122662    0.650549
     24          6           0       -2.403399   -0.175966   -0.087728
     25          6           0       -3.020616    0.908562   -0.709124
     26          6           0       -4.406253    1.042611   -0.580331
     27          1           0       -6.221093    0.220948    0.248849
     28          1           0       -5.067872   -1.695214    1.336893
     29          1           0       -2.584574   -1.947554    1.114092
     30          1           0       -2.424356    1.616637   -1.271727
     31          1           0       -4.907131    1.880603   -1.056707
     32          7           0       -0.936962   -0.328427   -0.217012
     33          8           0       -0.335421    0.519262   -0.872915
     34          8           0       -0.416874   -1.292729    0.340006
 ---------------------------------------------------------------------

 SCF Done:  E(RHF) =  -669.537181610     A.U. after   15 cycles
 E2 =    -0.2092469526D+01 EUMP2 =    -0.67162965113563D+03

 The electronic state is 1-A.
 Alpha  occ. eigenvalues --  -20.61260 -20.61255 -15.86252 -11.31467 -11.28011
 Alpha  occ. eigenvalues --  -11.28008 -11.27730 -11.26992 -11.26983 -11.20121
 Alpha  occ. eigenvalues --  -11.19932 -11.19868 -11.19651 -11.19479 -11.19415
 Alpha  occ. eigenvalues --   -1.60289  -1.39849  -1.19620  -1.09046  -1.06681
 Alpha  occ. eigenvalues --   -1.04998  -1.01996  -0.95904  -0.94441  -0.86404
 Alpha  occ. eigenvalues --   -0.85480  -0.82742  -0.78067  -0.77808  -0.76490
 Alpha  occ. eigenvalues --   -0.72464  -0.71589  -0.70727  -0.65277  -0.65006
 Alpha  occ. eigenvalues --   -0.63269  -0.62345  -0.59376  -0.57844  -0.56080
 Alpha  occ. eigenvalues --   -0.55509  -0.53714  -0.53334  -0.53088  -0.51239
 Alpha  occ. eigenvalues --   -0.50912  -0.49272  -0.49202  -0.48341  -0.46406
 Alpha  occ. eigenvalues --   -0.45288  -0.45043  -0.44021  -0.43826  -0.42178
 Alpha  occ. eigenvalues --   -0.37592  -0.36592
 Alpha virt. eigenvalues --    0.04700   0.11065   0.16216   0.21188   0.24632
 Alpha virt. eigenvalues --    0.25701   0.27137   0.27926   0.28580   0.29138
 Alpha virt. eigenvalues --    0.29516   0.30843   0.32248   0.32818   0.33148

 Mulliken charges:
               1
     1  C   -0.301835
     2  C   -0.297470
     3  C   -0.476374
     4  H    0.138570
     5  H    0.167189
     6  H    0.143795
     7  H    0.158996
     8  H    0.160567
     9  H    0.149258
    10  H    0.153544
    11  C   -0.304995
    12  C   -0.295964
    13  C   -0.475988
    14  H    0.138567
    15  H    0.174187
    16  H    0.144783
    17  H    0.152338
    18  H    0.158201
    19  H    0.151051
    20  H    0.152804
    21  C   -0.170154
    22  C   -0.218617
    23  C   -0.170283
    24  C    0.157607
    25  C   -0.170421
    26  C   -0.218585
    27  H    0.226686
    28  H    0.224469
    29  H    0.276154
    30  H    0.276070
    31  H    0.224508
    32  N    0.490308
    33  O   -0.459989
    34  O   -0.458978
 Sum of Mulliken charges =  -0.00000

 Dipole moment (field-independent basis, Debye):
    X=             -5.7709    Y=              0.4502    Z=              0.3749  Tot=              5.8005
 Quadrupole moment (field-independent basis, Debye-Ang):
   XX=            -71.4471   YY=            -93.8513   ZZ=            -94.1184
   XY=             -0.0519   XZ=             -0.9475   YZ=             -2.8738

 Normal termination of Gaussian 16 at Wed May  5 18:31:32 2021.
