 Gaussian 16, Revision A.03,
 Gaussian 16:  EM64L-G16RevA.03 25-Dec-2016

 -------------
 #p 6-31g* mp2
 -------------

 ------------------------------------------------------
 Input file generated by CHIRIPA (05-May-2021 14:53:17)
 ------------------------------------------------------
 Symbolic Z-matrix:
 Charge =  0 Multiplicity = 1

                         Standard orientation:
 ---------------------------------------------------------------------
 Center     Atomic      Atomic             Coordinates (Angstroms)
 Number     Number       Type             X           Y           Z
 ---------------------------------------------------------------------
      1          6           0        3.324806   -1.098646   -0.086198
      2          6           0        1.971018   -1.113505    0.624450
      3          6           0        1.060202   -2.241018    0.137702
      4          1           0        3.162683   -0.999706   -1.168267
      5          1           0        3.822712   -2.065949    0.068102
      6          1           0        1.476417   -0.145964    0.470013
      7          1           0        2.136389   -1.212229    1.704969
      8          1           0        1.529584   -3.215554    0.306702
      9          1           0        0.865862   -2.143231   -0.935271
     10          1           0        0.097836   -2.233025    0.658900
     11          6           0        4.246491    0.022895    0.389586
     12          6           0        5.600279    0.037755   -0.321063
     13          6           0        6.511095    1.165267    0.165686
     14          1           0        3.748584    0.990199    0.235285
     15          1           0        4.408614   -0.076045    1.471654
     16          1           0        5.434907    0.136478   -1.401582
     17          1           0        6.094880   -0.929786   -0.166626
     18          1           0        6.705435    1.067480    1.238658
     19          1           0        6.041713    2.139803   -0.003314
     20          1           0        7.473461    1.157275   -0.355513
     21          6           0       -4.884834   -1.172689    0.219283
     22          6           0       -4.954666    0.128430    0.727939
     23          6           0       -3.892770    1.019550    0.546741
     24          6           0       -2.771214    0.574211   -0.151167
     25          6           0       -2.671712   -0.715851   -0.669942
     26          6           0       -3.745589   -1.589942   -0.476807
     27          1           0       -5.714394   -1.858318    0.364679
     28          1           0       -5.838170    0.455214    1.268936
     29          1           0       -3.920424    2.032370    0.929947
     30          1           0       -1.777833   -1.012740   -1.204970
     31          1           0       -3.688590   -2.599829   -0.872945
     32          7           0       -1.640691    1.508585   -0.349312
     33          8           0       -0.663708    1.091872   -0.967772
     34          8           0       -1.752975    2.639969    0.117594
 ---------------------------------------------------------------------

 SCF Done:  E(RHF) =  -669.536406063     A.U. after   15 cycles
 E2 =    -0.2091899329D+01 EUMP2 =    -0.67162830539142D+03

 The electronic state is 1-A.
 Alpha  occ. eigenvalues --  -20.60958 -20.60952 -15.85977 -11.31258 -11.27828
 Alpha  occ. eigenvalues --  -11.27793 -11.27559 -11.26827 -11.26810 -11.20990
 Alpha  occ. eigenvalues --  -11.20789 -11.20734 -11.20676 -11.20617 -11.20512
 Alpha  occ. eigenvalues --   -1.60012  -1.39569  -1.19429  -1.08841  -1.07732
 Alpha  occ. eigenvalues --   -1.04818  -1.02915  -0.95694  -0.95412  -0.86453
 Alpha  occ. eigenvalues --   -0.86209  -0.82524  -0.78975  -0.77589  -0.77528
 Alpha  occ. eigenvalues --   -0.72209  -0.71322  -0.70537  -0.65088  -0.64824
 Alpha  occ. eigenvalues --   -0.64333  -0.62173  -0.60282  -0.58789  -0.57022
 Alpha  occ. eigenvalues --   -0.55334  -0.54700  -0.53164  -0.52912  -0.52129
 Alpha  occ. eigenvalues --   -0.51845  -0.49357  -0.48964  -0.48950  -0.47312
 Alpha  occ. eigenvalues --   -0.46011  -0.45214  -0.45083  -0.44654  -0.43169
 Alpha  occ. eigenvalues --   -0.37407  -0.36408
 Alpha virt. eigenvalues --    0.04894   0.11197   0.16374   0.21010   0.23492
 Alpha virt. eigenvalues --    0.24443   0.26721   0.27464   0.27957   0.28287
 Alpha virt. eigenvalues --    0.29240   0.30581   0.31580   0.31996   0.32543

 Mulliken charges:
               1
     1  C   -0.297523
     2  C   -0.307406
     3  C   -0.477176
     4  H    0.151751
     5  H    0.144383
     6  H    0.175732
     7  H    0.146891
     8  H    0.151905
     9  H    0.153316
    10  H    0.153033
    11  C   -0.299758
    12  C   -0.299283
    13  C   -0.475630
    14  H    0.157341
    15  H    0.147017
    16  H    0.152337
    17  H    0.149164
    18  H    0.153785
    19  H    0.157143
    20  H    0.158142
    21  C   -0.170334
    22  C   -0.218726
    23  C   -0.170566
    24  C    0.156778
    25  C   -0.171559
    26  C   -0.220281
    27  H    0.225932
    28  H    0.223667
    29  H    0.275621
    30  H    0.280954
    31  H    0.224471
    32  N    0.488282
    33  O   -0.460651
    34  O   -0.458749
 Sum of Mulliken charges =  -0.00000

 Dipole moment (field-independent basis, Debye):
    X=             -4.1386    Y=             -3.0954    Z=              0.6471  Tot=              5.2085
 Quadrupole moment (field-independent basis, Debye-Ang):
   XX=            -72.8203   YY=            -96.9483   ZZ=            -94.0525
   XY=              4.5199   XZ=             -2.8917   YZ=              2.4384

 Normal termination of Gaussian 16 at Thu May  6 07:33:16 2021.
