 Gaussian 16, Revision A.03,
 Gaussian 16:  EM64L-G16RevA.03 25-Dec-2016

 -------------
 #p 6-31g* mp2
 -------------

 ------------------------------------------------------
 Input file generated by CHIRIPA (05-May-2021 14:51:09)
 ------------------------------------------------------
 Symbolic Z-matrix:
 Charge =  0 Multiplicity = 1

                         Standard orientation:
 ---------------------------------------------------------------------
 Center     Atomic      Atomic             Coordinates (Angstroms)
 Number     Number       Type             X           Y           Z
 ---------------------------------------------------------------------
      1          6           0       -2.666235    1.105573   -0.467262
      2          6           0       -1.262539    1.709133   -0.525024
      3          6           0       -1.275738    3.238047   -0.518711
      4          1           0       -3.251522    1.472154   -1.321664
      5          1           0       -3.175410    1.465047    0.437677
      6          1           0       -0.755665    1.347533   -1.428871
      7          1           0       -0.680465    1.340921    0.329509
      8          1           0       -1.757450    3.615394    0.389124
      9          1           0       -1.833077    3.622043   -1.379247
     10          1           0       -0.261994    3.648455   -0.560522
     11          6           0       -2.669524   -0.422068   -0.472865
     12          6           0       -4.073221   -1.025628   -0.415103
     13          6           0       -4.060021   -2.554543   -0.421416
     14          1           0       -2.160350   -0.781543   -1.377804
     15          1           0       -2.084237   -0.788649    0.381536
     16          1           0       -4.655295   -0.657417   -1.269636
     17          1           0       -4.580095   -0.664028    0.488744
     18          1           0       -3.502683   -2.938538    0.439120
     19          1           0       -3.578310   -2.931889   -1.329252
     20          1           0       -5.073766   -2.964951   -0.379605
     21          6           0        2.345304    0.082150    1.017497
     22          6           0        1.336784   -0.690936    1.867914
     23          6           0        0.699956    0.170606    2.958780
     24          1           0        3.129867    0.489122    1.670016
     25          1           0        1.842392    0.944397    0.558147
     26          1           0        1.841117   -1.552254    2.324416
     27          1           0        0.554633   -1.096276    1.213271
     28          1           0        0.171920    1.022284    2.517844
     29          1           0        1.465714    0.563715    3.635303
     30          1           0       -0.017663   -0.401897    3.554703
     31          6           0        2.990455   -0.765654   -0.077370
     32          6           0        3.998977    0.007430   -0.927786
     33          6           0        4.635804   -0.854111   -2.018653
     34          1           0        3.493368   -1.627903    0.381980
     35          1           0        2.205893   -1.172627   -0.729888
     36          1           0        4.781126    0.412771   -0.273144
     37          1           0        3.494643    0.868749   -1.384289
     38          1           0        3.870046   -1.247220   -2.695176
     39          1           0        5.163840   -1.705788   -1.577717
     40          1           0        5.353422   -0.281607   -2.614575
 ---------------------------------------------------------------------

 SCF Done:  E(RHF) =  -470.732851075     A.U. after   11 cycles
 E2 =    -0.1584363953D+01 EUMP2 =    -0.47231721502742D+03

 The electronic state is 1-A.
 Alpha  occ. eigenvalues --  -11.21639 -11.21636 -11.21603 -11.21585 -11.21454
 Alpha  occ. eigenvalues --  -11.21395 -11.21374 -11.21314 -11.21133 -11.21116
 Alpha  occ. eigenvalues --  -11.21096 -11.21061  -1.08503  -1.08399  -1.03605
 Alpha  occ. eigenvalues --   -1.03514  -0.96026  -0.95985  -0.87041  -0.87002
 Alpha  occ. eigenvalues --   -0.79687  -0.79564  -0.78316  -0.78218  -0.65322
 Alpha  occ. eigenvalues --   -0.64887  -0.61197  -0.60744  -0.59418  -0.59316
 Alpha  occ. eigenvalues --   -0.57647  -0.57588  -0.55317  -0.55277  -0.52716
 Alpha  occ. eigenvalues --   -0.52683  -0.52453  -0.52410  -0.50018  -0.49889
 Alpha  occ. eigenvalues --   -0.48068  -0.47883  -0.46836  -0.46476  -0.46044
 Alpha  occ. eigenvalues --   -0.45776  -0.45652  -0.45416  -0.43829  -0.43779
 Alpha virt. eigenvalues --    0.20039   0.23063   0.23762   0.23941   0.25954
 Alpha virt. eigenvalues --    0.26355   0.26620   0.28098   0.28686   0.29495
 Alpha virt. eigenvalues --    0.30378   0.31482   0.31658   0.31716   0.31882

 Mulliken charges:
               1
     1  C   -0.297402
     2  C   -0.311084
     3  C   -0.476053
     4  H    0.149899
     5  H    0.149707
     6  H    0.151357
     7  H    0.163223
     8  H    0.155409
     9  H    0.155762
    10  H    0.160235
    11  C   -0.302525
    12  C   -0.299574
    13  C   -0.475803
    14  H    0.149112
    15  H    0.153548
    16  H    0.152145
    17  H    0.152184
    18  H    0.155292
    19  H    0.155159
    20  H    0.160436
    21  C   -0.301555
    22  C   -0.304675
    23  C   -0.479504
    24  H    0.149343
    25  H    0.153529
    26  H    0.152669
    27  H    0.155782
    28  H    0.157367
    29  H    0.155981
    30  H    0.159948
    31  C   -0.298171
    32  C   -0.299717
    33  C   -0.475674
    34  H    0.149302
    35  H    0.150163
    36  H    0.151836
    37  H    0.151931
    38  H    0.155085
    39  H    0.155173
    40  H    0.160161
 Sum of Mulliken charges =  -0.00000

 Dipole moment (field-independent basis, Debye):
    X=             -0.0173    Y=              0.0032    Z=              0.0023  Tot=              0.0177
 Quadrupole moment (field-independent basis, Debye-Ang):
   XX=            -84.5342   YY=            -86.1745   ZZ=            -84.0460
   XY=             -0.0947   XZ=              0.9862   YZ=             -0.5732

 Normal termination of Gaussian 16 at Wed May  5 21:20:55 2021.
