 Gaussian 16, Revision A.03,
 Gaussian 16:  EM64L-G16RevA.03 25-Dec-2016

 -------------
 #p 6-31g* mp2
 -------------

 ------------------------------------------------------
 Input file generated by CHIRIPA (05-May-2021 14:53:17)
 ------------------------------------------------------
 Symbolic Z-matrix:
 Charge =  0 Multiplicity = 1

                         Standard orientation:
 ---------------------------------------------------------------------
 Center     Atomic      Atomic             Coordinates (Angstroms)
 Number     Number       Type             X           Y           Z
 ---------------------------------------------------------------------
      1          6           0       -2.627444    0.481286   -0.489832
      2          6           0       -3.014742    1.943190   -0.264392
      3          6           0       -1.966966    2.921184   -0.796827
      4          1           0       -1.661250    0.285603   -0.004938
      5          1           0       -2.477897    0.310453   -1.564935
      6          1           0       -3.164864    2.110877    0.809834
      7          1           0       -3.980218    2.135366   -0.749716
      8          1           0       -1.822617    2.782805   -1.873217
      9          1           0       -1.002629    2.758177   -0.304805
     10          1           0       -2.264008    3.960498   -0.625209
     11          6           0       -3.664980   -0.508475    0.037064
     12          6           0       -3.277682   -1.970379   -0.188376
     13          6           0       -4.325458   -2.948373    0.344059
     14          1           0       -3.814527   -0.337642    1.112168
     15          1           0       -4.631174   -0.312792   -0.447830
     16          1           0       -2.312206   -2.162555    0.296949
     17          1           0       -3.127561   -2.138066   -1.262602
     18          1           0       -5.289795   -2.785366   -0.147962
     19          1           0       -4.469807   -2.809994    1.420449
     20          1           0       -4.028416   -3.987687    0.172441
     21          6           0        1.221155    1.956667    1.201115
     22          6           0        1.442523    0.795893    1.949526
     23          6           0        2.126622   -0.288535    1.392235
     24          6           0        2.577550   -0.177516    0.077842
     25          6           0        2.372584    0.965501   -0.693386
     26          6           0        1.686073    2.037625   -0.115630
     27          1           0        0.688794    2.794298    1.641981
     28          1           0        1.082599    0.730212    2.972357
     29          1           0        2.311753   -1.199073    1.949068
     30          1           0        2.743344    1.001387   -1.710571
     31          1           0        1.515597    2.937850   -0.699220
     32          7           0        3.303051   -1.319038   -0.522970
     33          8           0        3.690214   -1.196250   -1.682998
     34          8           0        3.470799   -2.314936    0.177518
 ---------------------------------------------------------------------

 SCF Done:  E(RHF) =  -669.534363368     A.U. after   15 cycles
 E2 =    -0.2093471625D+01 EUMP2 =    -0.67162783499340D+03

 The electronic state is 1-A.
 Alpha  occ. eigenvalues --  -20.60820 -20.60814 -15.85874 -11.31273 -11.27851
 Alpha  occ. eigenvalues --  -11.27819 -11.27592 -11.26886 -11.26836 -11.22117
 Alpha  occ. eigenvalues --  -11.21746 -11.21699 -11.21682 -11.21611 -11.21182
 Alpha  occ. eigenvalues --   -1.59894  -1.39447  -1.19457  -1.08872  -1.08730
 Alpha  occ. eigenvalues --   -1.04861  -1.03878  -0.96348  -0.95674  -0.87380
 Alpha  occ. eigenvalues --   -0.86255  -0.82500  -0.79955  -0.78529  -0.77537
 Alpha  occ. eigenvalues --   -0.72094  -0.71217  -0.70581  -0.65411  -0.65107
 Alpha  occ. eigenvalues --   -0.64865  -0.62215  -0.61286  -0.59712  -0.57934
 Alpha  occ. eigenvalues --   -0.55704  -0.55321  -0.53284  -0.53059  -0.52954
 Alpha  occ. eigenvalues --   -0.52677  -0.50293  -0.48855  -0.48845  -0.48250
 Alpha  occ. eigenvalues --   -0.46977  -0.46071  -0.45982  -0.44845  -0.44113
 Alpha  occ. eigenvalues --   -0.37357  -0.36429
 Alpha virt. eigenvalues --    0.04963   0.11087   0.16398   0.20893   0.22676
 Alpha virt. eigenvalues --    0.24143   0.26345   0.26457   0.27263   0.27793
 Alpha virt. eigenvalues --    0.28747   0.30563   0.31200   0.31682   0.31969

 Mulliken charges:
               1
     1  C   -0.301439
     2  C   -0.298070
     3  C   -0.483505
     4  H    0.153167
     5  H    0.151027
     6  H    0.148397
     7  H    0.154160
     8  H    0.156833
     9  H    0.153673
    10  H    0.158357
    11  C   -0.298280
    12  C   -0.299936
    13  C   -0.475933
    14  H    0.147276
    15  H    0.150081
    16  H    0.152611
    17  H    0.153987
    18  H    0.155267
    19  H    0.153933
    20  H    0.162457
    21  C   -0.171985
    22  C   -0.219848
    23  C   -0.171448
    24  C    0.158813
    25  C   -0.171807
    26  C   -0.216185
    27  H    0.227601
    28  H    0.223972
    29  H    0.275971
    30  H    0.276172
    31  H    0.226816
    32  N    0.488099
    33  O   -0.459974
    34  O   -0.460259
 Sum of Mulliken charges =  -0.00000

 Dipole moment (field-independent basis, Debye):
    X=             -2.4966    Y=              3.9341    Z=              2.0875  Tot=              5.1056
 Quadrupole moment (field-independent basis, Debye-Ang):
   XX=           -108.9506   YY=            -96.2650   ZZ=            -90.1975
   XY=             10.9326   XZ=              5.5414   YZ=             -2.2575

 Normal termination of Gaussian 16 at Thu May  6 15:37:34 2021.
