 Gaussian 16, Revision A.03,
 Gaussian 16:  EM64L-G16RevA.03 25-Dec-2016

 -------------
 #p 6-31g* mp2
 -------------

 ------------------------------------------------------
 Input file generated by CHIRIPA (05-May-2021 14:55:18)
 ------------------------------------------------------
 Symbolic Z-matrix:
 Charge =  0 Multiplicity = 1

                         Standard orientation:
 ---------------------------------------------------------------------
 Center     Atomic      Atomic             Coordinates (Angstroms)
 Number     Number       Type             X           Y           Z
 ---------------------------------------------------------------------
      1          6           0       -2.376758   -2.203146    0.425952
      2          6           0       -3.569890   -1.951142   -0.259213
      3          6           0       -4.024685   -0.640844   -0.434792
      4          6           0       -3.257886    0.398234    0.090208
      5          6           0       -2.065011    0.179399    0.777559
      6          6           0       -1.629444   -1.138947    0.941243
      7          1           0       -2.030930   -3.224143    0.557727
      8          1           0       -4.152320   -2.775651   -0.660467
      9          1           0       -4.944726   -0.417302   -0.961073
     10          1           0       -1.506083    1.021981    1.166242
     11          1           0       -0.702460   -1.331674    1.473786
     12          7           0       -3.729180    1.789648   -0.089374
     13          8           0       -3.035336    2.687627    0.382699
     14          8           0       -4.783499    1.955913   -0.698802
     15          6           0        3.428513   -0.440710   -0.500719
     16          6           0        2.801778   -1.685220    0.128871
     17          6           0        1.517795   -2.122051   -0.577076
     18          1           0        2.698931    0.380378   -0.479058
     19          1           0        3.641469   -0.641763   -1.559786
     20          1           0        2.591339   -1.482344    1.186782
     21          1           0        3.533003   -2.503386    0.105883
     22          1           0        1.715535   -2.351419   -1.629164
     23          1           0        0.768521   -1.324575   -0.542124
     24          1           0        1.086587   -3.013383   -0.110765
     25          6           0        4.712827    0.008294    0.194019
     26          6           0        5.339563    1.252804   -0.435572
     27          6           0        6.623545    1.689635    0.270375
     28          1           0        4.499872    0.209347    1.253085
     29          1           0        5.442410   -0.812793    0.172357
     30          1           0        4.608337    2.070971   -0.412584
     31          1           0        5.550000    1.049928   -1.493482
     32          1           0        7.372819    0.892159    0.235424
     33          1           0        6.425805    1.919002    1.322464
     34          1           0        7.054753    2.580967   -0.195935
 ---------------------------------------------------------------------

 SCF Done:  E(RHF) =  -669.534542871     A.U. after   15 cycles
 E2 =    -0.2092189404D+01 EUMP2 =    -0.67162673227563D+03

 The electronic state is 1-A.
 Alpha  occ. eigenvalues --  -20.60768 -20.60763 -15.85821 -11.31190 -11.27744
 Alpha  occ. eigenvalues --  -11.27741 -11.27472 -11.26769 -11.26728 -11.22299
 Alpha  occ. eigenvalues --  -11.21882 -11.21856 -11.21796 -11.21744 -11.21270
 Alpha  occ. eigenvalues --   -1.59843  -1.39396  -1.19360  -1.08900  -1.08747
 Alpha  occ. eigenvalues --   -1.04774  -1.04008  -0.96465  -0.95583  -0.87496
 Alpha  occ. eigenvalues --   -0.86147  -0.82421  -0.80082  -0.78674  -0.77470
 Alpha  occ. eigenvalues --   -0.72039  -0.71166  -0.70456  -0.65570  -0.65009
 Alpha  occ. eigenvalues --   -0.64768  -0.62177  -0.61349  -0.59856  -0.58060
 Alpha  occ. eigenvalues --   -0.55800  -0.55232  -0.53318  -0.53056  -0.52856
 Alpha  occ. eigenvalues --   -0.52756  -0.50351  -0.48796  -0.48793  -0.48385
 Alpha  occ. eigenvalues --   -0.47111  -0.46218  -0.46131  -0.44802  -0.44264
 Alpha  occ. eigenvalues --   -0.37300  -0.36319
 Alpha virt. eigenvalues --    0.05046   0.11256   0.16469   0.20011   0.22722
 Alpha virt. eigenvalues --    0.23977   0.26014   0.26555   0.27127   0.27599
 Alpha virt. eigenvalues --    0.28947   0.29888   0.31082   0.31469   0.32051

 Mulliken charges:
               1
     1  C   -0.170607
     2  C   -0.218441
     3  C   -0.171102
     4  C    0.159149
     5  C   -0.173952
     6  C   -0.217399
     7  H    0.225893
     8  H    0.223526
     9  H    0.275566
    10  H    0.275117
    11  H    0.228348
    12  N    0.488101
    13  O   -0.460621
    14  O   -0.460333
    15  C   -0.298636
    16  C   -0.300853
    17  C   -0.482012
    18  H    0.150553
    19  H    0.151945
    20  H    0.146525
    21  H    0.154433
    22  H    0.159878
    23  H    0.161683
    24  H    0.150000
    25  C   -0.298524
    26  C   -0.300326
    27  C   -0.476000
    28  H    0.148961
    29  H    0.150143
    30  H    0.153761
    31  H    0.152782
    32  H    0.155116
    33  H    0.155436
    34  H    0.161890
 Sum of Mulliken charges =  -0.00000

 Dipole moment (field-independent basis, Debye):
    X=              1.7389    Y=             -4.8719    Z=              0.5679  Tot=              5.2040
 Quadrupole moment (field-independent basis, Debye-Ang):
   XX=           -102.7562   YY=            -98.6546   ZZ=            -93.8289
   XY=             17.8423   XZ=             -0.5004   YZ=              1.0330

 Normal termination of Gaussian 16 at Wed May  5 23:41:33 2021.
