 Gaussian 16, Revision A.03,
 Gaussian 16:  EM64L-G16RevA.03 25-Dec-2016

 -------------
 #p 6-31g* mp2
 -------------

 ------------------------------------------------------
 Input file generated by CHIRIPA (05-May-2021 14:51:10)
 ------------------------------------------------------
 Symbolic Z-matrix:
 Charge =  0 Multiplicity = 1

                         Standard orientation:
 ---------------------------------------------------------------------
 Center     Atomic      Atomic             Coordinates (Angstroms)
 Number     Number       Type             X           Y           Z
 ---------------------------------------------------------------------
      1          6           0        1.967295   -0.180655    0.891223
      2          6           0        1.916604   -1.462993    1.722501
      3          6           0        0.696431   -1.523642    2.641898
      4          1           0        1.971417    0.686277    1.566025
      5          1           0        1.050311   -0.104854    0.290566
      6          1           0        2.834036   -1.537049    2.320373
      7          1           0        1.912795   -2.326977    1.045645
      8          1           0       -0.228526   -1.474861    2.058224
      9          1           0        0.697949   -0.680445    3.340194
     10          1           0        0.680090   -2.448535    3.226849
     11          6           0        3.181411   -0.105339   -0.032886
     12          6           0        3.232102    1.177000   -0.864164
     13          6           0        4.452275    1.237649   -1.783562
     14          1           0        4.098395   -0.181140    0.567771
     15          1           0        3.177289   -0.972270   -0.707688
     16          1           0        3.235911    2.040984   -0.187309
     17          1           0        2.314670    1.251056   -1.462036
     18          1           0        4.450758    0.394451   -2.481857
     19          1           0        5.377232    1.188867   -1.199887
     20          1           0        4.468616    2.162541   -2.368512
     21          6           0       -2.192192   -0.345624   -0.874854
     22          6           0       -2.806444   -1.745520   -0.906004
     23          6           0       -2.030709   -2.711653   -1.801893
     24          1           0       -2.151698    0.052943   -1.897815
     25          1           0       -1.152755   -0.416572   -0.525666
     26          1           0       -3.844847   -1.671789   -1.253711
     27          1           0       -2.845657   -2.140724    0.117173
     28          1           0       -0.997858   -2.814812   -1.453788
     29          1           0       -2.002725   -2.343214   -2.832461
     30          1           0       -2.487105   -3.706392   -1.809510
     31          6           0       -2.956514    0.631617    0.016517
     32          6           0       -2.342262    2.031513    0.047668
     33          6           0       -3.117996    2.997647    0.943557
     34          1           0       -3.995952    0.702566   -0.332671
     35          1           0       -2.997009    0.233050    1.039478
     36          1           0       -2.303049    2.426717   -0.975510
     37          1           0       -1.303859    1.957782    0.395374
     38          1           0       -3.145981    2.629207    1.974125
     39          1           0       -4.150847    3.100805    0.595452
     40          1           0       -2.661601    3.992385    0.951173
 ---------------------------------------------------------------------

 SCF Done:  E(RHF) =  -470.733368740     A.U. after   11 cycles
 E2 =    -0.1583878055D+01 EUMP2 =    -0.47231724679440D+03

 The electronic state is 1-A.
 Alpha  occ. eigenvalues --  -11.21672 -11.21645 -11.21611 -11.21581 -11.21448
 Alpha  occ. eigenvalues --  -11.21427 -11.21386 -11.21363 -11.21155 -11.21122
 Alpha  occ. eigenvalues --  -11.21076 -11.21054  -1.08496  -1.08436  -1.03575
 Alpha  occ. eigenvalues --   -1.03543  -0.96024  -0.95998  -0.87041  -0.87013
 Alpha  occ. eigenvalues --   -0.79638  -0.79604  -0.78403  -0.78166  -0.65309
 Alpha  occ. eigenvalues --   -0.64909  -0.61032  -0.60874  -0.59391  -0.59363
 Alpha  occ. eigenvalues --   -0.57648  -0.57594  -0.55339  -0.55270  -0.52718
 Alpha  occ. eigenvalues --   -0.52689  -0.52463  -0.52412  -0.49986  -0.49939
 Alpha  occ. eigenvalues --   -0.47981  -0.47913  -0.46756  -0.46618  -0.46288
 Alpha  occ. eigenvalues --   -0.45795  -0.45774  -0.45133  -0.43827  -0.43799
 Alpha virt. eigenvalues --    0.19154   0.23092   0.23857   0.24573   0.25221
 Alpha virt. eigenvalues --    0.26240   0.26815   0.27758   0.28617   0.30176
 Alpha virt. eigenvalues --    0.30726   0.31656   0.31709   0.31851   0.32158

 Mulliken charges:
               1
     1  C   -0.309357
     2  C   -0.299207
     3  C   -0.478426
     4  H    0.149783
     5  H    0.158942
     6  H    0.152559
     7  H    0.151765
     8  H    0.156378
     9  H    0.155445
    10  H    0.160862
    11  C   -0.297506
    12  C   -0.300049
    13  C   -0.475754
    14  H    0.149713
    15  H    0.149717
    16  H    0.151899
    17  H    0.152652
    18  H    0.155313
    19  H    0.155140
    20  H    0.160372
    21  C   -0.309206
    22  C   -0.299837
    23  C   -0.475677
    24  H    0.149693
    25  H    0.158660
    26  H    0.152417
    27  H    0.152443
    28  H    0.154313
    29  H    0.155289
    30  H    0.160667
    31  C   -0.298088
    32  C   -0.301570
    33  C   -0.475753
    34  H    0.149679
    35  H    0.150190
    36  H    0.151605
    37  H    0.154229
    38  H    0.155411
    39  H    0.155057
    40  H    0.160236
 Sum of Mulliken charges =  -0.00000

 Dipole moment (field-independent basis, Debye):
    X=              0.0096    Y=              0.0037    Z=              0.0011  Tot=              0.0104
 Quadrupole moment (field-independent basis, Debye-Ang):
   XX=            -85.0166   YY=            -85.2011   ZZ=            -84.4466
   XY=              0.3141   XZ=              1.7482   YZ=             -0.2369

 Normal termination of Gaussian 16 at Wed May  5 15:13:02 2021.
