 Gaussian 16, Revision A.03,
 Gaussian 16:  EM64L-G16RevA.03 25-Dec-2016

 -------------
 #p 6-31g* mp2
 -------------

 ------------------------------------------------------
 Input file generated by CHIRIPA (05-May-2021 14:57:27)
 ------------------------------------------------------
 Symbolic Z-matrix:
 Charge =  0 Multiplicity = 1

                         Standard orientation:
 ---------------------------------------------------------------------
 Center     Atomic      Atomic             Coordinates (Angstroms)
 Number     Number       Type             X           Y           Z
 ---------------------------------------------------------------------
      1          6           0        4.214908    2.039029   -0.057414
      2          6           0        2.884320    2.041339   -0.488750
      3          6           0        2.154489    0.850291   -0.546197
      4          6           0        2.789410   -0.330160   -0.163182
      5          6           0        4.113639   -0.364975    0.270978
      6          6           0        4.824247    0.837997    0.320407
      7          1           0        4.774392    2.968895   -0.015902
      8          1           0        2.408526    2.972581   -0.782780
      9          1           0        1.123096    0.823390   -0.876232
     10          1           0        4.560820   -1.309040    0.557667
     11          1           0        5.857463    0.833196    0.655796
     12          7           0        2.026946   -1.597381   -0.219755
     13          8           0        2.609203   -2.624058    0.123099
     14          8           0        0.861507   -1.539957   -0.605878
     15          6           0       -2.668254   -2.389660    0.160696
     16          6           0       -3.409414   -1.761879   -0.845829
     17          6           0       -3.552839   -0.371272   -0.859573
     18          6           0       -2.938934    0.364058    0.153197
     19          6           0       -2.194141   -0.232190    1.169593
     20          6           0       -2.064048   -1.624162    1.163427
     21          1           0       -2.562017   -3.470448    0.163639
     22          1           0       -3.879751   -2.353844   -1.625832
     23          1           0       -4.121012    0.140525   -1.626817
     24          1           0       -1.736902    0.384571    1.933763
     25          1           0       -1.487865   -2.109003    1.946362
     26          7           0       -3.083715    1.836954    0.149186
     27          8           0       -2.533058    2.462272    1.052729
     28          8           0       -3.745110    2.338202   -0.757426
 ---------------------------------------------------------------------

 SCF Done:  E(RHF) =  -868.339265340     A.U. after   16 cycles
 E2 =    -0.2599835971D+01 EUMP2 =    -0.87093910131133D+03

 The electronic state is 1-A.
 Alpha  occ. eigenvalues --  -20.61160 -20.61122 -20.60423 -20.60407 -15.86158
 Alpha  occ. eigenvalues --  -15.85456 -11.31316 -11.30444 -11.27875 -11.27815
 Alpha  occ. eigenvalues --  -11.27541 -11.26969 -11.26944 -11.26841 -11.26758
 Alpha  occ. eigenvalues --  -11.26535 -11.25894 -11.25823  -1.60224  -1.59508
 Alpha  occ. eigenvalues --   -1.39778  -1.39069  -1.19464  -1.18546  -1.08902
 Alpha  occ. eigenvalues --   -1.07998  -1.04823  -1.03906  -0.95772  -0.94911
 Alpha  occ. eigenvalues --   -0.86233  -0.85326  -0.82602  -0.81775  -0.77679
 Alpha  occ. eigenvalues --   -0.76885  -0.72400  -0.71684  -0.71545  -0.70835
 Alpha  occ. eigenvalues --   -0.70563  -0.69650  -0.65112  -0.64813  -0.64209
 Alpha  occ. eigenvalues --   -0.63924  -0.62167  -0.61298  -0.55333  -0.54383
 Alpha  occ. eigenvalues --   -0.53180  -0.52903  -0.52206  -0.52020  -0.49172
 Alpha  occ. eigenvalues --   -0.49142  -0.48459  -0.48403  -0.45232  -0.44560
 Alpha  occ. eigenvalues --   -0.37443  -0.36442  -0.36388  -0.35420
 Alpha virt. eigenvalues --    0.04797   0.05649   0.11224   0.12202   0.16349
 Alpha virt. eigenvalues --    0.17295   0.21419   0.22264   0.27340   0.28074
 Alpha virt. eigenvalues --    0.28256   0.29138   0.30979   0.31798   0.32397

 Mulliken charges:
               1
     1  C   -0.170361
     2  C   -0.218034
     3  C   -0.171278
     4  C    0.156418
     5  C   -0.171742
     6  C   -0.218666
     7  H    0.227282
     8  H    0.229432
     9  H    0.276965
    10  H    0.274291
    11  H    0.223574
    12  N    0.487422
    13  O   -0.463574
    14  O   -0.461602
    15  C   -0.160411
    16  C   -0.217574
    17  C   -0.172773
    18  C    0.155094
    19  C   -0.174011
    20  C   -0.201138
    21  H    0.227415
    22  H    0.221014
    23  H    0.271411
    24  H    0.269614
    25  H    0.223588
    26  N    0.486922
    27  O   -0.466229
    28  O   -0.463049
 Sum of Mulliken charges =  -0.00000

 Dipole moment (field-independent basis, Debye):
    X=              3.3704    Y=             -0.9158    Z=              0.1899  Tot=              3.4978
 Quadrupole moment (field-independent basis, Debye-Ang):
   XX=            -89.4707   YY=           -111.0186   ZZ=           -102.0389
   XY=             26.3739   XZ=              4.3472   YZ=             -2.4723

 Normal termination of Gaussian 16 at Fri May  7 09:44:05 2021.
