 Gaussian 16, Revision A.03,
 Gaussian 16:  EM64L-G16RevA.03 25-Dec-2016

 -------------
 #p 6-31g* mp2
 -------------

 ------------------------------------------------------
 Input file generated by CHIRIPA (05-May-2021 14:53:12)
 ------------------------------------------------------
 Symbolic Z-matrix:
 Charge =  0 Multiplicity = 1

                         Standard orientation:
 ---------------------------------------------------------------------
 Center     Atomic      Atomic             Coordinates (Angstroms)
 Number     Number       Type             X           Y           Z
 ---------------------------------------------------------------------
      1          6           0       -3.116082    0.517876   -0.288979
      2          6           0       -3.275778    1.995586   -0.647944
      3          6           0       -1.936406    2.723969   -0.763424
      4          1           0       -2.568827    0.434694    0.659988
      5          1           0       -2.495504    0.027441   -1.051705
      6          1           0       -3.897019    2.482784    0.114495
      7          1           0       -3.822884    2.075266   -1.596070
      8          1           0       -1.313401    2.264314   -1.537493
      9          1           0       -1.387957    2.674148    0.182791
     10          1           0       -2.073952    3.778840   -1.020694
     11          6           0       -4.446286   -0.223819   -0.169930
     12          6           0       -4.286590   -1.701528    0.189035
     13          6           0       -5.625962   -2.429911    0.304515
     14          1           0       -5.066865    0.266617    0.592795
     15          1           0       -4.993541   -0.140636   -1.118897
     16          1           0       -3.739484   -1.781208    1.137161
     17          1           0       -3.665349   -2.188727   -0.573404
     18          1           0       -6.174411   -2.380090   -0.641700
     19          1           0       -6.248967   -1.970256    1.078584
     20          1           0       -5.488416   -3.484782    0.561785
     21          6           0        1.327043    1.599358    1.062553
     22          6           0        0.964432    0.249246    1.015309
     23          6           0        1.857866   -0.709246    0.527851
     24          6           0        3.111343   -0.280591    0.093868
     25          6           0        3.502011    1.057125    0.128299
     26          6           0        2.592444    1.998285    0.619678
     27          1           0        0.626735    2.337206    1.442746
     28          1           0       -0.017622   -0.063451    1.358580
     29          1           0        1.603077   -1.761017    0.480124
     30          1           0        4.488059    1.338436   -0.220970
     31          1           0        2.876770    3.046113    0.655199
     32          7           0        4.065721   -1.286130   -0.424258
     33          8           0        5.164051   -0.882818   -0.800620
     34          8           0        3.697362   -2.458543   -0.444192
 ---------------------------------------------------------------------

 SCF Done:  E(RHF) =  -669.534964619     A.U. after   15 cycles
 E2 =    -0.2092147113D+01 EUMP2 =    -0.67162711173176D+03

 The electronic state is 1-A.
 Alpha  occ. eigenvalues --  -20.60717 -20.60712 -15.85770 -11.31119 -11.27692
 Alpha  occ. eigenvalues --  -11.27682 -11.27414 -11.26697 -11.26673 -11.22423
 Alpha  occ. eigenvalues --  -11.22277 -11.22212 -11.22047 -11.21992 -11.21535
 Alpha  occ. eigenvalues --   -1.59793  -1.39347  -1.19292  -1.09189  -1.08689
 Alpha  occ. eigenvalues --   -1.04691  -1.04246  -0.96711  -0.95529  -0.87724
 Alpha  occ. eigenvalues --   -0.86092  -0.82361  -0.80324  -0.79010  -0.77404
 Alpha  occ. eigenvalues --   -0.71989  -0.71117  -0.70433  -0.65829  -0.64943
 Alpha  occ. eigenvalues --   -0.64689  -0.62047  -0.61637  -0.60071  -0.58330
 Alpha  occ. eigenvalues --   -0.56097  -0.55160  -0.53377  -0.53215  -0.52940
 Alpha  occ. eigenvalues --   -0.52752  -0.50634  -0.48746  -0.48745  -0.48620
 Alpha  occ. eigenvalues --   -0.47352  -0.46545  -0.46444  -0.44757  -0.44512
 Alpha  occ. eigenvalues --   -0.37236  -0.36292
 Alpha virt. eigenvalues --    0.05107   0.11308   0.16540   0.19448   0.22576
 Alpha virt. eigenvalues --    0.23797   0.24752   0.25823   0.26474   0.28351
 Alpha virt. eigenvalues --    0.28885   0.30340   0.31062   0.31426   0.31797

 Mulliken charges:
               1
     1  C   -0.300071
     2  C   -0.300313
     3  C   -0.476151
     4  H    0.140477
     5  H    0.153482
     6  H    0.152779
     7  H    0.156384
     8  H    0.161701
     9  H    0.143051
    10  H    0.162695
    11  C   -0.298508
    12  C   -0.300241
    13  C   -0.476098
    14  H    0.150489
    15  H    0.152912
    16  H    0.148463
    17  H    0.153750
    18  H    0.156965
    19  H    0.155736
    20  H    0.162391
    21  C   -0.169294
    22  C   -0.220144
    23  C   -0.172297
    24  C    0.158490
    25  C   -0.171201
    26  C   -0.219701
    27  H    0.226129
    28  H    0.227215
    29  H    0.275580
    30  H    0.275305
    31  H    0.223342
    32  N    0.488054
    33  O   -0.460686
    34  O   -0.460683
 Sum of Mulliken charges =  -0.00000

 Dipole moment (field-independent basis, Debye):
    X=             -3.5482    Y=              3.5364    Z=              1.7023  Tot=              5.2909
 Quadrupole moment (field-independent basis, Debye-Ang):
   XX=           -113.9657   YY=            -94.7300   ZZ=            -94.0585
   XY=             14.3992   XZ=              5.1400   YZ=             -0.6637

 Normal termination of Gaussian 16 at Thu May  6 15:17:57 2021.
