 Gaussian 16, Revision A.03,
 Gaussian 16:  EM64L-G16RevA.03 25-Dec-2016

 -------------
 #p 6-31g* mp2
 -------------

 ------------------------------------------------------
 Input file generated by CHIRIPA (05-May-2021 14:55:22)
 ------------------------------------------------------
 Symbolic Z-matrix:
 Charge =  0 Multiplicity = 1

                         Standard orientation:
 ---------------------------------------------------------------------
 Center     Atomic      Atomic             Coordinates (Angstroms)
 Number     Number       Type             X           Y           Z
 ---------------------------------------------------------------------
      1          6           0       -1.100624   -1.204949    1.741193
      2          6           0       -2.264094   -1.916272    1.429944
      3          6           0       -3.207757   -1.382676    0.547151
      4          6           0       -2.954753   -0.129538   -0.008660
      5          6           0       -1.805174    0.603578    0.281682
      6          6           0       -0.875274    0.050493    1.167081
      7          1           0       -0.372910   -1.627029    2.427980
      8          1           0       -2.441738   -2.891478    1.874310
      9          1           0       -4.116961   -1.911823    0.288754
     10          1           0       -1.655848    1.573461   -0.177064
     11          1           0        0.027403    0.605173    1.406973
     12          7           0       -3.946482    0.445672   -0.944612
     13          8           0       -3.700151    1.551589   -1.420959
     14          8           0       -4.951351   -0.220286   -1.184143
     15          6           0        3.273909    0.752163    0.340724
     16          6           0        3.119059    2.194969   -0.141268
     17          6           0        2.519682    3.113115    0.924353
     18          1           0        2.291752    0.367493    0.647872
     19          1           0        3.909197    0.738594    1.237173
     20          1           0        2.485384    2.205663   -1.037348
     21          1           0        4.101669    2.576186   -0.447485
     22          1           0        3.153224    3.132176    1.817025
     23          1           0        1.527756    2.759549    1.223810
     24          1           0        2.417826    4.139633    0.558642
     25          6           0        3.871830   -0.177853   -0.713452
     26          6           0        4.026681   -1.620659   -0.231460
     27          6           0        4.626058   -2.538806   -1.297081
     28          1           0        3.236543   -0.164285   -1.609902
     29          1           0        4.853988    0.206817   -1.020601
     30          1           0        3.044072   -2.001876    0.074757
     31          1           0        4.660355   -1.631354    0.664619
     32          1           0        5.617984   -2.185238   -1.596538
     33          1           0        3.992516   -2.557867   -2.189753
     34          1           0        4.727914   -3.565324   -0.931369
 ---------------------------------------------------------------------

 SCF Done:  E(RHF) =  -669.535321176     A.U. after   15 cycles
 E2 =    -0.2091845887D+01 EUMP2 =    -0.67162716706279D+03

 The electronic state is 1-A.
 Alpha  occ. eigenvalues --  -20.60773 -20.60768 -15.85827 -11.31201 -11.27774
 Alpha  occ. eigenvalues --  -11.27769 -11.27515 -11.26784 -11.26755 -11.22359
 Alpha  occ. eigenvalues --  -11.22241 -11.22218 -11.22007 -11.21959 -11.21546
 Alpha  occ. eigenvalues --   -1.59849  -1.39402  -1.19375  -1.09160  -1.08766
 Alpha  occ. eigenvalues --   -1.04781  -1.04226  -0.96679  -0.95600  -0.87691
 Alpha  occ. eigenvalues --   -0.86181  -0.82436  -0.80289  -0.78987  -0.77478
 Alpha  occ. eigenvalues --   -0.72045  -0.71172  -0.70479  -0.65869  -0.65026
 Alpha  occ. eigenvalues --   -0.64747  -0.62186  -0.61559  -0.60041  -0.58287
 Alpha  occ. eigenvalues --   -0.55986  -0.55276  -0.53348  -0.53143  -0.53071
 Alpha  occ. eigenvalues --   -0.52893  -0.50631  -0.48821  -0.48800  -0.48587
 Alpha  occ. eigenvalues --   -0.47311  -0.46503  -0.46409  -0.44806  -0.44480
 Alpha  occ. eigenvalues --   -0.37352  -0.36376
 Alpha virt. eigenvalues --    0.05055   0.11165   0.16512   0.18974   0.22767
 Alpha virt. eigenvalues --    0.23411   0.25275   0.26544   0.26646   0.28331
 Alpha virt. eigenvalues --    0.29272   0.29945   0.31130   0.31382   0.31978

 Mulliken charges:
               1
     1  C   -0.173033
     2  C   -0.218449
     3  C   -0.170854
     4  C    0.158714
     5  C   -0.173160
     6  C   -0.225906
     7  H    0.226535
     8  H    0.223517
     9  H    0.275714
    10  H    0.275571
    11  H    0.234376
    12  N    0.488070
    13  O   -0.460328
    14  O   -0.460456
    15  C   -0.302192
    16  C   -0.301615
    17  C   -0.477733
    18  H    0.142062
    19  H    0.150723
    20  H    0.154849
    21  H    0.156538
    22  H    0.157912
    23  H    0.145996
    24  H    0.166602
    25  C   -0.298336
    26  C   -0.299873
    27  C   -0.476174
    28  H    0.152871
    29  H    0.152471
    30  H    0.148941
    31  H    0.151674
    32  H    0.156758
    33  H    0.157407
    34  H    0.160808
 Sum of Mulliken charges =  -0.00000

 Dipole moment (field-independent basis, Debye):
    X=              3.6603    Y=             -1.9991    Z=              3.2107  Tot=              5.2634
 Quadrupole moment (field-independent basis, Debye-Ang):
   XX=           -112.8390   YY=            -91.3654   ZZ=            -95.8110
   XY=              9.0666   XZ=             -9.8448   YZ=             -1.4653

 Normal termination of Gaussian 16 at Thu May  6 12:34:15 2021.
