 Gaussian 16, Revision A.03,
 Gaussian 16:  EM64L-G16RevA.03 25-Dec-2016

 -------------
 #p 6-31g* mp2
 -------------

 ------------------------------------------------------
 Input file generated by CHIRIPA (05-May-2021 14:57:25)
 ------------------------------------------------------
 Symbolic Z-matrix:
 Charge =  0 Multiplicity = 1

                         Standard orientation:
 ---------------------------------------------------------------------
 Center     Atomic      Atomic             Coordinates (Angstroms)
 Number     Number       Type             X           Y           Z
 ---------------------------------------------------------------------
      1          6           0        4.396612   -1.911791   -0.024925
      2          6           0        4.950444   -0.787716   -0.646412
      3          6           0        4.305443    0.450826   -0.579058
      4          6           0        3.102707    0.529668    0.121299
      5          6           0        2.525647   -0.572073    0.750949
      6          6           0        3.188111   -1.800578    0.670545
      7          1           0        4.904447   -2.870021   -0.082316
      8          1           0        5.888859   -0.871129   -1.187212
      9          1           0        4.711910    1.337109   -1.050974
     10          1           0        1.588899   -0.457773    1.282792
     11          1           0        2.755661   -2.671866    1.154166
     12          7           0        2.410630    1.835544    0.199511
     13          8           0        1.352107    1.878705    0.822651
     14          8           0        2.939807    2.791201   -0.363807
     15          6           0       -4.711363    1.715868   -0.008656
     16          6           0       -3.328762    1.870866   -0.153262
     17          6           0       -2.491039    0.753019   -0.209693
     18          6           0       -3.072279   -0.510726   -0.118052
     19          6           0       -4.446108   -0.697789    0.026486
     20          6           0       -5.264647    0.434294    0.080600
     21          1           0       -5.354676    2.589768    0.034281
     22          1           0       -2.896301    2.864940   -0.222829
     23          1           0       -1.417419    0.844219   -0.321232
     24          1           0       -4.847981   -1.701514    0.093192
     25          1           0       -6.338052    0.310902    0.192946
     26          7           0       -2.195572   -1.701677   -0.176566
     27          8           0       -2.732319   -2.804245   -0.093599
     28          8           0       -0.988264   -1.510025   -0.304288
 ---------------------------------------------------------------------

 SCF Done:  E(RHF) =  -868.341549760     A.U. after   16 cycles
 E2 =    -0.2598552424D+01 EUMP2 =    -0.87094010218392D+03

 The electronic state is 1-A.
 Alpha  occ. eigenvalues --  -20.60773 -20.60735 -20.60730 -20.60678 -15.85788
 Alpha  occ. eigenvalues --  -15.85721 -11.30791 -11.30628 -11.27402 -11.27238
 Alpha  occ. eigenvalues --  -11.27191 -11.27064 -11.27060 -11.26882 -11.26356
 Alpha  occ. eigenvalues --  -11.26185 -11.26175 -11.26005  -1.59829  -1.59767
 Alpha  occ. eigenvalues --   -1.39391  -1.39334  -1.18950  -1.18782  -1.08426
 Alpha  occ. eigenvalues --   -1.08277  -1.04280  -1.04105  -0.95313  -0.95173
 Alpha  occ. eigenvalues --   -0.85708  -0.85542  -0.82153  -0.82018  -0.77246
 Alpha  occ. eigenvalues --   -0.77072  -0.72055  -0.71944  -0.71136  -0.71061
 Alpha  occ. eigenvalues --   -0.70061  -0.69899  -0.64605  -0.64448  -0.64274
 Alpha  occ. eigenvalues --   -0.64117  -0.61607  -0.61449  -0.54836  -0.54676
 Alpha  occ. eigenvalues --   -0.52662  -0.52473  -0.52352  -0.52200  -0.48784
 Alpha  occ. eigenvalues --   -0.48760  -0.48714  -0.48672  -0.44880  -0.44825
 Alpha  occ. eigenvalues --   -0.36951  -0.36770  -0.35871  -0.35664
 Alpha virt. eigenvalues --    0.05204   0.05393   0.11772   0.11966   0.16782
 Alpha virt. eigenvalues --    0.16908   0.21776   0.22233   0.27617   0.28052
 Alpha virt. eigenvalues --    0.28435   0.29336   0.31211   0.31730   0.32416

 Mulliken charges:
               1
     1  C   -0.170092
     2  C   -0.219468
     3  C   -0.171684
     4  C    0.154381
     5  C   -0.160911
     6  C   -0.216858
     7  H    0.224861
     8  H    0.220971
     9  H    0.272284
    10  H    0.280920
    11  H    0.228825
    12  N    0.489248
    13  O   -0.469357
    14  O   -0.461073
    15  C   -0.170399
    16  C   -0.220651
    17  C   -0.173213
    18  C    0.155526
    19  C   -0.171601
    20  C   -0.219503
    21  H    0.225181
    22  H    0.230913
    23  H    0.287943
    24  H    0.272842
    25  H    0.221526
    26  N    0.489602
    27  O   -0.461898
    28  O   -0.468315
 Sum of Mulliken charges =  -0.00000

 Dipole moment (field-independent basis, Debye):
    X=             -0.6345    Y=             -0.4235    Z=             -0.0318  Tot=              0.7635
 Quadrupole moment (field-independent basis, Debye-Ang):
   XX=            -66.2218   YY=           -112.1632   ZZ=           -104.9345
   XY=            -21.0623   XZ=             -3.4686   YZ=             -3.1178

 Normal termination of Gaussian 16 at Wed May  5 21:09:00 2021.
