 Gaussian 16, Revision A.03,
 Gaussian 16:  EM64L-G16RevA.03 25-Dec-2016

 -------------
 #p 6-31g* mp2
 -------------

 ------------------------------------------------------
 Input file generated by CHIRIPA (05-May-2021 14:51:10)
 ------------------------------------------------------
 Symbolic Z-matrix:
 Charge =  0 Multiplicity = 1

                         Standard orientation:
 ---------------------------------------------------------------------
 Center     Atomic      Atomic             Coordinates (Angstroms)
 Number     Number       Type             X           Y           Z
 ---------------------------------------------------------------------
      1          6           0        3.166306   -0.577581   -0.584359
      2          6           0        4.190818   -1.392224    0.206031
      3          6           0        4.252778   -2.854162   -0.237469
      4          1           0        2.175425   -1.038577   -0.472184
      5          1           0        3.414876   -0.627142   -1.653542
      6          1           0        3.941189   -1.340002    1.273540
      7          1           0        5.179341   -0.929125    0.092118
      8          1           0        4.524369   -2.924520   -1.295717
      9          1           0        3.279181   -3.337732   -0.107582
     10          1           0        4.991488   -3.418093    0.340589
     11          6           0        3.092701    0.885917   -0.152520
     12          6           0        2.068189    1.700560   -0.942910
     13          6           0        2.006229    3.162498   -0.499410
     14          1           0        2.844131    0.935479    0.916663
     15          1           0        4.083582    1.346913   -0.264695
     16          1           0        1.079665    1.237461   -0.828997
     17          1           0        2.317818    1.648338   -2.010419
     18          1           0        2.979826    3.646068   -0.629297
     19          1           0        1.734638    3.232856    0.558838
     20          1           0        1.267519    3.726429   -1.077468
     21          6           0       -3.606039   -0.644770    0.028358
     22          6           0       -4.893990    0.009527   -0.472706
     23          6           0       -5.837138   -0.984749   -1.150704
     24          1           0       -3.091842   -1.122084   -0.817052
     25          1           0       -3.861331   -1.448355    0.732966
     26          1           0       -4.636291    0.812551   -1.175102
     27          1           0       -5.405084    0.485502    0.373962
     28          1           0       -6.123048   -1.780317   -0.455054
     29          1           0       -5.349887   -1.451410   -2.012919
     30          1           0       -6.751430   -0.495812   -1.501235
     31          6           0       -2.652968    0.336434    0.708521
     32          6           0       -1.365017   -0.317862    1.209586
     33          6           0       -0.421868    0.676412    1.887583
     34          1           0       -2.397676    1.140019    0.003913
     35          1           0       -3.167165    0.813748    1.553931
     36          1           0       -0.853923   -0.793838    0.362918
     37          1           0       -1.622716   -1.120886    1.911981
     38          1           0       -0.909119    1.143074    2.749798
     39          1           0       -0.135958    1.471980    1.191934
     40          1           0        0.492423    0.187475    2.238114
 ---------------------------------------------------------------------

 SCF Done:  E(RHF) =  -470.732712379     A.U. after   11 cycles
 E2 =    -0.1584124020D+01 EUMP2 =    -0.47231683639936D+03

 The electronic state is 1-A.
 Alpha  occ. eigenvalues --  -11.21683 -11.21626 -11.21598 -11.21573 -11.21452
 Alpha  occ. eigenvalues --  -11.21389 -11.21381 -11.21312 -11.21106 -11.21089
 Alpha  occ. eigenvalues --  -11.21072 -11.21067  -1.08495  -1.08401  -1.03619
 Alpha  occ. eigenvalues --   -1.03490  -0.96034  -0.95970  -0.87056  -0.86981
 Alpha  occ. eigenvalues --   -0.79648  -0.79587  -0.78294  -0.78225  -0.65331
 Alpha  occ. eigenvalues --   -0.64896  -0.61308  -0.60624  -0.59406  -0.59332
 Alpha  occ. eigenvalues --   -0.57650  -0.57584  -0.55416  -0.55135  -0.52726
 Alpha  occ. eigenvalues --   -0.52669  -0.52473  -0.52355  -0.49998  -0.49874
 Alpha  occ. eigenvalues --   -0.48013  -0.47847  -0.46709  -0.46571  -0.45908
 Alpha  occ. eigenvalues --   -0.45774  -0.45701  -0.45626  -0.43816  -0.43772
 Alpha virt. eigenvalues --    0.19622   0.23023   0.23595   0.24480   0.25863
 Alpha virt. eigenvalues --    0.26102   0.26830   0.27755   0.28337   0.29599
 Alpha virt. eigenvalues --    0.30749   0.31220   0.31615   0.32102   0.32371

 Mulliken charges:
               1
     1  C   -0.300375
     2  C   -0.299509
     3  C   -0.475737
     4  H    0.150993
     5  H    0.149382
     6  H    0.151545
     7  H    0.152053
     8  H    0.155145
     9  H    0.155225
    10  H    0.160243
    11  C   -0.299388
    12  C   -0.303769
    13  C   -0.478538
    14  H    0.152593
    15  H    0.149458
    16  H    0.154745
    17  H    0.152266
    18  H    0.155794
    19  H    0.157342
    20  H    0.159726
    21  C   -0.298392
    22  C   -0.299716
    23  C   -0.475753
    24  H    0.149804
    25  H    0.149618
    26  H    0.152079
    27  H    0.152006
    28  H    0.155206
    29  H    0.155283
    30  H    0.160366
    31  C   -0.298645
    32  C   -0.302287
    33  C   -0.483202
    34  H    0.149687
    35  H    0.150084
    36  H    0.152768
    37  H    0.152476
    38  H    0.155539
    39  H    0.163115
    40  H    0.160769
 Sum of Mulliken charges =  -0.00000

 Dipole moment (field-independent basis, Debye):
    X=             -0.0177    Y=              0.0114    Z=              0.0132  Tot=              0.0248
 Quadrupole moment (field-independent basis, Debye-Ang):
   XX=            -84.6684   YY=            -86.2340   ZZ=            -83.8392
   XY=             -0.0164   XZ=             -1.2490   YZ=             -0.8332

 Normal termination of Gaussian 16 at Thu May  6 00:39:26 2021.
