 Gaussian 16, Revision A.03,
 Gaussian 16:  EM64L-G16RevA.03 25-Dec-2016

 -------------
 #p 6-31g* mp2
 -------------

 ------------------------------------------------------
 Input file generated by CHIRIPA (05-May-2021 14:57:21)
 ------------------------------------------------------
 Symbolic Z-matrix:
 Charge =  0 Multiplicity = 1

                         Standard orientation:
 ---------------------------------------------------------------------
 Center     Atomic      Atomic             Coordinates (Angstroms)
 Number     Number       Type             X           Y           Z
 ---------------------------------------------------------------------
      1          6           0        2.354113   -2.150909    1.182183
      2          6           0        1.628442   -1.707208    0.071754
      3          6           0        2.044377   -0.580825   -0.644353
      4          6           0        3.195762    0.080861   -0.220357
      5          6           0        3.940163   -0.336639    0.881846
      6          6           0        3.505627   -1.465417    1.582978
      7          1           0        2.023780   -3.026840    1.732655
      8          1           0        0.733782   -2.237601   -0.241791
      9          1           0        1.501468   -0.215646   -1.507668
     10          1           0        4.828006    0.212828    1.170357
     11          1           0        4.071171   -1.807729    2.444969
     12          7           0        3.645940    1.274580   -0.970541
     13          8           0        4.663688    1.840012   -0.576698
     14          8           0        2.972517    1.622181   -1.938173
     15          6           0       -2.972361    2.248721    1.436361
     16          6           0       -3.941856    2.116275    0.436832
     17          6           0       -4.033726    0.939049   -0.311666
     18          6           0       -3.135993   -0.090317   -0.032794
     19          6           0       -2.159133    0.011373    0.956497
     20          6           0       -2.085657    1.197700    1.692551
     21          1           0       -2.908137    3.166753    2.012979
     22          1           0       -4.631802    2.930865    0.235686
     23          1           0       -4.774635    0.809805   -1.091260
     24          1           0       -1.485285   -0.817990    1.133987
     25          1           0       -1.331723    1.297761    2.468192
     26          7           0       -3.223515   -1.341411   -0.818609
     27          8           0       -2.420854   -2.233645   -0.553485
     28          8           0       -4.093120   -1.406094   -1.684774
 ---------------------------------------------------------------------

 SCF Done:  E(RHF) =  -868.339775880     A.U. after   16 cycles
 E2 =    -0.2599427127D+01 EUMP2 =    -0.87093920300713D+03

 The electronic state is 1-A.
 Alpha  occ. eigenvalues --  -20.61482 -20.61410 -20.60817 -20.60808 -15.86480
 Alpha  occ. eigenvalues --  -15.85864 -11.31608 -11.31200 -11.28175 -11.28117
 Alpha  occ. eigenvalues --  -11.27814 -11.27783 -11.27702 -11.27462 -11.27105
 Alpha  occ. eigenvalues --  -11.27077 -11.26789 -11.26592  -1.60506  -1.59893
 Alpha  occ. eigenvalues --   -1.40073  -1.39446  -1.19751  -1.19361  -1.09183
 Alpha  occ. eigenvalues --   -1.08756  -1.05120  -1.04733  -0.96062  -0.95598
 Alpha  occ. eigenvalues --   -0.86532  -0.86123  -0.82907  -0.82411  -0.77999
 Alpha  occ. eigenvalues --   -0.77459  -0.72708  -0.72079  -0.71815  -0.71220
 Alpha  occ. eigenvalues --   -0.70855  -0.70449  -0.65409  -0.65128  -0.64992
 Alpha  occ. eigenvalues --   -0.64668  -0.62494  -0.62029  -0.55614  -0.55223
 Alpha  occ. eigenvalues --   -0.53462  -0.53257  -0.53056  -0.52764  -0.49474
 Alpha  occ. eigenvalues --   -0.49423  -0.48840  -0.48833  -0.45524  -0.44857
 Alpha  occ. eigenvalues --   -0.37706  -0.37360  -0.36751  -0.36310
 Alpha virt. eigenvalues --    0.04494   0.05043   0.10913   0.11215   0.16046
 Alpha virt. eigenvalues --    0.16504   0.20778   0.21783   0.26317   0.27357
 Alpha virt. eigenvalues --    0.28303   0.28603   0.30395   0.31321   0.32025

 Mulliken charges:
               1
     1  C   -0.174812
     2  C   -0.234118
     3  C   -0.173507
     4  C    0.157697
     5  C   -0.172487
     6  C   -0.219213
     7  H    0.227751
     8  H    0.245913
     9  H    0.278093
    10  H    0.274808
    11  H    0.222784
    12  N    0.487853
    13  O   -0.461467
    14  O   -0.459738
    15  C   -0.169210
    16  C   -0.217897
    17  C   -0.169985
    18  C    0.157808
    19  C   -0.172319
    20  C   -0.217879
    21  H    0.228314
    22  H    0.225770
    23  H    0.276655
    24  H    0.270518
    25  H    0.225286
    26  N    0.490094
    27  O   -0.471922
    28  O   -0.454790
 Sum of Mulliken charges =  -0.00000

 Dipole moment (field-independent basis, Debye):
    X=             -1.4913    Y=              0.3025    Z=              5.3631  Tot=              5.5748
 Quadrupole moment (field-independent basis, Debye-Ang):
   XX=           -111.2698   YY=           -106.4589   ZZ=           -103.7854
   XY=            -29.4215   XZ=              5.1859   YZ=              0.2092

 Normal termination of Gaussian 16 at Thu May  6 03:16:46 2021.
