 Gaussian 16, Revision A.03,
 Gaussian 16:  EM64L-G16RevA.03 25-Dec-2016

 -------------
 #p 6-31g* mp2
 -------------

 ------------------------------------------------------
 Input file generated by CHIRIPA (05-May-2021 14:57:24)
 ------------------------------------------------------
 Symbolic Z-matrix:
 Charge =  0 Multiplicity = 1

                         Standard orientation:
 ---------------------------------------------------------------------
 Center     Atomic      Atomic             Coordinates (Angstroms)
 Number     Number       Type             X           Y           Z
 ---------------------------------------------------------------------
      1          6           0       -3.160054   -2.381226   -0.075461
      2          6           0       -4.151905   -1.817588    0.733900
      3          6           0       -4.300177   -0.429656    0.812700
      4          6           0       -3.435436    0.368435    0.065329
      5          6           0       -2.437532   -0.163089   -0.750122
      6          6           0       -2.307536   -1.553636   -0.813588
      7          1           0       -3.051971   -3.460420   -0.130719
      8          1           0       -4.815402   -2.457857    1.308245
      9          1           0       -5.059478    0.033201    1.431282
     10          1           0       -1.791092    0.500947   -1.311004
     11          1           0       -1.536355   -1.988586   -1.442986
     12          7           0       -3.582731    1.839160    0.140634
     13          8           0       -2.808258    2.520511   -0.527639
     14          8           0       -4.469865    2.282715    0.866505
     15          6           0        5.527623    1.042789    0.668430
     16          6           0        4.684792    1.639971   -0.274720
     17          6           0        3.509558    1.001470   -0.681771
     18          6           0        3.206549   -0.239039   -0.122655
     19          6           0        4.025908   -0.859713    0.818995
     20          6           0        5.196076   -0.202950    1.211320
     21          1           0        6.438605    1.545886    0.978917
     22          1           0        4.939749    2.607369   -0.698020
     23          1           0        2.839091    1.441123   -1.410190
     24          1           0        3.745131   -1.824698    1.223204
     25          1           0        5.848745   -0.669105    1.943964
     26          7           0        1.965062   -0.924658   -0.545786
     27          8           0        1.720588   -2.017013   -0.038213
     28          8           0        1.259968   -0.356710   -1.376999
 ---------------------------------------------------------------------

 SCF Done:  E(RHF) =  -868.341380984     A.U. after   16 cycles
 E2 =    -0.2598826047D+01 EUMP2 =    -0.87094020703148D+03

 The electronic state is 1-A.
 Alpha  occ. eigenvalues --  -20.61602 -20.61596 -20.59851 -20.59844 -15.86594
 Alpha  occ. eigenvalues --  -15.84888 -11.31601 -11.29944 -11.28142 -11.28104
 Alpha  occ. eigenvalues --  -11.27815 -11.27078 -11.27043 -11.26557 -11.26287
 Alpha  occ. eigenvalues --  -11.26156 -11.25558 -11.25187  -1.60643  -1.58932
 Alpha  occ. eigenvalues --   -1.40206  -1.38492  -1.19741  -1.18080  -1.09208
 Alpha  occ. eigenvalues --   -1.07544  -1.05089  -1.03394  -0.96103  -0.94428
 Alpha  occ. eigenvalues --   -0.86506  -0.84824  -0.82951  -0.81244  -0.78029
 Alpha  occ. eigenvalues --   -0.76322  -0.72844  -0.71919  -0.71118  -0.70849
 Alpha  occ. eigenvalues --   -0.70250  -0.69195  -0.65400  -0.65093  -0.63715
 Alpha  occ. eigenvalues --   -0.63370  -0.62438  -0.60721  -0.55613  -0.53959
 Alpha  occ. eigenvalues --   -0.53436  -0.53177  -0.51804  -0.51460  -0.49601
 Alpha  occ. eigenvalues --   -0.49562  -0.47883  -0.47843  -0.45680  -0.43965
 Alpha  occ. eigenvalues --   -0.37703  -0.36672  -0.36086  -0.34979
 Alpha virt. eigenvalues --    0.04466   0.06148   0.10988   0.12647   0.16027
 Alpha virt. eigenvalues --    0.17716   0.21139   0.22848   0.27092   0.27942
 Alpha virt. eigenvalues --    0.28934   0.29579   0.30782   0.32245   0.32364

 Mulliken charges:
               1
     1  C   -0.172081
     2  C   -0.219465
     3  C   -0.174010
     4  C    0.156562
     5  C   -0.173641
     6  C   -0.216000
     7  H    0.223162
     8  H    0.217998
     9  H    0.270345
    10  H    0.282662
    11  H    0.240138
    12  N    0.488121
    13  O   -0.462884
    14  O   -0.465249
    15  C   -0.169460
    16  C   -0.218477
    17  C   -0.169254
    18  C    0.157829
    19  C   -0.170245
    20  C   -0.218666
    21  H    0.227598
    22  H    0.226350
    23  H    0.277754
    24  H    0.275010
    25  H    0.224589
    26  N    0.491333
    27  O   -0.461607
    28  O   -0.468410
 Sum of Mulliken charges =  -0.00000

 Dipole moment (field-independent basis, Debye):
    X=              5.5080    Y=             -2.8138    Z=              1.0967  Tot=              6.2816
 Quadrupole moment (field-independent basis, Debye-Ang):
   XX=            -78.9514   YY=           -107.8791   ZZ=           -102.3249
   XY=             25.0255   XZ=              3.8827   YZ=             -4.1255

 Normal termination of Gaussian 16 at Fri May  7 00:20:26 2021.
