 Gaussian 16, Revision A.03,
 Gaussian 16:  EM64L-G16RevA.03 25-Dec-2016

 -------------
 #p 6-31g* mp2
 -------------

 ------------------------------------------------------
 Input file generated by CHIRIPA (05-May-2021 14:55:22)
 ------------------------------------------------------
 Symbolic Z-matrix:
 Charge =  0 Multiplicity = 1

                         Standard orientation:
 ---------------------------------------------------------------------
 Center     Atomic      Atomic             Coordinates (Angstroms)
 Number     Number       Type             X           Y           Z
 ---------------------------------------------------------------------
      1          6           0       -1.419579    1.700305    1.589792
      2          6           0       -1.104477    0.376049    1.911626
      3          6           0       -1.694954   -0.683391    1.216305
      4          6           0       -2.600324   -0.380953    0.200369
      5          6           0       -2.934737    0.927891   -0.143703
      6          6           0       -2.332095    1.971522    0.564962
      7          1           0       -0.956158    2.517163    2.135117
      8          1           0       -0.396156    0.162439    2.707048
      9          1           0       -1.469073   -1.717891    1.444792
     10          1           0       -3.644523    1.109429   -0.941617
     11          1           0       -2.578701    2.998981    0.312856
     12          7           0       -3.231875   -1.494166   -0.542799
     13          8           0       -4.026386   -1.201208   -1.433622
     14          8           0       -2.920414   -2.638582   -0.220401
     15          6           0        2.775880    0.576264   -0.963680
     16          6           0        1.715462    1.540354   -0.430735
     17          6           0        0.884731    2.179537   -1.543895
     18          1           0        3.438655    1.115520   -1.654244
     19          1           0        2.283710   -0.209969   -1.552748
     20          1           0        2.209358    2.323753    0.158303
     21          1           0        1.055251    0.998785    0.258787
     22          1           0        0.365950    1.411636   -2.126815
     23          1           0        1.526614    2.744133   -2.227869
     24          1           0        0.132861    2.865035   -1.140605
     25          6           0        3.614486   -0.070711    0.137180
     26          6           0        4.674903   -1.034801   -0.395766
     27          6           0        5.505634   -1.673984    0.717394
     28          1           0        4.106655    0.715522    0.726247
     29          1           0        2.951710   -0.609967    0.827742
     30          1           0        5.335115   -0.493232   -1.085288
     31          1           0        4.181009   -1.818201   -0.984805
     32          1           0        4.863751   -2.238579    1.401367
     33          1           0        6.024415   -0.906083    1.300313
     34          1           0        6.257504   -2.359481    0.314104
 ---------------------------------------------------------------------

 SCF Done:  E(RHF) =  -669.534057545     A.U. after   15 cycles
 E2 =    -0.2094378362D+01 EUMP2 =    -0.67162843590665D+03

 The electronic state is 1-A.
 Alpha  occ. eigenvalues --  -20.60843 -20.60838 -15.85899 -11.31291 -11.27862
 Alpha  occ. eigenvalues --  -11.27858 -11.27589 -11.26869 -11.26849 -11.21819
 Alpha  occ. eigenvalues --  -11.21763 -11.21699 -11.21580 -11.21313 -11.21294
 Alpha  occ. eigenvalues --   -1.59919  -1.39472  -1.19478  -1.08886  -1.08663
 Alpha  occ. eigenvalues --   -1.04883  -1.03765  -0.96227  -0.95686  -0.87245
 Alpha  occ. eigenvalues --   -0.86274  -0.82518  -0.79844  -0.78515  -0.77562
 Alpha  occ. eigenvalues --   -0.72116  -0.71244  -0.70566  -0.65329  -0.65121
 Alpha  occ. eigenvalues --   -0.64879  -0.62221  -0.61197  -0.59642  -0.57884
 Alpha  occ. eigenvalues --   -0.55551  -0.55366  -0.53279  -0.52968  -0.52762
 Alpha  occ. eigenvalues --   -0.52636  -0.50167  -0.48877  -0.48869  -0.48166
 Alpha  occ. eigenvalues --   -0.46878  -0.46054  -0.45976  -0.44871  -0.44039
 Alpha  occ. eigenvalues --   -0.37345  -0.36397
 Alpha virt. eigenvalues --    0.04956   0.11050   0.16390   0.20895   0.22788
 Alpha virt. eigenvalues --    0.24122   0.26052   0.26664   0.27309   0.28202
 Alpha virt. eigenvalues --    0.28438   0.30582   0.31263   0.31615   0.31849

 Mulliken charges:
               1
     1  C   -0.166187
     2  C   -0.223000
     3  C   -0.170501
     4  C    0.158326
     5  C   -0.170185
     6  C   -0.216091
     7  H    0.227262
     8  H    0.224992
     9  H    0.275913
    10  H    0.276290
    11  H    0.224032
    12  N    0.488012
    13  O   -0.460008
    14  O   -0.460316
    15  C   -0.297932
    16  C   -0.308595
    17  C   -0.472891
    18  H    0.149918
    19  H    0.152466
    20  H    0.145156
    21  H    0.160810
    22  H    0.158286
    23  H    0.154448
    24  H    0.152488
    25  C   -0.297201
    26  C   -0.300061
    27  C   -0.475736
    28  H    0.147813
    29  H    0.144843
    30  H    0.152870
    31  H    0.154364
    32  H    0.154206
    33  H    0.154353
    34  H    0.161856
 Sum of Mulliken charges =  -0.00000

 Dipole moment (field-independent basis, Debye):
    X=              2.1228    Y=              3.8731    Z=              2.6248  Tot=              5.1377
 Quadrupole moment (field-independent basis, Debye-Ang):
   XX=           -105.6679   YY=            -95.8573   ZZ=            -93.0913
   XY=            -12.4894   XZ=             -5.4179   YZ=             -1.7992

 Normal termination of Gaussian 16 at Thu May  6 04:40:10 2021.
