 Gaussian 16, Revision A.03,
 Gaussian 16:  EM64L-G16RevA.03 25-Dec-2016

 -------------
 #p 6-31g* mp2
 -------------

 ------------------------------------------------------
 Input file generated by CHIRIPA (05-May-2021 14:57:26)
 ------------------------------------------------------
 Symbolic Z-matrix:
 Charge =  0 Multiplicity = 1

                         Standard orientation:
 ---------------------------------------------------------------------
 Center     Atomic      Atomic             Coordinates (Angstroms)
 Number     Number       Type             X           Y           Z
 ---------------------------------------------------------------------
      1          6           0        1.712590    1.525168   -0.455733
      2          6           0        1.733224    0.263128   -1.058518
      3          6           0        2.797445   -0.614694   -0.831781
      4          6           0        3.829052   -0.196055    0.007158
      5          6           0        3.837231    1.054892    0.622263
      6          6           0        2.762807    1.916332    0.381259
      7          1           0        0.881915    2.200718   -0.637409
      8          1           0        0.918976   -0.043330   -1.709002
      9          1           0        2.838776   -1.597419   -1.285612
     10          1           0        4.663289    1.332207    1.265801
     11          1           0        2.749440    2.895852    0.850734
     12          7           0        4.961095   -1.116695    0.254747
     13          8           0        5.857805   -0.724085    0.997987
     14          8           0        4.930246   -2.213470   -0.299120
     15          6           0       -5.289423   -1.808835    0.501941
     16          6           0       -4.759441   -1.651477   -0.782925
     17          6           0       -3.846170   -0.628205   -1.053844
     18          6           0       -3.483257    0.223479   -0.011625
     19          6           0       -3.993727    0.092425    1.278930
     20          6           0       -4.905551   -0.937917    1.526960
     21          1           0       -5.998312   -2.606484    0.703506
     22          1           0       -5.055754   -2.326360   -1.580907
     23          1           0       -3.420379   -0.483683   -2.039355
     24          1           0       -3.679297    0.780807    2.053968
     25          1           0       -5.315517   -1.057745    2.525767
     26          7           0       -2.517184    1.310514   -0.286319
     27          8           0       -2.213541    2.047658    0.649126
     28          8           0       -2.081910    1.404806   -1.431869
 ---------------------------------------------------------------------

 SCF Done:  E(RHF) =  -868.341573663     A.U. after   16 cycles
 E2 =    -0.2598672408D+01 EUMP2 =    -0.87094024607124D+03

 The electronic state is 1-A.
 Alpha  occ. eigenvalues --  -20.62093 -20.62055 -20.60088 -20.60082 -15.87057
 Alpha  occ. eigenvalues --  -15.85135 -11.32033 -11.30249 -11.28565 -11.28534
 Alpha  occ. eigenvalues --  -11.28208 -11.27474 -11.27455 -11.26822 -11.26818
 Alpha  occ. eigenvalues --  -11.26214 -11.25675 -11.25623  -1.61120  -1.59170
 Alpha  occ. eigenvalues --   -1.40681  -1.38731  -1.20164  -1.18381  -1.09632
 Alpha  occ. eigenvalues --   -1.07760  -1.05506  -1.03763  -0.96532  -0.94645
 Alpha  occ. eigenvalues --   -0.86922  -0.85131  -0.83379  -0.81510  -0.78472
 Alpha  occ. eigenvalues --   -0.76643  -0.73287  -0.72410  -0.71355  -0.71263
 Alpha  occ. eigenvalues --   -0.70494  -0.69320  -0.65818  -0.65501  -0.63999
 Alpha  occ. eigenvalues --   -0.63720  -0.62858  -0.61127  -0.56019  -0.54055
 Alpha  occ. eigenvalues --   -0.53844  -0.53590  -0.52097  -0.51822  -0.50066
 Alpha  occ. eigenvalues --   -0.50014  -0.48127  -0.48086  -0.46162  -0.44195
 Alpha  occ. eigenvalues --   -0.38114  -0.37089  -0.36260  -0.35405
 Alpha virt. eigenvalues --    0.03998   0.05904   0.10572   0.12274   0.15566
 Alpha virt. eigenvalues --    0.17489   0.20738   0.22729   0.26683   0.27528
 Alpha virt. eigenvalues --    0.28361   0.29665   0.30513   0.31726   0.32571

 Mulliken charges:
               1
     1  C   -0.175167
     2  C   -0.224861
     3  C   -0.172821
     4  C    0.156674
     5  C   -0.172337
     6  C   -0.220334
     7  H    0.249585
     8  H    0.227209
     9  H    0.270641
    10  H    0.272033
    11  H    0.222888
    12  N    0.488359
    13  O   -0.463143
    14  O   -0.464097
    15  C   -0.169150
    16  C   -0.218313
    17  C   -0.171169
    18  C    0.158403
    19  C   -0.169674
    20  C   -0.218355
    21  H    0.228988
    22  H    0.226085
    23  H    0.274330
    24  H    0.276751
    25  H    0.226553
    26  N    0.489591
    27  O   -0.459267
    28  O   -0.469402
 Sum of Mulliken charges =  -0.00000

 Dipole moment (field-independent basis, Debye):
    X=             -8.0405    Y=             -0.5010    Z=              0.1578  Tot=              8.0576
 Quadrupole moment (field-independent basis, Debye-Ang):
   XX=           -112.2473   YY=           -105.7870   ZZ=            -99.0785
   XY=             28.5083   XZ=             -6.0794   YZ=              4.3727

 Normal termination of Gaussian 16 at Fri May  7 12:42:15 2021.
