 Gaussian 16, Revision A.03,
 Gaussian 16:  EM64L-G16RevA.03 25-Dec-2016

 -------------
 #p 6-31g* mp2
 -------------

 ------------------------------------------------------
 Input file generated by CHIRIPA (05-May-2021 14:57:23)
 ------------------------------------------------------
 Symbolic Z-matrix:
 Charge =  0 Multiplicity = 1

                         Standard orientation:
 ---------------------------------------------------------------------
 Center     Atomic      Atomic             Coordinates (Angstroms)
 Number     Number       Type             X           Y           Z
 ---------------------------------------------------------------------
      1          6           0        5.835656   -1.343791   -0.147275
      2          6           0        5.777864   -0.099923   -0.784435
      3          6           0        4.606185    0.661978   -0.749459
      4          6           0        3.506179    0.147209   -0.065143
      5          6           0        3.532605   -1.088543    0.579457
      6          6           0        4.714818   -1.833268    0.531441
      7          1           0        6.749935   -1.928983   -0.179510
      8          1           0        6.646776    0.282717   -1.312283
      9          1           0        4.533957    1.628067   -1.234096
     10          1           0        2.650144   -1.443575    1.097754
     11          1           0        4.756818   -2.798945    1.027173
     12          7           0        2.260199    0.944708   -0.021213
     13          8           0        1.304842    0.468905    0.588329
     14          8           0        2.262550    2.030490   -0.597155
     15          6           0       -2.425437    2.008552    0.855966
     16          6           0       -3.393864    2.138762   -0.144892
     17          6           0       -4.112530    1.023970   -0.586827
     18          6           0       -3.835866   -0.211475   -0.003371
     19          6           0       -2.877180   -0.373413    0.995624
     20          6           0       -2.170636    0.755090    1.422031
     21          1           0       -1.871868    2.879874    1.193241
     22          1           0       -3.593854    3.110977   -0.586307
     23          1           0       -4.867707    1.096357   -1.360057
     24          1           0       -2.700039   -1.355633    1.416671
     25          1           0       -1.419115    0.650988    2.199479
     26          7           0       -4.590270   -1.398913   -0.463008
     27          8           0       -4.327770   -2.476309    0.067038
     28          8           0       -5.429786   -1.229747   -1.344616
 ---------------------------------------------------------------------

 SCF Done:  E(RHF) =  -868.339500802     A.U. after   16 cycles
 E2 =    -0.2598737289D+01 EUMP2 =    -0.87093823809147D+03

 The electronic state is 1-A.
 Alpha  occ. eigenvalues --  -20.61495 -20.61472 -20.59907 -20.59902 -15.86524
 Alpha  occ. eigenvalues --  -15.84949 -11.31677 -11.30029 -11.28227 -11.28214
 Alpha  occ. eigenvalues --  -11.27915 -11.27185 -11.27175 -11.26579 -11.26511
 Alpha  occ. eigenvalues --  -11.26143 -11.25540 -11.25384  -1.60554  -1.58988
 Alpha  occ. eigenvalues --   -1.40115  -1.38550  -1.19828  -1.18145  -1.09261
 Alpha  occ. eigenvalues --   -1.07574  -1.05200  -1.03508  -0.96134  -0.94471
 Alpha  occ. eigenvalues --   -0.86608  -0.84910  -0.82976  -0.81324  -0.78048
 Alpha  occ. eigenvalues --   -0.76425  -0.72764  -0.71857  -0.71178  -0.70934
 Alpha  occ. eigenvalues --   -0.70306  -0.69234  -0.65487  -0.65200  -0.63794
 Alpha  occ. eigenvalues --   -0.63495  -0.62552  -0.60880  -0.55704  -0.53972
 Alpha  occ. eigenvalues --   -0.53538  -0.53289  -0.51843  -0.51601  -0.49515
 Alpha  occ. eigenvalues --   -0.49483  -0.47947  -0.47903  -0.45565  -0.44022
 Alpha  occ. eigenvalues --   -0.37792  -0.36793  -0.36046  -0.35074
 Alpha virt. eigenvalues --    0.04474   0.06098   0.10865   0.12585   0.16010
 Alpha virt. eigenvalues --    0.17699   0.21023   0.22688   0.26947   0.27831
 Alpha virt. eigenvalues --    0.28580   0.29547   0.30617   0.32001   0.32344

 Mulliken charges:
               1
     1  C   -0.169982
     2  C   -0.218450
     3  C   -0.170507
     4  C    0.158020
     5  C   -0.170218
     6  C   -0.218308
     7  H    0.227540
     8  H    0.224932
     9  H    0.275777
    10  H    0.274125
    11  H    0.225357
    12  N    0.490852
    13  O   -0.467903
    14  O   -0.460095
    15  C   -0.165555
    16  C   -0.219009
    17  C   -0.173359
    18  C    0.157413
    19  C   -0.174403
    20  C   -0.202410
    21  H    0.227737
    22  H    0.219928
    23  H    0.271087
    24  H    0.269994
    25  H    0.227454
    26  N    0.488279
    27  O   -0.464464
    28  O   -0.463833
 Sum of Mulliken charges =  -0.00000

 Dipole moment (field-independent basis, Debye):
    X=              7.5596    Y=              1.4788    Z=              1.5374  Tot=              7.8548
 Quadrupole moment (field-independent basis, Debye-Ang):
   XX=            -94.0364   YY=           -103.9890   ZZ=           -102.3261
   XY=            -26.4522   XZ=             -6.9545   YZ=             -4.5209

 Normal termination of Gaussian 16 at Thu May  6 17:59:10 2021.
