 Gaussian 16, Revision A.03,
 Gaussian 16:  EM64L-G16RevA.03 25-Dec-2016

 -------------
 #p 6-31g* mp2
 -------------

 ------------------------------------------------------
 Input file generated by CHIRIPA (05-May-2021 14:55:20)
 ------------------------------------------------------
 Symbolic Z-matrix:
 Charge =  0 Multiplicity = 1

                         Standard orientation:
 ---------------------------------------------------------------------
 Center     Atomic      Atomic             Coordinates (Angstroms)
 Number     Number       Type             X           Y           Z
 ---------------------------------------------------------------------
      1          6           0        5.297479   -0.440229   -0.133087
      2          6           0        4.484608   -0.721359   -1.236141
      3          6           0        3.098206   -0.560116   -1.155905
      4          6           0        2.555774   -0.113956    0.048253
      5          6           0        3.339110    0.174433    1.164724
      6          6           0        4.723149    0.005983    1.061718
      7          1           0        6.373552   -0.568286   -0.204260
      8          1           0        4.927886   -1.068040   -2.165314
      9          1           0        2.445484   -0.770441   -1.994437
     10          1           0        2.868199    0.518474    2.077574
     11          1           0        5.351980    0.225079    1.919980
     12          7           0        1.089303    0.060559    0.145248
     13          8           0        0.635928    0.454934    1.217422
     14          8           0        0.421026   -0.200334   -0.852738
     15          6           0       -3.417069    0.791933   -0.471939
     16          6           0       -2.849982    1.965187    0.327981
     17          6           0       -2.527481    3.176574   -0.547420
     18          1           0       -2.695721    0.503217   -1.248629
     19          1           0       -4.325872    1.119421   -0.995603
     20          1           0       -1.943289    1.635203    0.851081
     21          1           0       -3.572680    2.251018    1.102979
     22          1           0       -3.427649    3.533174   -1.058437
     23          1           0       -1.788998    2.913859   -1.311766
     24          1           0       -2.123377    4.003596    0.044690
     25          6           0       -3.744443   -0.426574    0.389336
     26          6           0       -4.311531   -1.599827   -0.410586
     27          6           0       -4.634031   -2.811215    0.464816
     28          1           0       -2.835640   -0.754061    0.912998
     29          1           0       -4.465792   -0.137858    1.166024
     30          1           0       -3.588832   -1.885660   -1.185584
     31          1           0       -5.218223   -1.269844   -0.933686
     32          1           0       -5.372514   -2.548499    1.229161
     33          1           0       -3.733864   -3.167815    0.975833
     34          1           0       -5.038136   -3.638237   -0.127295
 ---------------------------------------------------------------------

 SCF Done:  E(RHF) =  -669.537302246     A.U. after   15 cycles
 E2 =    -0.2092175898D+01 EUMP2 =    -0.67162947814382D+03

 The electronic state is 1-A.
 Alpha  occ. eigenvalues --  -20.61246 -20.61233 -15.86227 -11.31454 -11.27999
 Alpha  occ. eigenvalues --  -11.27995 -11.27719 -11.26982 -11.26972 -11.20309
 Alpha  occ. eigenvalues --  -11.20041 -11.19749 -11.19635 -11.19566 -11.19527
 Alpha  occ. eigenvalues --   -1.60266  -1.39826  -1.19607  -1.09031  -1.06782
 Alpha  occ. eigenvalues --   -1.04987  -1.02020  -0.95886  -0.94518  -0.86392
 Alpha  occ. eigenvalues --   -0.85547  -0.82724  -0.78100  -0.77790  -0.76560
 Alpha  occ. eigenvalues --   -0.72432  -0.71565  -0.70714  -0.65263  -0.64993
 Alpha  occ. eigenvalues --   -0.63384  -0.62334  -0.59408  -0.57914  -0.56129
 Alpha  occ. eigenvalues --   -0.55493  -0.53802  -0.53322  -0.53076  -0.51286
 Alpha  occ. eigenvalues --   -0.50956  -0.49282  -0.49203  -0.48407  -0.46421
 Alpha  occ. eigenvalues --   -0.45305  -0.45035  -0.44114  -0.43883  -0.42240
 Alpha  occ. eigenvalues --   -0.37580  -0.36582
 Alpha virt. eigenvalues --    0.04722   0.11075   0.16241   0.21209   0.24469
 Alpha virt. eigenvalues --    0.25747   0.27147   0.27985   0.28445   0.29100
 Alpha virt. eigenvalues --    0.29415   0.30825   0.32315   0.32779   0.33174

 Mulliken charges:
               1
     1  C   -0.170182
     2  C   -0.218611
     3  C   -0.170492
     4  C    0.158161
     5  C   -0.170386
     6  C   -0.218595
     7  H    0.226623
     8  H    0.224412
     9  H    0.276049
    10  H    0.276224
    11  H    0.224430
    12  N    0.489635
    13  O   -0.458431
    14  O   -0.459845
    15  C   -0.298186
    16  C   -0.310207
    17  C   -0.475117
    18  H    0.162547
    19  H    0.138794
    20  H    0.180360
    21  H    0.141598
    22  H    0.147918
    23  H    0.156202
    24  H    0.153720
    25  C   -0.299090
    26  C   -0.299114
    27  C   -0.474689
    28  H    0.160586
    29  H    0.142552
    30  H    0.153748
    31  H    0.147074
    32  H    0.152408
    33  H    0.154642
    34  H    0.155265
 Sum of Mulliken charges =  -0.00000

 Dipole moment (field-independent basis, Debye):
    X=              5.7495    Y=             -0.7263    Z=             -0.3094  Tot=              5.8035
 Quadrupole moment (field-independent basis, Debye-Ang):
   XX=            -69.8215   YY=            -96.9089   ZZ=            -90.5975
   XY=             -2.4252   XZ=             -0.1533   YZ=              2.3900

 Normal termination of Gaussian 16 at Thu May  6 01:22:22 2021.
