 Gaussian 16, Revision A.03,
 Gaussian 16:  EM64L-G16RevA.03 25-Dec-2016

 -------------
 #p 6-31g* mp2
 -------------

 ------------------------------------------------------
 Input file generated by CHIRIPA (05-May-2021 14:57:26)
 ------------------------------------------------------
 Symbolic Z-matrix:
 Charge =  0 Multiplicity = 1

                         Standard orientation:
 ---------------------------------------------------------------------
 Center     Atomic      Atomic             Coordinates (Angstroms)
 Number     Number       Type             X           Y           Z
 ---------------------------------------------------------------------
      1          6           0        1.759788    1.627155    1.859485
      2          6           0        2.662562    2.244638    0.987570
      3          6           0        3.380449    1.488405    0.056282
      4          6           0        3.169962    0.110741    0.024223
      5          6           0        2.277577   -0.533651    0.879615
      6          6           0        1.570511    0.242422    1.802824
      7          1           0        1.206319    2.222321    2.579794
      8          1           0        2.811583    3.319857    1.029317
      9          1           0        4.085585    1.940694   -0.630476
     10          1           0        2.150373   -1.607412    0.814227
     11          1           0        0.870059   -0.239822    2.478733
     12          7           0        3.924230   -0.700351   -0.957414
     13          8           0        3.720767   -1.912445   -0.965589
     14          8           0        4.704605   -0.108632   -1.700058
     15          6           0       -4.385356    1.754238   -0.945273
     16          6           0       -3.015294    1.685112   -1.218540
     17          6           0       -2.263091    0.582496   -0.802638
     18          6           0       -2.916132   -0.437642   -0.112606
     19          6           0       -4.279626   -0.397883    0.174786
     20          6           0       -5.012044    0.714353   -0.250707
     21          1           0       -4.962000    2.614512   -1.272081
     22          1           0       -2.525949    2.491228   -1.757766
     23          1           0       -1.201082    0.503294   -1.000843
     24          1           0       -4.739502   -1.216978    0.714244
     25          1           0       -6.075910    0.765344   -0.037085
     26          7           0       -2.130281   -1.610024    0.332768
     27          8           0       -2.729190   -2.495664    0.939058
     28          8           0       -0.930302   -1.621099    0.067129
 ---------------------------------------------------------------------

 SCF Done:  E(RHF) =  -868.338962056     A.U. after   16 cycles
 E2 =    -0.2600039878D+01 EUMP2 =    -0.87093900193407D+03

 The electronic state is 1-A.
 Alpha  occ. eigenvalues --  -20.61378 -20.61366 -20.60201 -20.60163 -15.86403
 Alpha  occ. eigenvalues --  -15.85235 -11.31628 -11.30555 -11.28189 -11.28157
 Alpha  occ. eigenvalues --  -11.27909 -11.27231 -11.27169 -11.27154 -11.26983
 Alpha  occ. eigenvalues --  -11.26962 -11.26271 -11.26050  -1.60445  -1.59263
 Alpha  occ. eigenvalues --   -1.40000  -1.38814  -1.19794  -1.18760  -1.09218
 Alpha  occ. eigenvalues --   -1.08185  -1.05170  -1.04122  -0.96074  -0.95006
 Alpha  occ. eigenvalues --   -0.86574  -0.85543  -0.82912  -0.81812  -0.77970
 Alpha  occ. eigenvalues --   -0.76846  -0.72641  -0.71766  -0.71453  -0.70892
 Alpha  occ. eigenvalues --   -0.70589  -0.69875  -0.65447  -0.65167  -0.64400
 Alpha  occ. eigenvalues --   -0.64130  -0.62509  -0.61437  -0.55678  -0.54701
 Alpha  occ. eigenvalues --   -0.53518  -0.53257  -0.52511  -0.52204  -0.49392
 Alpha  occ. eigenvalues --   -0.49373  -0.48225  -0.48196  -0.45434  -0.44225
 Alpha  occ. eigenvalues --   -0.37778  -0.36844  -0.36745  -0.35680
 Alpha virt. eigenvalues --    0.04510   0.05679   0.10872   0.11920   0.16007
 Alpha virt. eigenvalues --    0.17165   0.21049   0.22018   0.26969   0.27826
 Alpha virt. eigenvalues --    0.28055   0.28926   0.30609   0.31502   0.32109

 Mulliken charges:
               1
     1  C   -0.175587
     2  C   -0.221657
     3  C   -0.174066
     4  C    0.152737
     5  C   -0.159472
     6  C   -0.218262
     7  H    0.221651
     8  H    0.218807
     9  H    0.272493
    10  H    0.287552
    11  H    0.227832
    12  N    0.487919
    13  O   -0.455959
    14  O   -0.465180
    15  C   -0.170424
    16  C   -0.219454
    17  C   -0.171586
    18  C    0.156111
    19  C   -0.171040
    20  C   -0.218892
    21  H    0.226795
    22  H    0.224758
    23  H    0.278880
    24  H    0.276093
    25  H    0.224601
    26  N    0.489092
    27  O   -0.458474
    28  O   -0.465268
 Sum of Mulliken charges =  -0.00000

 Dipole moment (field-independent basis, Debye):
    X=             -5.6792    Y=              6.7058    Z=              1.8925  Tot=              8.9890
 Quadrupole moment (field-independent basis, Debye-Ang):
   XX=           -102.2564   YY=           -104.5286   ZZ=           -104.3500
   XY=              1.0189   XZ=             13.3422   YZ=             -2.1978

 Normal termination of Gaussian 16 at Fri May  7 02:02:24 2021.
