 Gaussian 16, Revision A.03,
 Gaussian 16:  EM64L-G16RevA.03 25-Dec-2016

 -------------
 #p 6-31g* mp2
 -------------

 ------------------------------------------------------
 Input file generated by CHIRIPA (05-May-2021 14:51:07)
 ------------------------------------------------------
 Symbolic Z-matrix:
 Charge =  0 Multiplicity = 1

                         Standard orientation:
 ---------------------------------------------------------------------
 Center     Atomic      Atomic             Coordinates (Angstroms)
 Number     Number       Type             X           Y           Z
 ---------------------------------------------------------------------
      1          6           0       -3.126935    1.213093   -0.327120
      2          6           0       -2.021006    1.750475    0.581795
      3          6           0       -1.498124    3.115403    0.133062
      4          1           0       -2.745594    1.141437   -1.354928
      5          1           0       -3.955437    1.934496   -0.350707
      6          1           0       -1.195425    1.027630    0.604754
      7          1           0       -2.404965    1.820678    1.607593
      8          1           0       -2.305734    3.854549    0.127662
      9          1           0       -1.089322    3.056995   -0.880876
     10          1           0       -0.708281    3.480751    0.796786
     11          6           0       -3.659901   -0.150681    0.108537
     12          6           0       -4.765830   -0.688063   -0.800378
     13          6           0       -5.288712   -2.052991   -0.351645
     14          1           0       -2.831400   -0.872085    0.132124
     15          1           0       -4.041242   -0.079026    1.136345
     16          1           0       -4.381871   -0.758267   -1.826177
     17          1           0       -5.591412    0.034782   -0.823337
     18          1           0       -5.697515   -1.994583    0.662293
     19          1           0       -4.481102   -2.792138   -0.346245
     20          1           0       -6.078555   -2.418339   -1.015369
     21          6           0        2.864066   -0.653741    0.646138
     22          6           0        1.511418   -1.083264    0.077072
     23          6           0        0.462818   -1.324627    1.163341
     24          1           0        3.224221   -1.425160    1.340506
     25          1           0        2.730716    0.262187    1.238329
     26          1           0        1.647516   -1.997338   -0.515011
     27          1           0        1.154531   -0.310823   -0.616168
     28          1           0        0.297794   -0.414201    1.748572
     29          1           0        0.793580   -2.110299    1.850303
     30          1           0       -0.496437   -1.630753    0.734416
     31          6           0        3.922770   -0.408671   -0.427555
     32          6           0        5.275419    0.020853    0.141511
     33          6           0        6.324018    0.262215   -0.944757
     34          1           0        4.056119   -1.324598   -1.019746
     35          1           0        3.562615    0.362748   -1.121922
     36          1           0        5.632305   -0.751588    0.834751
     37          1           0        5.139320    0.934926    0.733595
     38          1           0        5.993257    1.047888   -1.631719
     39          1           0        6.489042   -0.648210   -1.529988
     40          1           0        7.283273    0.568341   -0.515833
 ---------------------------------------------------------------------

 SCF Done:  E(RHF) =  -470.732521719     A.U. after   11 cycles
 E2 =    -0.1583717997D+01 EUMP2 =    -0.47231623971620D+03

 The electronic state is 1-A.
 Alpha  occ. eigenvalues --  -11.21670 -11.21622 -11.21586 -11.21499 -11.21441
 Alpha  occ. eigenvalues --  -11.21380 -11.21375 -11.21316 -11.21100 -11.21086
 Alpha  occ. eigenvalues --  -11.21062 -11.21060  -1.08478  -1.08396  -1.03591
 Alpha  occ. eigenvalues --   -1.03490  -0.96026  -0.95961  -0.87051  -0.86969
 Alpha  occ. eigenvalues --   -0.79667  -0.79547  -0.78288  -0.78207  -0.65207
 Alpha  occ. eigenvalues --   -0.64965  -0.61169  -0.60736  -0.59405  -0.59320
 Alpha  occ. eigenvalues --   -0.57684  -0.57526  -0.55363  -0.55218  -0.52773
 Alpha  occ. eigenvalues --   -0.52616  -0.52473  -0.52352  -0.50074  -0.49839
 Alpha  occ. eigenvalues --   -0.48023  -0.47801  -0.46750  -0.46511  -0.45836
 Alpha  occ. eigenvalues --   -0.45768  -0.45720  -0.45578  -0.43799  -0.43740
 Alpha virt. eigenvalues --    0.20739   0.23059   0.23826   0.24345   0.26288
 Alpha virt. eigenvalues --    0.26608   0.26897   0.27530   0.27869   0.28929
 Alpha virt. eigenvalues --    0.30801   0.31163   0.31704   0.31899   0.32169

 Mulliken charges:
               1
     1  C   -0.297363
     2  C   -0.310327
     3  C   -0.475138
     4  H    0.148940
     5  H    0.149292
     6  H    0.165471
     7  H    0.151173
     8  H    0.155168
     9  H    0.154447
    10  H    0.159273
    11  C   -0.303829
    12  C   -0.299355
    13  C   -0.475609
    14  H    0.154303
    15  H    0.149816
    16  H    0.151759
    17  H    0.151994
    18  H    0.155298
    19  H    0.154823
    20  H    0.160229
    21  C   -0.298267
    22  C   -0.301901
    23  C   -0.483990
    24  H    0.149945
    25  H    0.149794
    26  H    0.152305
    27  H    0.152492
    28  H    0.157833
    29  H    0.156777
    30  H    0.164304
    31  C   -0.298328
    32  C   -0.299700
    33  C   -0.475740
    34  H    0.149534
    35  H    0.149749
    36  H    0.151987
    37  H    0.152057
    38  H    0.155256
    39  H    0.155181
    40  H    0.160350
 Sum of Mulliken charges =  -0.00000

 Dipole moment (field-independent basis, Debye):
    X=              0.0294    Y=             -0.0263    Z=              0.0198  Tot=              0.0441
 Quadrupole moment (field-independent basis, Debye-Ang):
   XX=            -85.2326   YY=            -84.7256   ZZ=            -84.9256
   XY=             -1.2316   XZ=              0.2529   YZ=              0.5439

 Normal termination of Gaussian 16 at Wed May  5 18:04:54 2021.
