 Gaussian 16, Revision A.03,
 Gaussian 16:  EM64L-G16RevA.03 25-Dec-2016

 -------------
 #p 6-31g* mp2
 -------------

 ------------------------------------------------------
 Input file generated by CHIRIPA (05-May-2021 14:51:07)
 ------------------------------------------------------
 Symbolic Z-matrix:
 Charge =  0 Multiplicity = 1

                         Standard orientation:
 ---------------------------------------------------------------------
 Center     Atomic      Atomic             Coordinates (Angstroms)
 Number     Number       Type             X           Y           Z
 ---------------------------------------------------------------------
      1          6           0        3.021359   -0.552856   -0.068290
      2          6           0        3.120886    0.803365   -0.767391
      3          6           0        4.527004    1.096485   -1.291517
      4          1           0        3.738019   -0.582748    0.763846
      5          1           0        3.324080   -1.342363   -0.770026
      6          1           0        2.816743    1.589955   -0.064974
      7          1           0        2.403770    0.830103   -1.597840
      8          1           0        4.836362    0.332845   -2.012457
      9          1           0        5.251681    1.097015   -0.470881
     10          1           0        4.575519    2.070864   -1.787594
     11          6           0        1.621741   -0.860239    0.461156
     12          6           0        1.522213   -2.216460    1.160258
     13          6           0        0.116095   -2.509579    1.684384
     14          1           0        1.319019   -0.070731    1.162892
     15          1           0        0.905080   -0.830347   -0.370979
     16          1           0        2.239329   -2.243198    1.990707
     17          1           0        1.826356   -3.003050    0.457841
     18          1           0       -0.608582   -2.510109    0.863748
     19          1           0       -0.193263   -1.745940    2.405323
     20          1           0        0.067580   -3.483958    2.180460
     21          6           0       -2.369085    0.233381   -0.794168
     22          6           0       -3.175150   -1.032809   -0.502605
     23          6           0       -3.261263   -1.969437   -1.708052
     24          1           0       -2.825563    0.764148   -1.640844
     25          1           0       -1.356323   -0.050228   -1.112402
     26          1           0       -4.185663   -0.746859   -0.183683
     27          1           0       -2.716811   -1.560523    0.343599
     28          1           0       -2.261211   -2.283316   -2.024242
     29          1           0       -3.738408   -1.465030   -2.554520
     30          1           0       -3.841843   -2.868125   -1.477518
     31          6           0       -2.274014    1.179713    0.401301
     32          6           0       -1.467950    2.445904    0.109739
     33          6           0       -1.381836    3.382532    1.315186
     34          1           0       -3.286776    1.463323    0.719536
     35          1           0       -1.817536    0.648947    1.247977
     36          1           0       -1.926288    2.973617   -0.736465
     37          1           0       -0.457436    2.159954   -0.209183
     38          1           0       -0.904692    2.878125    2.161654
     39          1           0       -2.381888    3.696411    1.631376
     40          1           0       -0.801255    4.281220    1.084651
 ---------------------------------------------------------------------

 SCF Done:  E(RHF) =  -470.732908946     A.U. after   11 cycles
 E2 =    -0.1585062482D+01 EUMP2 =    -0.47231797142791D+03

 The electronic state is 1-A.
 Alpha  occ. eigenvalues --  -11.21700 -11.21677 -11.21523 -11.21520 -11.21503
 Alpha  occ. eigenvalues --  -11.21438 -11.21332 -11.21271 -11.21161 -11.21122
 Alpha  occ. eigenvalues --  -11.21073 -11.21040  -1.08540  -1.08356  -1.03621
 Alpha  occ. eigenvalues --   -1.03480  -0.96070  -0.95938  -0.87089  -0.86955
 Alpha  occ. eigenvalues --   -0.79690  -0.79539  -0.78371  -0.78165  -0.65240
 Alpha  occ. eigenvalues --   -0.64946  -0.61145  -0.60779  -0.59424  -0.59308
 Alpha  occ. eigenvalues --   -0.57680  -0.57545  -0.55462  -0.55142  -0.52756
 Alpha  occ. eigenvalues --   -0.52654  -0.52511  -0.52343  -0.50039  -0.49891
 Alpha  occ. eigenvalues --   -0.48099  -0.47797  -0.46767  -0.46493  -0.46225
 Alpha  occ. eigenvalues --   -0.45859  -0.45540  -0.45282  -0.43871  -0.43728
 Alpha virt. eigenvalues --    0.19504   0.22239   0.23274   0.24109   0.25214
 Alpha virt. eigenvalues --    0.25870   0.27152   0.27696   0.29243   0.30238
 Alpha virt. eigenvalues --    0.30378   0.31242   0.31730   0.31773   0.32344

 Mulliken charges:
               1
     1  C   -0.297964
     2  C   -0.301082
     3  C   -0.475786
     4  H    0.150070
     5  H    0.149801
     6  H    0.152767
     7  H    0.152262
     8  H    0.155389
     9  H    0.155393
    10  H    0.160672
    11  C   -0.305127
    12  C   -0.299548
    13  C   -0.482300
    14  H    0.150563
    15  H    0.154753
    16  H    0.152435
    17  H    0.152237
    18  H    0.161498
    19  H    0.155476
    20  H    0.161075
    21  C   -0.302715
    22  C   -0.305707
    23  C   -0.476044
    24  H    0.149401
    25  H    0.153425
    26  H    0.152242
    27  H    0.157722
    28  H    0.153700
    29  H    0.155477
    30  H    0.160429
    31  C   -0.299409
    32  C   -0.302642
    33  C   -0.475575
    34  H    0.149082
    35  H    0.151876
    36  H    0.151443
    37  H    0.155379
    38  H    0.154204
    39  H    0.155130
    40  H    0.159997
 Sum of Mulliken charges =  -0.00000

 Dipole moment (field-independent basis, Debye):
    X=              0.0513    Y=             -0.0308    Z=              0.0117  Tot=              0.0609
 Quadrupole moment (field-independent basis, Debye-Ang):
   XX=            -84.9148   YY=            -85.1118   ZZ=            -84.7095
   XY=             -0.7325   XZ=              0.7355   YZ=             -0.2712

 Normal termination of Gaussian 16 at Wed May  5 19:39:33 2021.
