 Gaussian 16, Revision A.03,
 Gaussian 16:  EM64L-G16RevA.03 25-Dec-2016

 -------------
 #p 6-31g* mp2
 -------------

 ------------------------------------------------------
 Input file generated by CHIRIPA (05-May-2021 14:53:15)
 ------------------------------------------------------
 Symbolic Z-matrix:
 Charge =  0 Multiplicity = 1

                         Standard orientation:
 ---------------------------------------------------------------------
 Center     Atomic      Atomic             Coordinates (Angstroms)
 Number     Number       Type             X           Y           Z
 ---------------------------------------------------------------------
      1          6           0       -3.131992    0.383514   -0.397356
      2          6           0       -2.903159   -1.123124   -0.272208
      3          6           0       -4.104348   -1.944496   -0.741557
      4          1           0       -4.019692    0.662873    0.186504
      5          1           0       -3.357354    0.627352   -1.444805
      6          1           0       -2.676933   -1.363861    0.774446
      7          1           0       -2.015789   -1.398900   -0.856278
      8          1           0       -4.328564   -1.733380   -1.792156
      9          1           0       -4.993465   -1.698142   -0.152166
     10          1           0       -3.919176   -3.018710   -0.643402
     11          6           0       -1.940026    1.218029    0.067972
     12          6           0       -2.168859    2.724667   -0.057177
     13          6           0       -0.967671    3.546038    0.412173
     14          1           0       -1.714665    0.974191    1.115421
     15          1           0       -1.052326    0.938669   -0.515888
     16          1           0       -3.056230    3.000442    0.526894
     17          1           0       -2.395085    2.965404   -1.103830
     18          1           0       -0.078553    3.299685   -0.177218
     19          1           0       -0.743454    3.334922    1.462771
     20          1           0       -1.152842    4.620253    0.314017
     21          6           0        3.676280    0.875773   -0.984301
     22          6           0        3.112700   -0.190036   -1.693491
     23          6           0        2.172589   -1.028360   -1.086899
     24          6           0        1.817389   -0.770750    0.236263
     25          6           0        2.361067    0.283046    0.969215
     26          6           0        3.299329    1.108502    0.342449
     27          1           0        4.405863    1.522004   -1.463351
     28          1           0        3.403562   -0.373158   -2.723982
     29          1           0        1.720552   -1.860617   -1.612664
     30          1           0        2.051274    0.440509    1.995203
     31          1           0        3.735363    1.935474    0.895655
     32          7           0        0.823113   -1.651434    0.889113
     33          8           0        0.526938   -1.403305    2.055882
     34          8           0        0.358803   -2.573168    0.221686
 ---------------------------------------------------------------------

 SCF Done:  E(RHF) =  -669.536483163     A.U. after   15 cycles
 E2 =    -0.2093520737D+01 EUMP2 =    -0.67163000389903D+03

 The electronic state is 1-A.
 Alpha  occ. eigenvalues --  -20.60926 -20.60921 -15.85925 -11.31271 -11.27838
 Alpha  occ. eigenvalues --  -11.27825 -11.27568 -11.26843 -11.26831 -11.21339
 Alpha  occ. eigenvalues --  -11.21011 -11.20897 -11.20664 -11.20392 -11.20124
 Alpha  occ. eigenvalues --   -1.59961  -1.39523  -1.19437  -1.08837  -1.07831
 Alpha  occ. eigenvalues --   -1.04833  -1.02902  -0.95679  -0.95416  -0.86443
 Alpha  occ. eigenvalues --   -0.86233  -0.82516  -0.79007  -0.77628  -0.77524
 Alpha  occ. eigenvalues --   -0.72163  -0.71241  -0.70543  -0.65094  -0.64835
 Alpha  occ. eigenvalues --   -0.64468  -0.62180  -0.60305  -0.58811  -0.56982
 Alpha  occ. eigenvalues --   -0.55337  -0.54733  -0.53167  -0.52924  -0.52117
 Alpha  occ. eigenvalues --   -0.51839  -0.49394  -0.48941  -0.48925  -0.47338
 Alpha  occ. eigenvalues --   -0.46050  -0.45379  -0.45042  -0.44491  -0.43164
 Alpha  occ. eigenvalues --   -0.37396  -0.36428
 Alpha virt. eigenvalues --    0.04931   0.11197   0.16387   0.21302   0.23311
 Alpha virt. eigenvalues --    0.24871   0.26875   0.27324   0.27531   0.28350
 Alpha virt. eigenvalues --    0.28605   0.30895   0.31956   0.32113   0.32474

 Mulliken charges:
               1
     1  C   -0.297776
     2  C   -0.304490
     3  C   -0.476152
     4  H    0.147801
     5  H    0.144667
     6  H    0.165370
     7  H    0.157503
     8  H    0.149162
     9  H    0.151566
    10  H    0.164332
    11  C   -0.303723
    12  C   -0.298179
    13  C   -0.476185
    14  H    0.157722
    15  H    0.143482
    16  H    0.152729
    17  H    0.150166
    18  H    0.152134
    19  H    0.153922
    20  H    0.158428
    21  C   -0.170920
    22  C   -0.218539
    23  C   -0.172588
    24  C    0.160580
    25  C   -0.169703
    26  C   -0.218537
    27  H    0.226026
    28  H    0.223712
    29  H    0.275592
    30  H    0.275871
    31  H    0.224269
    32  N    0.489993
    33  O   -0.460183
    34  O   -0.458051
 Sum of Mulliken charges =  -0.00000

 Dipole moment (field-independent basis, Debye):
    X=              3.6437    Y=              2.9149    Z=             -2.1729  Tot=              5.1473
 Quadrupole moment (field-independent basis, Debye-Ang):
   XX=            -83.5274   YY=            -99.3887   ZZ=            -91.7432
   XY=              2.9815   XZ=             -4.0543   YZ=              4.8768

 Normal termination of Gaussian 16 at Thu May  6 09:01:32 2021.
