 Gaussian 16, Revision A.03,
 Gaussian 16:  EM64L-G16RevA.03 25-Dec-2016

 -------------
 #p 6-31g* mp2
 -------------

 ------------------------------------------------------
 Input file generated by CHIRIPA (05-May-2021 14:55:23)
 ------------------------------------------------------
 Symbolic Z-matrix:
 Charge =  0 Multiplicity = 1

                         Standard orientation:
 ---------------------------------------------------------------------
 Center     Atomic      Atomic             Coordinates (Angstroms)
 Number     Number       Type             X           Y           Z
 ---------------------------------------------------------------------
      1          6           0       -3.331745    2.131825    0.778411
      2          6           0       -4.166936    1.245475    0.090400
      3          6           0       -3.679758    0.014295   -0.358376
      4          6           0       -2.346223   -0.299677   -0.100699
      5          6           0       -1.489243    0.562120    0.582077
      6          6           0       -1.997915    1.787925    1.021625
      7          1           0       -3.718545    3.086148    1.123446
      8          1           0       -5.203232    1.509901   -0.099904
      9          1           0       -4.304402   -0.690679   -0.893399
     10          1           0       -0.460703    0.270590    0.756814
     11          1           0       -1.346995    2.474306    1.555693
     12          7           0       -1.819092   -1.600227   -0.570914
     13          8           0       -0.640455   -1.853251   -0.331265
     14          8           0       -2.594545   -2.341949   -1.170213
     15          6           0        3.030878    0.855084    0.171656
     16          6           0        3.495015    1.747227   -0.980144
     17          6           0        3.321660    3.236634   -0.681131
     18          1           0        1.974791    1.066555    0.388232
     19          1           0        3.594203    1.115994    1.078290
     20          1           0        2.931957    1.483771   -1.884673
     21          1           0        4.550067    1.533473   -1.194130
     22          1           0        3.897010    3.521007    0.205834
     23          1           0        2.269705    3.471022   -0.488632
     24          1           0        3.659665    3.856066   -1.517741
     25          6           0        3.197860   -0.636639   -0.112258
     26          6           0        2.733722   -1.528782    1.039542
     27          6           0        2.907078   -3.018188    0.740528
     28          1           0        2.634535   -0.897547   -1.018893
     29          1           0        4.253947   -0.848109   -0.328834
     30          1           0        1.678671   -1.315026    1.253528
     31          1           0        3.296781   -1.265324    1.944070
     32          1           0        3.959032   -3.252576    0.548029
     33          1           0        2.331728   -3.302560   -0.146437
     34          1           0        2.569074   -3.637621    1.577139
 ---------------------------------------------------------------------

 SCF Done:  E(RHF) =  -669.535907038     A.U. after   15 cycles
 E2 =    -0.2092778223D+01 EUMP2 =    -0.67162868526082D+03

 The electronic state is 1-A.
 Alpha  occ. eigenvalues --  -20.60959 -20.60947 -15.85992 -11.31292 -11.27853
 Alpha  occ. eigenvalues --  -11.27843 -11.27585 -11.26858 -11.26846 -11.21567
 Alpha  occ. eigenvalues --  -11.21357 -11.21208 -11.20849 -11.20789 -11.20033
 Alpha  occ. eigenvalues --   -1.60020  -1.39577  -1.19460  -1.08867  -1.08102
 Alpha  occ. eigenvalues --   -1.04854  -1.03097  -0.95715  -0.95576  -0.86590
 Alpha  occ. eigenvalues --   -0.86256  -0.82550  -0.79251  -0.77918  -0.77562
 Alpha  occ. eigenvalues --   -0.72231  -0.71332  -0.70574  -0.65133  -0.64936
 Alpha  occ. eigenvalues --   -0.64639  -0.62195  -0.60444  -0.59012  -0.57181
 Alpha  occ. eigenvalues --   -0.55363  -0.54857  -0.53185  -0.52950  -0.52261
 Alpha  occ. eigenvalues --   -0.52002  -0.49545  -0.48965  -0.48951  -0.47544
 Alpha  occ. eigenvalues --   -0.46294  -0.45406  -0.45279  -0.44932  -0.43389
 Alpha  occ. eigenvalues --   -0.37437  -0.36451
 Alpha virt. eigenvalues --    0.04900   0.11182   0.16406   0.19625   0.23127
 Alpha virt. eigenvalues --    0.24350   0.25139   0.27468   0.27751   0.28255
 Alpha virt. eigenvalues --    0.29707   0.30920   0.31681   0.31970   0.32636

 Mulliken charges:
               1
     1  C   -0.170145
     2  C   -0.218985
     3  C   -0.169732
     4  C    0.156457
     5  C   -0.178211
     6  C   -0.222509
     7  H    0.226171
     8  H    0.223872
     9  H    0.275794
    10  H    0.289201
    11  H    0.224699
    12  N    0.491596
    13  O   -0.466690
    14  O   -0.458852
    15  C   -0.298202
    16  C   -0.299447
    17  C   -0.474830
    18  H    0.136997
    19  H    0.148399
    20  H    0.154385
    21  H    0.153823
    22  H    0.154586
    23  H    0.149342
    24  H    0.161027
    25  C   -0.299788
    26  C   -0.303031
    27  C   -0.476520
    28  H    0.159855
    29  H    0.147790
    30  H    0.161397
    31  H    0.143981
    32  H    0.148369
    33  H    0.171211
    34  H    0.157988
 Sum of Mulliken charges =  -0.00000

 Dipole moment (field-independent basis, Debye):
    X=             -2.0040    Y=              4.4245    Z=              1.5213  Tot=              5.0899
 Quadrupole moment (field-independent basis, Debye-Ang):
   XX=            -81.4643   YY=            -99.0424   ZZ=            -95.0390
   XY=             -9.2696   XZ=             -1.8235   YZ=             -0.2781

 Normal termination of Gaussian 16 at Thu May  6 01:31:23 2021.
