 Gaussian 16, Revision A.03,
 Gaussian 16:  EM64L-G16RevA.03 25-Dec-2016

 -------------
 #p 6-31g* mp2
 -------------

 ------------------------------------------------------
 Input file generated by CHIRIPA (05-May-2021 14:53:12)
 ------------------------------------------------------
 Symbolic Z-matrix:
 Charge =  0 Multiplicity = 1

                         Standard orientation:
 ---------------------------------------------------------------------
 Center     Atomic      Atomic             Coordinates (Angstroms)
 Number     Number       Type             X           Y           Z
 ---------------------------------------------------------------------
      1          6           0       -3.798277    1.070147   -0.056207
      2          6           0       -2.852689    2.115044    0.537120
      3          6           0       -3.286795    3.548241    0.228424
      4          1           0       -3.854412    1.211483   -1.144241
      5          1           0       -4.811572    1.239358    0.333659
      6          1           0       -1.841208    1.943057    0.147322
      7          1           0       -2.798650    1.971083    1.623845
      8          1           0       -4.285586    3.743616    0.631967
      9          1           0       -3.322704    3.715431   -0.852945
     10          1           0       -2.596835    4.278901    0.661956
     11          6           0       -3.377596   -0.367459    0.243868
     12          6           0       -4.323184   -1.412356   -0.349460
     13          6           0       -3.889078   -2.845552   -0.040763
     14          1           0       -2.364301   -0.536670   -0.145999
     15          1           0       -3.321461   -0.508795    1.331902
     16          1           0       -4.377224   -1.268395   -1.436184
     17          1           0       -5.334665   -1.240369    0.040338
     18          1           0       -3.853169   -3.012743    1.040606
     19          1           0       -2.890288   -3.040928   -0.444306
     20          1           0       -4.579039   -3.576213   -0.474295
     21          6           0        1.099668   -2.135748   -0.067336
     22          6           0        0.791641   -0.906843   -0.660154
     23          6           0        1.727739    0.131513   -0.669320
     24          6           0        2.967755   -0.094548   -0.073882
     25          6           0        3.304446   -1.307644    0.524722
     26          6           0        2.352878   -2.331880    0.522171
     27          1           0        0.366476   -2.936884   -0.064766
     28          1           0       -0.180823   -0.751690   -1.118723
     29          1           0        1.515567    1.092853   -1.121234
     30          1           0        4.282217   -1.432439    0.973952
     31          1           0        2.594852   -3.285219    0.983299
     32          7           0        3.966948    0.997240   -0.077383
     33          8           0        5.052337    0.772861    0.453861
     34          8           0        3.645806    2.056689   -0.611306
 ---------------------------------------------------------------------

 SCF Done:  E(RHF) =  -669.535433107     A.U. after   15 cycles
 E2 =    -0.2091718598D+01 EUMP2 =    -0.67162715170502D+03

 The electronic state is 1-A.
 Alpha  occ. eigenvalues --  -20.60759 -20.60753 -15.85813 -11.31182 -11.27760
 Alpha  occ. eigenvalues --  -11.27755 -11.27495 -11.26766 -11.26755 -11.22439
 Alpha  occ. eigenvalues --  -11.22261 -11.22144 -11.22041 -11.22029 -11.21430
 Alpha  occ. eigenvalues --   -1.59834  -1.39387  -1.19358  -1.09175  -1.08749
 Alpha  occ. eigenvalues --   -1.04764  -1.04219  -0.96677  -0.95583  -0.87690
 Alpha  occ. eigenvalues --   -0.86164  -0.82418  -0.80290  -0.78980  -0.77463
 Alpha  occ. eigenvalues --   -0.72031  -0.71157  -0.70461  -0.65876  -0.65010
 Alpha  occ. eigenvalues --   -0.64742  -0.62119  -0.61616  -0.60045  -0.58274
 Alpha  occ. eigenvalues --   -0.56001  -0.55248  -0.53341  -0.53135  -0.53072
 Alpha  occ. eigenvalues --   -0.52843  -0.50625  -0.48796  -0.48786  -0.48596
 Alpha  occ. eigenvalues --   -0.47336  -0.46499  -0.46426  -0.44792  -0.44480
 Alpha  occ. eigenvalues --   -0.37327  -0.36356
 Alpha virt. eigenvalues --    0.05066   0.11201   0.16499   0.18672   0.22677
 Alpha virt. eigenvalues --    0.23351   0.25040   0.25989   0.26500   0.27972
 Alpha virt. eigenvalues --    0.29618   0.31066   0.31080   0.31177   0.31583

 Mulliken charges:
               1
     1  C   -0.299120
     2  C   -0.298906
     3  C   -0.476482
     4  H    0.149344
     5  H    0.152739
     6  H    0.147152
     7  H    0.154646
     8  H    0.156316
     9  H    0.155477
    10  H    0.164388
    11  C   -0.301863
    12  C   -0.300297
    13  C   -0.474648
    14  H    0.141479
    15  H    0.153401
    16  H    0.152580
    17  H    0.156284
    18  H    0.157610
    19  H    0.144680
    20  H    0.164348
    21  C   -0.172683
    22  C   -0.220026
    23  C   -0.172168
    24  C    0.158632
    25  C   -0.170707
    26  C   -0.218688
    27  H    0.227080
    28  H    0.227398
    29  H    0.275600
    30  H    0.275646
    31  H    0.223626
    32  N    0.488065
    33  O   -0.460443
    34  O   -0.460459
 Sum of Mulliken charges =  -0.00000

 Dipole moment (field-independent basis, Debye):
    X=             -3.6831    Y=             -3.7832    Z=              0.0933  Tot=              5.2807
 Quadrupole moment (field-independent basis, Debye-Ang):
   XX=           -112.8727   YY=            -93.6086   ZZ=            -93.4960
   XY=            -13.2857   XZ=              1.4408   YZ=             -1.2354

 Normal termination of Gaussian 16 at Thu May  6 15:17:59 2021.
