 Gaussian 16, Revision A.03,
 Gaussian 16:  EM64L-G16RevA.03 25-Dec-2016

 -------------
 #p 6-31g* mp2
 -------------

 ------------------------------------------------------
 Input file generated by CHIRIPA (05-May-2021 14:51:09)
 ------------------------------------------------------
 Symbolic Z-matrix:
 Charge =  0 Multiplicity = 1

                         Standard orientation:
 ---------------------------------------------------------------------
 Center     Atomic      Atomic             Coordinates (Angstroms)
 Number     Number       Type             X           Y           Z
 ---------------------------------------------------------------------
      1          6           0       -3.566471    0.720363    0.246484
      2          6           0       -3.054065    2.140184    0.002488
      3          6           0       -3.861871    3.197729    0.755376
      4          1           0       -4.621324    0.661240   -0.054740
      5          1           0       -3.536711    0.507407    1.324055
      6          1           0       -3.083482    2.349904   -1.074437
      7          1           0       -2.000255    2.195883    0.304148
      8          1           0       -3.822905    3.016322    1.834345
      9          1           0       -4.912286    3.171218    0.447927
     10          1           0       -3.478480    4.205337    0.566700
     11          6           0       -2.769060   -0.348024   -0.499447
     12          6           0       -3.281467   -1.767845   -0.255451
     13          6           0       -2.473661   -2.825391   -1.008340
     14          1           0       -2.798820   -0.135068   -1.577018
     15          1           0       -1.714208   -0.288901   -0.198224
     16          1           0       -4.335276   -1.823545   -0.557112
     17          1           0       -3.252050   -1.977566    0.821474
     18          1           0       -1.423245   -2.798879   -0.700890
     19          1           0       -2.512626   -2.643983   -2.087309
     20          1           0       -2.857051   -3.832998   -0.819664
     21          6           0        3.568797    0.436251    0.314097
     22          6           0        3.847141    1.358870   -0.873036
     23          6           0        4.650326    2.599682   -0.481791
     24          1           0        3.026070    0.997407    1.087075
     25          1           0        4.523707    0.129559    0.762965
     26          1           0        2.892032    1.662621   -1.320383
     27          1           0        4.389101    0.795399   -1.643359
     28          1           0        5.617279    2.313967   -0.055215
     29          1           0        4.111705    3.186117    0.269597
     30          1           0        4.837965    3.245247   -1.345444
     31          6           0        2.766734   -0.808589   -0.061133
     32          6           0        2.488391   -1.731208    1.126000
     33          6           0        1.685206   -2.972021    0.734755
     34          1           0        1.811825   -0.501899   -0.510002
     35          1           0        3.309462   -1.369745   -0.834111
     36          1           0        1.946431   -1.167738    1.896322
     37          1           0        3.443499   -2.034960    1.573347
     38          1           0        2.223826   -3.558455   -0.016633
     39          1           0        0.718252   -2.686306    0.308178
     40          1           0        1.497567   -3.617586    1.598408
 ---------------------------------------------------------------------

 SCF Done:  E(RHF) =  -470.733365401     A.U. after   11 cycles
 E2 =    -0.1582682145D+01 EUMP2 =    -0.47231604754665D+03

 The electronic state is 1-A.
 Alpha  occ. eigenvalues --  -11.21640 -11.21637 -11.21618 -11.21609 -11.21446
 Alpha  occ. eigenvalues --  -11.21429 -11.21386 -11.21369 -11.21103 -11.21100
 Alpha  occ. eigenvalues --  -11.21078 -11.21056  -1.08466  -1.08451  -1.03568
 Alpha  occ. eigenvalues --   -1.03539  -0.96029  -0.95978  -0.87057  -0.86983
 Alpha  occ. eigenvalues --   -0.79657  -0.79575  -0.78294  -0.78248  -0.65147
 Alpha  occ. eigenvalues --   -0.65038  -0.61076  -0.60846  -0.59384  -0.59355
 Alpha  occ. eigenvalues --   -0.57681  -0.57556  -0.55471  -0.55135  -0.52702
 Alpha  occ. eigenvalues --   -0.52686  -0.52537  -0.52324  -0.50134  -0.49761
 Alpha  occ. eigenvalues --   -0.48042  -0.47832  -0.46780  -0.46511  -0.45912
 Alpha  occ. eigenvalues --   -0.45781  -0.45765  -0.45585  -0.43812  -0.43806
 Alpha virt. eigenvalues --    0.20463   0.23242   0.23475   0.24838   0.25691
 Alpha virt. eigenvalues --    0.26756   0.27064   0.27271   0.28391   0.28892
 Alpha virt. eigenvalues --    0.30257   0.31707   0.31723   0.31877   0.31932

 Mulliken charges:
               1
     1  C   -0.298324
     2  C   -0.299591
     3  C   -0.475735
     4  H    0.149971
     5  H    0.149634
     6  H    0.152046
     7  H    0.151434
     8  H    0.155225
     9  H    0.155334
    10  H    0.160324
    11  C   -0.298844
    12  C   -0.299299
    13  C   -0.483399
    14  H    0.149833
    15  H    0.148602
    16  H    0.152143
    17  H    0.152039
    18  H    0.162290
    19  H    0.155321
    20  H    0.160777
    21  C   -0.298261
    22  C   -0.299770
    23  C   -0.475714
    24  H    0.149419
    25  H    0.149645
    26  H    0.152230
    27  H    0.152035
    28  H    0.155174
    29  H    0.155141
    30  H    0.160350
    31  C   -0.298998
    32  C   -0.299203
    33  C   -0.483342
    34  H    0.149747
    35  H    0.150025
    36  H    0.151462
    37  H    0.152221
    38  H    0.155927
    39  H    0.161474
    40  H    0.160654
 Sum of Mulliken charges =  -0.00000

 Dipole moment (field-independent basis, Debye):
    X=              0.0013    Y=             -0.0092    Z=             -0.0066  Tot=              0.0114
 Quadrupole moment (field-independent basis, Debye-Ang):
   XX=            -84.0945   YY=            -86.1492   ZZ=            -84.3549
   XY=             -0.6460   XZ=              0.4933   YZ=             -0.5176

 Normal termination of Gaussian 16 at Wed May  5 19:43:09 2021.
