 Gaussian 16, Revision A.03,
 Gaussian 16:  EM64L-G16RevA.03 25-Dec-2016

 -------------
 #p 6-31g* mp2
 -------------

 ------------------------------------------------------
 Input file generated by CHIRIPA (05-May-2021 14:55:18)
 ------------------------------------------------------
 Symbolic Z-matrix:
 Charge =  0 Multiplicity = 1

                         Standard orientation:
 ---------------------------------------------------------------------
 Center     Atomic      Atomic             Coordinates (Angstroms)
 Number     Number       Type             X           Y           Z
 ---------------------------------------------------------------------
      1          6           0        4.058613   -2.111291    0.152827
      2          6           0        4.894464   -1.072640    0.576004
      3          6           0        4.477772    0.258347    0.479102
      4          6           0        3.213285    0.515736   -0.048263
      5          6           0        2.357562   -0.497190   -0.478389
      6          6           0        2.795057   -1.820763   -0.372093
      7          1           0        4.390390   -3.142354    0.231752
      8          1           0        5.876274   -1.295301    0.984068
      9          1           0        5.104614    1.081767    0.799206
     10          1           0        1.384279   -0.243975   -0.880906
     11          1           0        2.143803   -2.625367   -0.701524
     12          7           0        2.761140    1.920868   -0.155821
     13          8           0        1.642538    2.121241   -0.624029
     14          8           0        3.533911    2.795232    0.230119
     15          6           0       -4.788144   -0.094055    0.456936
     16          6           0       -5.954823    0.421674   -0.386195
     17          6           0       -7.106967    0.957889    0.463998
     18          1           0       -5.150245   -0.885486    1.127356
     19          1           0       -4.422933    0.718082    1.100714
     20          1           0       -6.316829   -0.390806   -1.029192
     21          1           0       -5.589862    1.211837   -1.054822
     22          1           0       -6.767451    1.785863    1.094703
     23          1           0       -7.498548    0.174115    1.120477
     24          1           0       -7.930226    1.321361   -0.158892
     25          6           0       -3.628634   -0.633379   -0.378764
     26          6           0       -2.461955   -1.149106    0.464367
     27          6           0       -1.309810   -1.685321   -0.385826
     28          1           0       -3.993846   -1.445515   -1.022542
     29          1           0       -3.266533    0.158053   -1.049184
     30          1           0       -2.826915   -1.939270    1.132994
     31          1           0       -2.099949   -0.336628    1.107365
     32          1           0       -0.918231   -0.901547   -1.042306
     33          1           0       -1.649328   -2.513296   -1.016531
     34          1           0       -0.486552   -2.048795    0.237064
 ---------------------------------------------------------------------

 SCF Done:  E(RHF) =  -669.535452987     A.U. after   15 cycles
 E2 =    -0.2091544793D+01 EUMP2 =    -0.67162699777993D+03

 The electronic state is 1-A.
 Alpha  occ. eigenvalues --  -20.60744 -20.60737 -15.85794 -11.31114 -11.27708
 Alpha  occ. eigenvalues --  -11.27636 -11.27447 -11.26716 -11.26677 -11.21858
 Alpha  occ. eigenvalues --  -11.21707 -11.21534 -11.21457 -11.21346 -11.20982
 Alpha  occ. eigenvalues --   -1.59818  -1.39373  -1.19299  -1.08704  -1.08507
 Alpha  occ. eigenvalues --   -1.04698  -1.03679  -0.96170  -0.95539  -0.87203
 Alpha  occ. eigenvalues --   -0.86096  -0.82374  -0.79759  -0.78286  -0.77417
 Alpha  occ. eigenvalues --   -0.72016  -0.71140  -0.70420  -0.65141  -0.64951
 Alpha  occ. eigenvalues --   -0.64698  -0.62114  -0.61031  -0.59538  -0.57750
 Alpha  occ. eigenvalues --   -0.55507  -0.55159  -0.53101  -0.52845  -0.52805
 Alpha  occ. eigenvalues --   -0.52533  -0.50074  -0.48771  -0.48768  -0.48063
 Alpha  occ. eigenvalues --   -0.46741  -0.45842  -0.45728  -0.44787  -0.43922
 Alpha  occ. eigenvalues --   -0.37289  -0.36284
 Alpha virt. eigenvalues --    0.05088   0.11341   0.16513   0.20662   0.22906
 Alpha virt. eigenvalues --    0.24081   0.25930   0.26561   0.27188   0.27894
 Alpha virt. eigenvalues --    0.29045   0.29538   0.31413   0.31700   0.32347

 Mulliken charges:
               1
     1  C   -0.170728
     2  C   -0.219107
     3  C   -0.170303
     4  C    0.157842
     5  C   -0.174614
     6  C   -0.224058
     7  H    0.225374
     8  H    0.223143
     9  H    0.275332
    10  H    0.284629
    11  H    0.225827
    12  N    0.487503
    13  O   -0.461365
    14  O   -0.460518
    15  C   -0.298976
    16  C   -0.300085
    17  C   -0.475925
    18  H    0.148616
    19  H    0.152498
    20  H    0.150976
    21  H    0.154135
    22  H    0.156506
    23  H    0.154407
    24  H    0.160488
    25  C   -0.299927
    26  C   -0.298851
    27  C   -0.486530
    28  H    0.148170
    29  H    0.154714
    30  H    0.152086
    31  H    0.158447
    32  H    0.157472
    33  H    0.156047
    34  H    0.156774
 Sum of Mulliken charges =  -0.00000

 Dipole moment (field-independent basis, Debye):
    X=              1.4610    Y=             -4.8961    Z=              0.3987  Tot=              5.1250
 Quadrupole moment (field-independent basis, Debye-Ang):
   XX=            -81.3167   YY=            -99.4421   ZZ=            -95.0361
   XY=            -13.1661   XZ=              3.5374   YZ=              0.9096

 Normal termination of Gaussian 16 at Thu May  6 02:51:55 2021.
