 Gaussian 16, Revision A.03,
 Gaussian 16:  EM64L-G16RevA.03 25-Dec-2016

 -------------
 #p 6-31g* mp2
 -------------

 ------------------------------------------------------
 Input file generated by CHIRIPA (05-May-2021 14:57:27)
 ------------------------------------------------------
 Symbolic Z-matrix:
 Charge =  0 Multiplicity = 1

                         Standard orientation:
 ---------------------------------------------------------------------
 Center     Atomic      Atomic             Coordinates (Angstroms)
 Number     Number       Type             X           Y           Z
 ---------------------------------------------------------------------
      1          6           0       -2.082328   -2.221880   -1.057088
      2          6           0       -1.318324   -1.306846   -1.788887
      3          6           0       -1.326574    0.051123   -1.456620
      4          6           0       -2.113799    0.461254   -0.381743
      5          6           0       -2.885806   -0.426062    0.366566
      6          6           0       -2.862256   -1.779348    0.016410
      7          1           0       -2.069977   -3.274964   -1.322150
      8          1           0       -0.711681   -1.647676   -2.623073
      9          1           0       -0.744646    0.781003   -2.006212
     10          1           0       -3.480632   -0.056313    1.192935
     11          1           0       -3.456592   -2.487723    0.586510
     12          7           0       -2.130632    1.896396   -0.020518
     13          8           0       -2.832540    2.232400    0.930830
     14          8           0       -1.441598    2.658081   -0.695577
     15          6           0        3.905473    1.017787   -0.824441
     16          6           0        3.782341   -0.368484   -0.964485
     17          6           0        2.791777   -1.067262   -0.268038
     18          6           0        1.937544   -0.344846    0.563643
     19          6           0        2.034915    1.036479    0.724106
     20          6           0        3.032905    1.714615    0.017924
     21          1           0        4.677851    1.552597   -1.369239
     22          1           0        4.458589   -0.912254   -1.617974
     23          1           0        2.674121   -2.140334   -0.357985
     24          1           0        1.346055    1.551104    1.382931
     25          1           0        3.126191    2.791226    0.128620
     26          7           0        0.884947   -1.073686    1.306094
     27          8           0        0.144814   -0.414076    2.032561
     28          8           0        0.819986   -2.290758    1.147501
 ---------------------------------------------------------------------

 SCF Done:  E(RHF) =  -868.339150980     A.U. after   16 cycles
 E2 =    -0.2604298654D+01 EUMP2 =    -0.87094344963353D+03

 The electronic state is 1-A.
 Alpha  occ. eigenvalues --  -20.60954 -20.60924 -20.60285 -20.60230 -15.85956
 Alpha  occ. eigenvalues --  -15.85297 -11.31209 -11.30348 -11.27814 -11.27666
 Alpha  occ. eigenvalues --  -11.27476 -11.27040 -11.26869 -11.26816 -11.26667
 Alpha  occ. eigenvalues --  -11.26658 -11.25999 -11.25813  -1.59992  -1.59334
 Alpha  occ. eigenvalues --   -1.39559  -1.38898  -1.19370  -1.18553  -1.08788
 Alpha  occ. eigenvalues --   -1.07986  -1.04741  -1.03935  -0.95644  -0.94873
 Alpha  occ. eigenvalues --   -0.86150  -0.85340  -0.82479  -0.81733  -0.77541
 Alpha  occ. eigenvalues --   -0.76813  -0.72218  -0.71540  -0.71404  -0.70576
 Alpha  occ. eigenvalues --   -0.70456  -0.69677  -0.65019  -0.64736  -0.64217
 Alpha  occ. eigenvalues --   -0.63961  -0.62080  -0.61310  -0.55257  -0.54450
 Alpha  occ. eigenvalues --   -0.53103  -0.52822  -0.52211  -0.52042  -0.48965
 Alpha  occ. eigenvalues --   -0.48928  -0.48305  -0.48262  -0.45102  -0.44374
 Alpha  occ. eigenvalues --   -0.37475  -0.36386  -0.36284  -0.35377
 Alpha virt. eigenvalues --    0.04878   0.05819   0.11109   0.12334   0.16484
 Alpha virt. eigenvalues --    0.17317   0.21458   0.22180   0.27390   0.28013
 Alpha virt. eigenvalues --    0.28354   0.29076   0.30995   0.31597   0.32594

 Mulliken charges:
               1
     1  C   -0.159143
     2  C   -0.222961
     3  C   -0.182690
     4  C    0.161517
     5  C   -0.155678
     6  C   -0.212859
     7  H    0.224513
     8  H    0.217396
     9  H    0.270214
    10  H    0.275492
    11  H    0.223752
    12  N    0.488042
    13  O   -0.458182
    14  O   -0.471120
    15  C   -0.171851
    16  C   -0.220034
    17  C   -0.174812
    18  C    0.158692
    19  C   -0.170514
    20  C   -0.217261
    21  H    0.226161
    22  H    0.221703
    23  H    0.271489
    24  H    0.281884
    25  H    0.229254
    26  N    0.491183
    27  O   -0.459543
    28  O   -0.464644
 Sum of Mulliken charges =  -0.00000

 Dipole moment (field-independent basis, Debye):
    X=              3.6483    Y=             -2.5360    Z=             -3.5672  Tot=              5.6979
 Quadrupole moment (field-independent basis, Debye-Ang):
   XX=            -88.8509   YY=           -108.0827   ZZ=           -104.5034
   XY=             14.7312   XZ=             -4.2682   YZ=              5.0030

 Normal termination of Gaussian 16 at Thu May  6 18:11:14 2021.
