 Gaussian 16, Revision A.03,
 Gaussian 16:  EM64L-G16RevA.03 25-Dec-2016

 -------------
 #p 6-31g* mp2
 -------------

 ------------------------------------------------------
 Input file generated by CHIRIPA (05-May-2021 14:55:23)
 ------------------------------------------------------
 Symbolic Z-matrix:
 Charge =  0 Multiplicity = 1

                         Standard orientation:
 ---------------------------------------------------------------------
 Center     Atomic      Atomic             Coordinates (Angstroms)
 Number     Number       Type             X           Y           Z
 ---------------------------------------------------------------------
      1          6           0        5.492512   -1.051468   -0.608669
      2          6           0        4.397920   -1.084554   -1.478896
      3          6           0        3.165575   -0.550789   -1.090349
      4          6           0        3.062798    0.010908    0.181351
      5          6           0        4.134925    0.058887    1.071033
      6          6           0        5.357759   -0.480859    0.661279
      7          1           0        6.446134   -1.468433   -0.918739
      8          1           0        4.499660   -1.527066   -2.465748
      9          1           0        2.301905   -0.563154   -1.744061
     10          1           0        4.002824    0.506646    2.048519
     11          1           0        6.206128   -0.453776    1.339203
     12          7           0        1.763204    0.579148    0.603914
     13          8           0        1.698560    1.068397    1.729566
     14          8           0        0.833834    0.524524   -0.198535
     15          6           0       -4.141178    0.867273   -0.112741
     16          6           0       -2.846643    1.408989   -0.719955
     17          6           0       -2.754552    2.933683   -0.651992
     18          1           0       -4.998488    1.311537   -0.636760
     19          1           0       -4.211506    1.193480    0.934177
     20          1           0       -2.778106    1.080701   -1.765012
     21          1           0       -1.992315    0.963237   -0.194556
     22          1           0       -2.797506    3.276288    0.386939
     23          1           0       -3.587763    3.394419   -1.192440
     24          1           0       -1.821376    3.299507   -1.091553
     25          6           0       -4.247908   -0.655447   -0.173231
     26          6           0       -5.542443   -1.197163    0.433982
     27          6           0       -5.634535   -2.721859    0.366020
     28          1           0       -4.177581   -0.981654   -1.220150
     29          1           0       -3.390599   -1.099712    0.350788
     30          1           0       -6.396771   -0.751411   -0.091417
     31          1           0       -5.610980   -0.868875    1.479040
     32          1           0       -4.801324   -3.182594    0.906469
     33          1           0       -5.591580   -3.064463   -0.672911
     34          1           0       -6.567711   -3.087683    0.805581
 ---------------------------------------------------------------------

 SCF Done:  E(RHF) =  -669.536251822     A.U. after   15 cycles
 E2 =    -0.2090914602D+01 EUMP2 =    -0.67162716642405D+03

 The electronic state is 1-A.
 Alpha  occ. eigenvalues --  -20.61001 -20.60983 -15.86021 -11.31323 -11.27883
 Alpha  occ. eigenvalues --  -11.27879 -11.27618 -11.26886 -11.26876 -11.20827
 Alpha  occ. eigenvalues --  -11.20455 -11.20393 -11.20177 -11.19919 -11.19669
 Alpha  occ. eigenvalues --   -1.60054  -1.39609  -1.19489  -1.08898  -1.07323
 Alpha  occ. eigenvalues --   -1.04882  -1.02400  -0.95743  -0.94907  -0.86283
 Alpha  occ. eigenvalues --   -0.85935  -0.82577  -0.78502  -0.77632  -0.77066
 Alpha  occ. eigenvalues --   -0.72240  -0.71365  -0.70597  -0.65145  -0.64885
 Alpha  occ. eigenvalues --   -0.63956  -0.62229  -0.59793  -0.58304  -0.56480
 Alpha  occ. eigenvalues --   -0.55387  -0.54214  -0.53215  -0.52973  -0.51617
 Alpha  occ. eigenvalues --   -0.51329  -0.49076  -0.48996  -0.48839  -0.46800
 Alpha  occ. eigenvalues --   -0.45522  -0.45031  -0.44636  -0.44429  -0.42669
 Alpha  occ. eigenvalues --   -0.37468  -0.36482
 Alpha virt. eigenvalues --    0.04897   0.11173   0.16400   0.21310   0.23906
 Alpha virt. eigenvalues --    0.25428   0.27230   0.27739   0.28161   0.28684
 Alpha virt. eigenvalues --    0.29031   0.30881   0.32371   0.32475   0.32846

 Mulliken charges:
               1
     1  C   -0.170517
     2  C   -0.218558
     3  C   -0.170876
     4  C    0.157510
     5  C   -0.170476
     6  C   -0.218619
     7  H    0.226104
     8  H    0.223975
     9  H    0.276114
    10  H    0.275884
    11  H    0.223898
    12  N    0.490738
    13  O   -0.459165
    14  O   -0.461464
    15  C   -0.297712
    16  C   -0.309042
    17  C   -0.473507
    18  H    0.143860
    19  H    0.148455
    20  H    0.143963
    21  H    0.182463
    22  H    0.154498
    23  H    0.146619
    24  H    0.161473
    25  C   -0.297600
    26  C   -0.298779
    27  C   -0.475004
    28  H    0.146256
    29  H    0.152694
    30  H    0.149829
    31  H    0.151437
    32  H    0.154618
    33  H    0.153283
    34  H    0.157646
 Sum of Mulliken charges =  -0.00000

 Dipole moment (field-independent basis, Debye):
    X=              4.9862    Y=             -2.0252    Z=             -1.4119  Tot=              5.5639
 Quadrupole moment (field-independent basis, Debye-Ang):
   XX=            -67.7548   YY=            -97.0186   ZZ=            -90.8388
   XY=             -5.8763   XZ=             -1.6465   YZ=              1.1268

 Normal termination of Gaussian 16 at Wed May  5 22:21:05 2021.
