 Gaussian 16, Revision A.03,
 Gaussian 16:  EM64L-G16RevA.03 25-Dec-2016

 -------------
 #p 6-31g* mp2
 -------------

 ------------------------------------------------------
 Input file generated by CHIRIPA (05-May-2021 14:57:23)
 ------------------------------------------------------
 Symbolic Z-matrix:
 Charge =  0 Multiplicity = 1

                         Standard orientation:
 ---------------------------------------------------------------------
 Center     Atomic      Atomic             Coordinates (Angstroms)
 Number     Number       Type             X           Y           Z
 ---------------------------------------------------------------------
      1          6           0        6.472673    0.157877    0.358834
      2          6           0        5.748847    1.344113    0.199327
      3          6           0        4.365574    1.310388   -0.000589
      4          6           0        3.735436    0.067414   -0.035680
      5          6           0        4.428907   -1.131816    0.119999
      6          6           0        5.811558   -1.074129    0.318731
      7          1           0        7.546991    0.193383    0.513673
      8          1           0        6.259637    2.302338    0.230021
      9          1           0        3.780774    2.213419   -0.126935
     10          1           0        3.891904   -2.071922    0.084661
     11          1           0        6.371130   -1.996980    0.442307
     12          7           0        2.271356    0.019027   -0.246695
     13          8           0        1.739693   -1.088785   -0.273608
     14          8           0        1.683196    1.089830   -0.381181
     15          6           0       -6.328398    0.770730    0.346857
     16          6           0       -6.067685   -0.603241    0.374312
     17          6           0       -4.768545   -1.083351    0.183846
     18          6           0       -3.749384   -0.157188   -0.032544
     19          6           0       -3.977323    1.217675   -0.065472
     20          6           0       -5.284226    1.675208    0.127440
     21          1           0       -7.340617    1.134921    0.495766
     22          1           0       -6.876644   -1.307984    0.544509
     23          1           0       -4.538634   -2.141789    0.200182
     24          1           0       -3.150275    1.895826   -0.237297
     25          1           0       -5.483757    2.742802    0.105603
     26          7           0       -2.369933   -0.653508   -0.235476
     27          8           0       -1.489475    0.183019   -0.424288
     28          8           0       -2.195298   -1.869654   -0.201880
 ---------------------------------------------------------------------

 SCF Done:  E(RHF) =  -868.333430559     A.U. after   16 cycles
 E2 =    -0.2601336667D+01 EUMP2 =    -0.87093476722607D+03

 The electronic state is 1-A.
 Alpha  occ. eigenvalues --  -20.59293 -20.59257 -20.59190 -20.59091 -15.84372
 Alpha  occ. eigenvalues --  -15.84219 -11.30262 -11.30137 -11.26907 -11.26876
 Alpha  occ. eigenvalues --  -11.26791 -11.26752 -11.26734 -11.26631 -11.26034
 Alpha  occ. eigenvalues --  -11.26013 -11.25924 -11.25905  -1.58337  -1.58220
 Alpha  occ. eigenvalues --   -1.37889  -1.37763  -1.18483  -1.18368  -1.07778
 Alpha  occ. eigenvalues --   -1.07657  -1.03964  -1.03850  -0.94536  -0.94375
 Alpha  occ. eigenvalues --   -0.85338  -0.85223  -0.81368  -0.81217  -0.76312
 Alpha  occ. eigenvalues --   -0.76178  -0.70602  -0.70345  -0.69734  -0.69597
 Alpha  occ. eigenvalues --   -0.69584  -0.69468  -0.64121  -0.64013  -0.63957
 Alpha  occ. eigenvalues --   -0.63856  -0.61307  -0.61190  -0.54452  -0.54337
 Alpha  occ. eigenvalues --   -0.52267  -0.52155  -0.52064  -0.51950  -0.47751
 Alpha  occ. eigenvalues --   -0.47265  -0.47152  -0.46645  -0.43206  -0.43052
 Alpha  occ. eigenvalues --   -0.36496  -0.36385  -0.35593  -0.35481
 Alpha virt. eigenvalues --    0.06207   0.06369   0.12053   0.12165   0.17618
 Alpha virt. eigenvalues --    0.17763   0.22120   0.22231   0.27996   0.28104
 Alpha virt. eigenvalues --    0.29055   0.29179   0.31631   0.31741   0.33326

 Mulliken charges:
               1
     1  C   -0.172614
     2  C   -0.218482
     3  C   -0.172155
     4  C    0.159521
     5  C   -0.171941
     6  C   -0.218520
     7  H    0.222142
     8  H    0.220014
     9  H    0.273678
    10  H    0.276493
    11  H    0.220820
    12  N    0.485959
    13  O   -0.447585
    14  O   -0.456609
    15  C   -0.172700
    16  C   -0.218608
    17  C   -0.172163
    18  C    0.159018
    19  C   -0.172260
    20  C   -0.218696
    21  H    0.221674
    22  H    0.219845
    23  H    0.274042
    24  H    0.278044
    25  H    0.220246
    26  N    0.485555
    27  O   -0.441278
    28  O   -0.463441
 Sum of Mulliken charges =  -0.00000

 Dipole moment (field-independent basis, Debye):
    X=              0.3683    Y=              1.8817    Z=              1.3722  Tot=              2.3578
 Quadrupole moment (field-independent basis, Debye-Ang):
   XX=            -34.9705   YY=            -96.2530   ZZ=           -106.7078
   XY=             -3.5275   XZ=             -0.0849   YZ=             -0.9817

 Normal termination of Gaussian 16 at Thu May  6 19:34:40 2021.
