 Gaussian 16, Revision A.03,
 Gaussian 16:  EM64L-G16RevA.03 25-Dec-2016

 -------------
 #p 6-31g* mp2
 -------------

 ------------------------------------------------------
 Input file generated by CHIRIPA (05-May-2021 14:51:10)
 ------------------------------------------------------
 Symbolic Z-matrix:
 Charge =  0 Multiplicity = 1

                         Standard orientation:
 ---------------------------------------------------------------------
 Center     Atomic      Atomic             Coordinates (Angstroms)
 Number     Number       Type             X           Y           Z
 ---------------------------------------------------------------------
      1          6           0        4.308177    0.388059   -0.005665
      2          6           0        5.774257   -0.021096   -0.151227
      3          6           0        6.706824    1.176579   -0.334767
      4          1           0        4.003594    0.959090   -0.893413
      5          1           0        4.207696    1.067067    0.852383
      6          1           0        5.871719   -0.700226   -1.007906
      7          1           0        6.075330   -0.591384    0.736885
      8          1           0        6.639104    1.852665    0.523675
      9          1           0        6.434336    1.743204   -1.231030
     10          1           0        7.749907    0.861266   -0.436821
     11          6           0        3.363547   -0.798304    0.178577
     12          6           0        1.897467   -0.389149    0.324140
     13          6           0        0.964900   -1.586824    0.507680
     14          1           0        3.464028   -1.477312   -0.679470
     15          1           0        3.668130   -1.369335    1.066326
     16          1           0        1.596394    0.181139   -0.563972
     17          1           0        1.800004    0.289981    1.180819
     18          1           0        1.237388   -2.153449    1.403943
     19          1           0        1.032620   -2.262910   -0.350762
     20          1           0       -0.078183   -1.271511    0.609734
     21          6           0       -3.487364    0.881955   -0.148737
     22          6           0       -4.401787    2.066124    0.166796
     23          6           0       -3.690217    3.413282    0.037840
     24          1           0       -2.620474    0.906394    0.525687
     25          1           0       -3.093344    0.993431   -1.168402
     26          1           0       -4.795058    1.951735    1.185063
     27          1           0       -5.266696    2.038754   -0.508331
     28          1           0       -3.312230    3.553425   -0.980043
     29          1           0       -2.837912    3.465910    0.722973
     30          1           0       -4.362282    4.245930    0.267810
     31          6           0       -4.184360   -0.471710   -0.024175
     32          6           0       -3.269938   -1.655879   -0.339709
     33          6           0       -3.981506   -3.003036   -0.210753
     34          1           0       -4.578380   -0.583187    0.995490
     35          1           0       -5.051250   -0.496148   -0.698600
     36          1           0       -2.405027   -1.628510    0.335418
     37          1           0       -2.876666   -1.541489   -1.357976
     38          1           0       -4.833812   -3.055665   -0.895885
     39          1           0       -4.359493   -3.143180    0.807130
     40          1           0       -3.309442   -3.835686   -0.440722
 ---------------------------------------------------------------------

 SCF Done:  E(RHF) =  -470.733265881     A.U. after   11 cycles
 E2 =    -0.1582486778D+01 EUMP2 =    -0.47231575265866D+03

 The electronic state is 1-A.
 Alpha  occ. eigenvalues --  -11.21605 -11.21595 -11.21585 -11.21571 -11.21408
 Alpha  occ. eigenvalues --  -11.21394 -11.21346 -11.21335 -11.21070 -11.21065
 Alpha  occ. eigenvalues --  -11.21047 -11.21031  -1.08433  -1.08415  -1.03535
 Alpha  occ. eigenvalues --   -1.03503  -0.95977  -0.95960  -0.87012  -0.86962
 Alpha  occ. eigenvalues --   -0.79642  -0.79528  -0.78250  -0.78225  -0.65067
 Alpha  occ. eigenvalues --   -0.65048  -0.60939  -0.60911  -0.59451  -0.59233
 Alpha  occ. eigenvalues --   -0.57612  -0.57547  -0.55260  -0.55250  -0.52756
 Alpha  occ. eigenvalues --   -0.52618  -0.52415  -0.52359  -0.49913  -0.49904
 Alpha  occ. eigenvalues --   -0.47997  -0.47810  -0.46619  -0.46607  -0.45787
 Alpha  occ. eigenvalues --   -0.45767  -0.45707  -0.45698  -0.43797  -0.43691
 Alpha virt. eigenvalues --    0.21718   0.23050   0.23760   0.24503   0.25837
 Alpha virt. eigenvalues --    0.26655   0.27010   0.27503   0.27977   0.28868
 Alpha virt. eigenvalues --    0.30660   0.31409   0.31662   0.31884   0.32048

 Mulliken charges:
               1
     1  C   -0.298205
     2  C   -0.299619
     3  C   -0.475692
     4  H    0.149687
     5  H    0.149457
     6  H    0.151912
     7  H    0.151901
     8  H    0.155166
     9  H    0.155188
    10  H    0.160221
    11  C   -0.298591
    12  C   -0.298931
    13  C   -0.482409
    14  H    0.149511
    15  H    0.149536
    16  H    0.152360
    17  H    0.151386
    18  H    0.154641
    19  H    0.155327
    20  H    0.166736
    21  C   -0.298900
    22  C   -0.299629
    23  C   -0.475712
    24  H    0.149506
    25  H    0.149558
    26  H    0.151948
    27  H    0.152066
    28  H    0.155168
    29  H    0.155297
    30  H    0.160245
    31  C   -0.297838
    32  C   -0.306544
    33  C   -0.475191
    34  H    0.149347
    35  H    0.149676
    36  H    0.158949
    37  H    0.151839
    38  H    0.154965
    39  H    0.154995
    40  H    0.160673
 Sum of Mulliken charges =  -0.00000

 Dipole moment (field-independent basis, Debye):
    X=             -0.0107    Y=             -0.0032    Z=             -0.0055  Tot=              0.0125
 Quadrupole moment (field-independent basis, Debye-Ang):
   XX=            -85.5519   YY=            -86.4714   ZZ=            -82.7722
   XY=             -0.9940   XZ=              0.5165   YZ=              0.1780

 Normal termination of Gaussian 16 at Wed May  5 15:11:13 2021.
