 Gaussian 16, Revision A.03,
 Gaussian 16:  EM64L-G16RevA.03 25-Dec-2016

 -------------
 #p 6-31g* mp2
 -------------

 ------------------------------------------------------
 Input file generated by CHIRIPA (05-May-2021 14:57:21)
 ------------------------------------------------------
 Symbolic Z-matrix:
 Charge =  0 Multiplicity = 1

                         Standard orientation:
 ---------------------------------------------------------------------
 Center     Atomic      Atomic             Coordinates (Angstroms)
 Number     Number       Type             X           Y           Z
 ---------------------------------------------------------------------
      1          6           0       -1.742782    1.143402    1.701200
      2          6           0       -2.013759   -0.216434    1.885422
      3          6           0       -2.930556   -0.875736    1.061194
      4          6           0       -3.561066   -0.141228    0.058076
      5          6           0       -3.312334    1.214470   -0.150499
      6          6           0       -2.391791    1.853263    0.685618
      7          1           0       -1.029137    1.647598    2.346098
      8          1           0       -1.511220   -0.770242    2.673328
      9          1           0       -3.159086   -1.927717    1.181726
     10          1           0       -3.828992    1.739971   -0.944433
     11          1           0       -2.183312    2.909409    0.540234
     12          7           0       -4.533622   -0.828345   -0.820791
     13          8           0       -5.075845   -0.158818   -1.697354
     14          8           0       -4.735272   -2.023425   -0.616441
     15          6           0        1.349544    1.483764   -0.400570
     16          6           0        1.226643    0.153799    0.014894
     17          6           0        2.356344   -0.662004    0.127981
     18          6           0        3.599083   -0.112756   -0.183816
     19          6           0        3.754044    1.208499   -0.600426
     20          6           0        2.610628    2.005948   -0.706365
     21          1           0        0.466638    2.110371   -0.485643
     22          1           0        0.248537   -0.254416    0.253037
     23          1           0        2.289886   -1.694990    0.447261
     24          1           0        4.742431    1.587182   -0.830874
     25          1           0        2.709082    3.038463   -1.029267
     26          7           0        4.802306   -0.966696   -0.067879
     27          8           0        5.885880   -0.458963   -0.348436
     28          8           0        4.639036   -2.127578    0.301353
 ---------------------------------------------------------------------

 SCF Done:  E(RHF) =  -868.336095254     A.U. after   16 cycles
 E2 =    -0.2603222642D+01 EUMP2 =    -0.87093931789583D+03

 The electronic state is 1-A.
 Alpha  occ. eigenvalues --  -20.61663 -20.61655 -20.61042 -20.61037 -15.86729
 Alpha  occ. eigenvalues --  -15.86093 -11.32375 -11.31507 -11.29027 -11.28998
 Alpha  occ. eigenvalues --  -11.28770 -11.28070 -11.28063 -11.28034 -11.27978
 Alpha  occ. eigenvalues --  -11.27787 -11.27120 -11.26909  -1.60733  -1.60116
 Alpha  occ. eigenvalues --   -1.40278  -1.39669  -1.20631  -1.19667  -1.09969
 Alpha  occ. eigenvalues --   -1.09052  -1.06058  -1.05066  -0.96725  -0.95889
 Alpha  occ. eigenvalues --   -0.87427  -0.86464  -0.83534  -0.82716  -0.78533
 Alpha  occ. eigenvalues --   -0.77762  -0.72937  -0.72312  -0.72065  -0.71665
 Alpha  occ. eigenvalues --   -0.71440  -0.70804  -0.66242  -0.66017  -0.65312
 Alpha  occ. eigenvalues --   -0.65112  -0.63353  -0.62452  -0.56490  -0.55599
 Alpha  occ. eigenvalues --   -0.54519  -0.54095  -0.53408  -0.52951  -0.49718
 Alpha  occ. eigenvalues --   -0.49675  -0.49072  -0.49064  -0.45621  -0.45063
 Alpha  occ. eigenvalues --   -0.38689  -0.37703  -0.37577  -0.36633
 Alpha virt. eigenvalues --    0.03958   0.04763   0.09747   0.10982   0.15360
 Alpha virt. eigenvalues --    0.16242   0.19772   0.21704   0.25382   0.27163
 Alpha virt. eigenvalues --    0.27423   0.28527   0.29947   0.30871   0.32203

 Mulliken charges:
               1
     1  C   -0.173567
     2  C   -0.232019
     3  C   -0.169675
     4  C    0.159094
     5  C   -0.168953
     6  C   -0.226710
     7  H    0.233026
     8  H    0.230155
     9  H    0.280956
    10  H    0.279805
    11  H    0.224573
    12  N    0.488159
    13  O   -0.457413
    14  O   -0.456609
    15  C   -0.177931
    16  C   -0.227394
    17  C   -0.174603
    18  C    0.159443
    19  C   -0.171432
    20  C   -0.218201
    21  H    0.221474
    22  H    0.235903
    23  H    0.274845
    24  H    0.276136
    25  H    0.222685
    26  N    0.487968
    27  O   -0.459651
    28  O   -0.460062
 Sum of Mulliken charges =  -0.00000

 Dipole moment (field-independent basis, Debye):
    X=             -1.1651    Y=              5.3222    Z=              2.7296  Tot=              6.0938
 Quadrupole moment (field-independent basis, Debye-Ang):
   XX=           -158.0789   YY=           -100.0383   ZZ=           -103.6429
   XY=              4.0626   XZ=            -12.1791   YZ=             -4.5777

 Normal termination of Gaussian 16 at Thu May  6 04:56:23 2021.
