 Gaussian 16, Revision A.03,
 Gaussian 16:  EM64L-G16RevA.03 25-Dec-2016

 -------------
 #p 6-31g* mp2
 -------------

 ------------------------------------------------------
 Input file generated by CHIRIPA (05-May-2021 14:53:13)
 ------------------------------------------------------
 Symbolic Z-matrix:
 Charge =  0 Multiplicity = 1

                         Standard orientation:
 ---------------------------------------------------------------------
 Center     Atomic      Atomic             Coordinates (Angstroms)
 Number     Number       Type             X           Y           Z
 ---------------------------------------------------------------------
      1          6           0       -3.857811   -0.382588    0.195945
      2          6           0       -4.123383   -1.667533   -0.589148
      3          6           0       -4.998287   -2.659116    0.178380
      4          1           0       -3.376273   -0.636390    1.150225
      5          1           0       -4.817291    0.090880    0.446188
      6          1           0       -3.163641   -2.137714   -0.839032
      7          1           0       -4.604170   -1.410627   -1.541754
      8          1           0       -5.969722   -2.213003    0.414808
      9          1           0       -4.521008   -2.944221    1.121524
     10          1           0       -5.175514   -3.570434   -0.401233
     11          6           0       -2.984568    0.618619   -0.558218
     12          6           0       -2.718997    1.903564    0.226875
     13          6           0       -1.844092    2.895147   -0.540653
     14          1           0       -2.025088    0.145151   -0.808461
     15          1           0       -3.466106    0.872421   -1.512498
     16          1           0       -2.238209    1.646658    1.179481
     17          1           0       -3.678738    2.373745    0.476758
     18          1           0       -2.321372    3.180252   -1.483797
     19          1           0       -0.872657    2.449034   -0.777081
     20          1           0       -1.666865    3.806465    0.038960
     21          6           0        1.507583    2.090903    0.633699
     22          6           0        1.238249    0.962086    1.414567
     23          6           0        1.878009   -0.252721    1.150945
     24          6           0        2.785454   -0.303254    0.093930
     25          6           0        3.074976    0.803923   -0.702076
     26          6           0        2.423472    2.008364   -0.420272
     27          1           0        1.006040    3.030567    0.845548
     28          1           0        0.527427    1.023256    2.233734
     29          1           0        1.688188   -1.142046    1.739577
     30          1           0        3.788508    0.712050   -1.511922
     31          1           0        2.634599    2.883399   -1.028371
     32          7           0        3.468956   -1.583829   -0.194778
     33          8           0        4.264237   -1.602263   -1.131701
     34          8           0        3.196460   -2.544862    0.521321
 ---------------------------------------------------------------------

 SCF Done:  E(RHF) =  -669.534854312     A.U. after   15 cycles
 E2 =    -0.2092757389D+01 EUMP2 =    -0.67162761170091D+03

 The electronic state is 1-A.
 Alpha  occ. eigenvalues --  -20.60808 -20.60803 -15.85864 -11.31238 -11.27836
 Alpha  occ. eigenvalues --  -11.27827 -11.27529 -11.26828 -11.26813 -11.22331
 Alpha  occ. eigenvalues --  -11.21864 -11.21844 -11.21826 -11.21754 -11.21256
 Alpha  occ. eigenvalues --   -1.59884  -1.39438  -1.19432  -1.08915  -1.08801
 Alpha  occ. eigenvalues --   -1.04832  -1.04012  -0.96478  -0.95639  -0.87492
 Alpha  occ. eigenvalues --   -0.86225  -0.82478  -0.80091  -0.78675  -0.77521
 Alpha  occ. eigenvalues --   -0.72081  -0.71210  -0.70546  -0.65548  -0.65075
 Alpha  occ. eigenvalues --   -0.64815  -0.62180  -0.61418  -0.59865  -0.58064
 Alpha  occ. eigenvalues --   -0.55921  -0.55200  -0.53245  -0.53141  -0.52921
 Alpha  occ. eigenvalues --   -0.52809  -0.50370  -0.48841  -0.48835  -0.48395
 Alpha  occ. eigenvalues --   -0.47112  -0.46228  -0.46121  -0.44841  -0.44262
 Alpha  occ. eigenvalues --   -0.37323  -0.36445
 Alpha virt. eigenvalues --    0.05001   0.11117   0.16446   0.20044   0.22778
 Alpha virt. eigenvalues --    0.24078   0.25383   0.26640   0.26690   0.28050
 Alpha virt. eigenvalues --    0.29117   0.29840   0.31165   0.31443   0.32142

 Mulliken charges:
               1
     1  C   -0.298031
     2  C   -0.300529
     3  C   -0.475914
     4  H    0.147113
     5  H    0.149898
     6  H    0.154513
     7  H    0.152717
     8  H    0.154912
     9  H    0.155234
    10  H    0.162352
    11  C   -0.299956
    12  C   -0.297333
    13  C   -0.485541
    14  H    0.153417
    15  H    0.151482
    16  H    0.143573
    17  H    0.154422
    18  H    0.159265
    19  H    0.161662
    20  H    0.152418
    21  C   -0.170895
    22  C   -0.220367
    23  C   -0.171239
    24  C    0.158079
    25  C   -0.170191
    26  C   -0.220625
    27  H    0.231578
    28  H    0.224363
    29  H    0.275761
    30  H    0.276000
    31  H    0.224463
    32  N    0.488128
    33  O   -0.460250
    34  O   -0.460481
 Sum of Mulliken charges =  -0.00000

 Dipole moment (field-independent basis, Debye):
    X=             -2.4303    Y=              4.4462    Z=              0.9459  Tot=              5.1546
 Quadrupole moment (field-independent basis, Debye-Ang):
   XX=           -107.0375   YY=            -97.7369   ZZ=            -92.0664
   XY=             14.0653   XZ=              1.2784   YZ=             -1.6450

 Normal termination of Gaussian 16 at Thu May  6 18:43:37 2021.
