 Gaussian 16, Revision A.03,
 Gaussian 16:  EM64L-G16RevA.03 25-Dec-2016

 -------------
 #p 6-31g* mp2
 -------------

 ------------------------------------------------------
 Input file generated by CHIRIPA (05-May-2021 14:57:22)
 ------------------------------------------------------
 Symbolic Z-matrix:
 Charge =  0 Multiplicity = 1

                         Standard orientation:
 ---------------------------------------------------------------------
 Center     Atomic      Atomic             Coordinates (Angstroms)
 Number     Number       Type             X           Y           Z
 ---------------------------------------------------------------------
      1          6           0       -2.792363    2.459346    0.427416
      2          6           0       -3.985322    1.841841    0.037471
      3          6           0       -4.008557    0.481459   -0.284039
      4          6           0       -2.815066   -0.234453   -0.204422
      5          6           0       -1.610597    0.352238    0.180724
      6          6           0       -1.610891    1.713888    0.497674
      7          1           0       -2.783452    3.516616    0.675401
      8          1           0       -4.904382    2.418295   -0.017982
      9          1           0       -4.918081   -0.021779   -0.588891
     10          1           0       -0.710377   -0.248524    0.226629
     11          1           0       -0.682953    2.190810    0.800199
     12          7           0       -2.827210   -1.675300   -0.542377
     13          8           0       -1.762281   -2.283964   -0.464321
     14          8           0       -3.901426   -2.168689   -0.878922
     15          6           0        3.666607    0.839909   -2.070931
     16          6           0        3.062213    1.724565   -1.171702
     17          6           0        2.585635    1.268597    0.060983
     18          6           0        2.730547   -0.084506    0.363311
     19          6           0        3.328097   -0.990603   -0.511454
     20          6           0        3.797389   -0.512467   -1.738523
     21          1           0        4.033995    1.202726   -3.026330
     22          1           0        2.959294    2.775366   -1.427186
     23          1           0        2.113654    1.931681    0.775806
     24          1           0        3.416452   -2.032540   -0.228650
     25          1           0        4.266342   -1.201786   -2.434919
     26          7           0        2.229872   -0.578954    1.665327
     27          8           0        2.369561   -1.775727    1.907934
     28          8           0        1.707234    0.239634    2.418587
 ---------------------------------------------------------------------

 SCF Done:  E(RHF) =  -868.337571611     A.U. after   16 cycles
 E2 =    -0.2600983144D+01 EUMP2 =    -0.87093855475418D+03

 The electronic state is 1-A.
 Alpha  occ. eigenvalues --  -20.61286 -20.61209 -20.60447 -20.60429 -15.86284
 Alpha  occ. eigenvalues --  -15.85493 -11.31664 -11.30855 -11.28320 -11.28116
 Alpha  occ. eigenvalues --  -11.27894 -11.27450 -11.27413 -11.27256 -11.27209
 Alpha  occ. eigenvalues --  -11.27127 -11.26479 -11.26445  -1.60321  -1.59515
 Alpha  occ. eigenvalues --   -1.39872  -1.39068  -1.19814  -1.19037  -1.09200
 Alpha  occ. eigenvalues --   -1.08442  -1.05207  -1.04437  -0.96037  -0.95273
 Alpha  occ. eigenvalues --   -0.86606  -0.85849  -0.82860  -0.82102  -0.77934
 Alpha  occ. eigenvalues --   -0.77142  -0.72488  -0.71753  -0.71641  -0.70903
 Alpha  occ. eigenvalues --   -0.70835  -0.70153  -0.65455  -0.65207  -0.64693
 Alpha  occ. eigenvalues --   -0.64458  -0.62573  -0.61773  -0.55678  -0.54976
 Alpha  occ. eigenvalues --   -0.53528  -0.53301  -0.52764  -0.52534  -0.49275
 Alpha  occ. eigenvalues --   -0.49234  -0.48476  -0.48466  -0.45253  -0.44473
 Alpha  occ. eigenvalues --   -0.37774  -0.37036  -0.36806  -0.36010
 Alpha virt. eigenvalues --    0.04566   0.05395   0.10761   0.11617   0.16097
 Alpha virt. eigenvalues --    0.16887   0.19947   0.21869   0.25238   0.27312
 Alpha virt. eigenvalues --    0.27977   0.28733   0.30115   0.31298   0.32190

 Mulliken charges:
               1
     1  C   -0.171619
     2  C   -0.218853
     3  C   -0.170966
     4  C    0.157637
     5  C   -0.166109
     6  C   -0.217059
     7  H    0.223647
     8  H    0.221977
     9  H    0.274656
    10  H    0.274165
    11  H    0.221714
    12  N    0.487918
    13  O   -0.458926
    14  O   -0.462101
    15  C   -0.169980
    16  C   -0.216756
    17  C   -0.178701
    18  C    0.154190
    19  C   -0.167170
    20  C   -0.217021
    21  H    0.227789
    22  H    0.222870
    23  H    0.269404
    24  H    0.280923
    25  H    0.227383
    26  N    0.487848
    27  O   -0.449471
    28  O   -0.467389
 Sum of Mulliken charges =  -0.00000

 Dipole moment (field-independent basis, Debye):
    X=              2.0862    Y=              6.5529    Z=             -3.4720  Tot=              7.7037
 Quadrupole moment (field-independent basis, Debye-Ang):
   XX=            -90.2707   YY=           -103.9195   ZZ=           -109.4496
   XY=            -12.1844   XZ=            -15.3110   YZ=              0.7060

 Normal termination of Gaussian 16 at Fri May  7 01:44:58 2021.
