 Gaussian 16, Revision A.03,
 Gaussian 16:  EM64L-G16RevA.03 25-Dec-2016

 -------------
 #p 6-31g* mp2
 -------------

 ------------------------------------------------------
 Input file generated by CHIRIPA (05-May-2021 14:55:24)
 ------------------------------------------------------
 Symbolic Z-matrix:
 Charge =  0 Multiplicity = 1

                         Standard orientation:
 ---------------------------------------------------------------------
 Center     Atomic      Atomic             Coordinates (Angstroms)
 Number     Number       Type             X           Y           Z
 ---------------------------------------------------------------------
      1          6           0       -1.695208    2.355046    0.102864
      2          6           0       -2.043127    1.679339    1.277127
      3          6           0       -2.465846    0.347516    1.231258
      4          6           0       -2.529192   -0.280799   -0.011521
      5          6           0       -2.189260    0.365466   -1.198988
      6          6           0       -1.769255    1.697113   -1.129274
      7          1           0       -1.367884    3.389570    0.147758
      8          1           0       -1.986586    2.187782    2.235424
      9          1           0       -2.741111   -0.199382    2.124874
     10          1           0       -2.255786   -0.167885   -2.139482
     11          1           0       -1.499677    2.219383   -2.042842
     12          7           0       -2.975269   -1.690647   -0.072702
     13          8           0       -3.022496   -2.221812   -1.180073
     14          8           0       -3.269230   -2.237825    0.987873
     15          6           0        2.575930    0.562061   -0.105434
     16          6           0        3.012178    2.018361    0.058464
     17          6           0        1.866168    3.006837   -0.159186
     18          1           0        2.155656    0.422786   -1.110877
     19          1           0        1.765365    0.347264    0.604668
     20          1           0        3.822621    2.229957   -0.650779
     21          1           0        3.431638    2.154141    1.063567
     22          1           0        1.058619    2.824199    0.557131
     23          1           0        1.451823    2.900446   -1.166957
     24          1           0        2.200185    4.041930   -0.037232
     25          6           0        3.710592   -0.438058    0.109113
     26          6           0        3.274344   -1.894358   -0.054784
     27          6           0        4.420354   -2.882833    0.162866
     28          1           0        4.521157   -0.223261   -0.600987
     29          1           0        4.130866   -0.298783    1.114557
     30          1           0        2.854884   -2.030137   -1.059887
     31          1           0        2.463901   -2.105954    0.654459
     32          1           0        4.834699   -2.776443    1.170636
     33          1           0        5.227903   -2.700196   -0.553452
     34          1           0        4.086338   -3.917928    0.040912
 ---------------------------------------------------------------------

 SCF Done:  E(RHF) =  -669.534684759     A.U. after   15 cycles
 E2 =    -0.2092736103D+01 EUMP2 =    -0.67162742086274D+03

 The electronic state is 1-A.
 Alpha  occ. eigenvalues --  -20.60757 -20.60752 -15.85813 -11.31170 -11.27779
 Alpha  occ. eigenvalues --  -11.27761 -11.27476 -11.26767 -11.26738 -11.22076
 Alpha  occ. eigenvalues --  -11.21777 -11.21662 -11.21623 -11.21524 -11.21046
 Alpha  occ. eigenvalues --   -1.59834  -1.39387  -1.19362  -1.08773  -1.08665
 Alpha  occ. eigenvalues --   -1.04766  -1.03813  -0.96300  -0.95579  -0.87321
 Alpha  occ. eigenvalues --   -0.86163  -0.82422  -0.79898  -0.78455  -0.77465
 Alpha  occ. eigenvalues --   -0.72032  -0.71158  -0.70480  -0.65316  -0.65013
 Alpha  occ. eigenvalues --   -0.64771  -0.62118  -0.61219  -0.59669  -0.57894
 Alpha  occ. eigenvalues --   -0.55677  -0.55202  -0.53241  -0.52983  -0.52859
 Alpha  occ. eigenvalues --   -0.52574  -0.50238  -0.48789  -0.48786  -0.48186
 Alpha  occ. eigenvalues --   -0.46914  -0.46003  -0.45907  -0.44796  -0.44052
 Alpha  occ. eigenvalues --   -0.37239  -0.36371
 Alpha virt. eigenvalues --    0.05062   0.11182   0.16498   0.20862   0.22655
 Alpha virt. eigenvalues --    0.24135   0.25961   0.26730   0.27355   0.27429
 Alpha virt. eigenvalues --    0.28937   0.30149   0.31221   0.31664   0.32076

 Mulliken charges:
               1
     1  C   -0.167183
     2  C   -0.221588
     3  C   -0.170564
     4  C    0.158252
     5  C   -0.170771
     6  C   -0.217972
     7  H    0.228895
     8  H    0.223325
     9  H    0.275529
    10  H    0.275493
    11  H    0.223221
    12  N    0.488183
    13  O   -0.460519
    14  O   -0.460782
    15  C   -0.298220
    16  C   -0.299265
    17  C   -0.478482
    18  H    0.148741
    19  H    0.151791
    20  H    0.153127
    21  H    0.152712
    22  H    0.154030
    23  H    0.150104
    24  H    0.158786
    25  C   -0.298721
    26  C   -0.300082
    27  C   -0.476050
    28  H    0.149249
    29  H    0.149401
    30  H    0.153077
    31  H    0.154119
    32  H    0.154760
    33  H    0.154502
    34  H    0.162903
 Sum of Mulliken charges =  -0.00000

 Dipole moment (field-independent basis, Debye):
    X=              1.5896    Y=              4.9000    Z=              0.2175  Tot=              5.1560
 Quadrupole moment (field-independent basis, Debye-Ang):
   XX=           -104.0086   YY=            -99.0526   ZZ=            -88.8794
   XY=            -12.7591   XZ=             -1.4929   YZ=             -0.0655

 Normal termination of Gaussian 16 at Wed May  5 17:37:25 2021.
