 Gaussian 16, Revision A.03,
 Gaussian 16:  EM64L-G16RevA.03 25-Dec-2016

 -------------
 #p 6-31g* mp2
 -------------

 ------------------------------------------------------
 Input file generated by CHIRIPA (05-May-2021 14:51:08)
 ------------------------------------------------------
 Symbolic Z-matrix:
 Charge =  0 Multiplicity = 1

                         Standard orientation:
 ---------------------------------------------------------------------
 Center     Atomic      Atomic             Coordinates (Angstroms)
 Number     Number       Type             X           Y           Z
 ---------------------------------------------------------------------
      1          6           0        2.892290   -0.383902    1.023742
      2          6           0        1.648883   -1.261137    0.874140
      3          6           0        1.221106   -1.909766    2.190985
      4          1           0        3.717054   -0.992339    1.419360
      5          1           0        2.693770    0.397098    1.770752
      6          1           0        1.849216   -2.039407    0.126625
      7          1           0        0.827036   -0.650585    0.478652
      8          1           0        0.994325   -1.145299    2.941160
      9          1           0        2.022313   -2.542011    2.587133
     10          1           0        0.330419   -2.532395    2.061102
     11          6           0        3.332278    0.271451   -0.284177
     12          6           0        4.575685    1.148687   -0.134576
     13          6           0        5.003462    1.797315   -1.451421
     14          1           0        3.530798   -0.509548   -1.031187
     15          1           0        2.507514    0.879889   -0.679795
     16          1           0        5.397532    0.538135    0.260913
     17          1           0        4.375351    1.926956    0.612940
     18          1           0        4.202255    2.429561   -1.847569
     19          1           0        5.230243    1.032849   -2.201595
     20          1           0        5.894149    2.419944   -1.321537
     21          6           0       -3.127656   -0.704745   -0.433964
     22          6           0       -2.023922   -1.259691   -1.334959
     23          6           0       -2.067814   -2.783447   -1.453431
     24          1           0       -3.037870   -1.154308    0.564423
     25          1           0       -4.104796   -1.014690   -0.829599
     26          1           0       -1.049208   -0.947630   -0.938519
     27          1           0       -2.116230   -0.808610   -2.331263
     28          1           0       -3.026053   -3.109995   -1.870259
     29          1           0       -1.952968   -3.249806   -0.469601
     30          1           0       -1.270145   -3.158839   -2.102018
     31          6           0       -3.096912    0.817195   -0.305601
     32          6           0       -4.200645    1.372141    0.595395
     33          6           0       -4.156754    2.895897    0.713866
     34          1           0       -2.119773    1.127141    0.090035
     35          1           0       -3.186698    1.266759   -1.303988
     36          1           0       -4.108338    0.921061    1.591699
     37          1           0       -5.175360    1.060082    0.198954
     38          1           0       -4.271600    3.362256   -0.269964
     39          1           0       -3.198515    3.222445    1.130694
     40          1           0       -4.954422    3.271290    1.362454
 ---------------------------------------------------------------------

 SCF Done:  E(RHF) =  -470.733302999     A.U. after   11 cycles
 E2 =    -0.1583005498D+01 EUMP2 =    -0.47231630849744D+03

 The electronic state is 1-A.
 Alpha  occ. eigenvalues --  -11.21655 -11.21623 -11.21611 -11.21535 -11.21442
 Alpha  occ. eigenvalues --  -11.21409 -11.21381 -11.21342 -11.21139 -11.21085
 Alpha  occ. eigenvalues --  -11.21084 -11.21050  -1.08476  -1.08419  -1.03584
 Alpha  occ. eigenvalues --   -1.03506  -0.96019  -0.95970  -0.87036  -0.86986
 Alpha  occ. eigenvalues --   -0.79696  -0.79534  -0.78332  -0.78189  -0.65177
 Alpha  occ. eigenvalues --   -0.64994  -0.61064  -0.60847  -0.59401  -0.59313
 Alpha  occ. eigenvalues --   -0.57636  -0.57569  -0.55304  -0.55258  -0.52715
 Alpha  occ. eigenvalues --   -0.52663  -0.52443  -0.52397  -0.49995  -0.49895
 Alpha  occ. eigenvalues --   -0.48095  -0.47831  -0.46860  -0.46491  -0.45991
 Alpha  occ. eigenvalues --   -0.45771  -0.45755  -0.45362  -0.43821  -0.43774
 Alpha virt. eigenvalues --    0.20464   0.23166   0.23673   0.24989   0.25197
 Alpha virt. eigenvalues --    0.26605   0.26884   0.27782   0.28395   0.28890
 Alpha virt. eigenvalues --    0.30461   0.31158   0.31525   0.31856   0.32421

 Mulliken charges:
               1
     1  C   -0.297577
     2  C   -0.305891
     3  C   -0.476007
     4  H    0.149892
     5  H    0.149348
     6  H    0.152670
     7  H    0.156999
     8  H    0.154995
     9  H    0.155785
    10  H    0.160231
    11  C   -0.298461
    12  C   -0.299666
    13  C   -0.475754
    14  H    0.149699
    15  H    0.149618
    16  H    0.152012
    17  H    0.151930
    18  H    0.155334
    19  H    0.155240
    20  H    0.160321
    21  C   -0.297930
    22  C   -0.307790
    23  C   -0.475290
    24  H    0.149532
    25  H    0.149494
    26  H    0.160550
    27  H    0.151620
    28  H    0.155013
    29  H    0.154779
    30  H    0.160231
    31  C   -0.298425
    32  C   -0.299665
    33  C   -0.475681
    34  H    0.148423
    35  H    0.149780
    36  H    0.152084
    37  H    0.152110
    38  H    0.155192
    39  H    0.154921
    40  H    0.160336
 Sum of Mulliken charges =  -0.00000

 Dipole moment (field-independent basis, Debye):
    X=              0.0280    Y=             -0.0033    Z=              0.0004  Tot=              0.0282
 Quadrupole moment (field-independent basis, Debye-Ang):
   XX=            -84.2254   YY=            -85.6309   ZZ=            -84.8906
   XY=             -0.7071   XZ=              0.7717   YZ=              0.3536

 Normal termination of Gaussian 16 at Wed May  5 16:35:55 2021.
