 Gaussian 16, Revision A.03,
 Gaussian 16:  EM64L-G16RevA.03 25-Dec-2016

 -------------
 #p 6-31g* mp2
 -------------

 ------------------------------------------------------
 Input file generated by CHIRIPA (05-May-2021 14:57:20)
 ------------------------------------------------------
 Symbolic Z-matrix:
 Charge =  0 Multiplicity = 1

                         Standard orientation:
 ---------------------------------------------------------------------
 Center     Atomic      Atomic             Coordinates (Angstroms)
 Number     Number       Type             X           Y           Z
 ---------------------------------------------------------------------
      1          6           0       -1.236352    1.388492   -0.636322
      2          6           0       -1.385848    0.004327   -0.771445
      3          6           0       -2.620373   -0.603866   -0.525277
      4          6           0       -3.689031    0.206004   -0.144000
      5          6           0       -3.571680    1.587673   -0.000788
      6          6           0       -2.327821    2.174362   -0.252102
      7          1           0       -0.273718    1.852598   -0.829550
      8          1           0       -0.539938   -0.608477   -1.069693
      9          1           0       -2.763987   -1.673154   -0.622309
     10          1           0       -4.433248    2.172342    0.298012
     11          1           0       -2.214643    3.249563   -0.146370
     12          7           0       -5.000908   -0.426480    0.119331
     13          8           0       -5.926928    0.309139    0.453977
     14          8           0       -5.078296   -1.645864   -0.013903
     15          6           0        1.352958   -1.558885    0.746879
     16          6           0        1.841250   -0.581881    1.620695
     17          6           0        3.014843    0.116221    1.320894
     18          6           0        3.677757   -0.189531    0.133312
     19          6           0        3.216501   -1.157442   -0.757576
     20          6           0        2.040929   -1.843046   -0.437380
     21          1           0        0.440514   -2.096333    0.987694
     22          1           0        1.309046   -0.359105    2.541116
     23          1           0        3.415133    0.877439    1.979476
     24          1           0        3.768983   -1.357459   -1.667616
     25          1           0        1.664050   -2.601292   -1.117872
     26          7           0        4.921235    0.542903   -0.194871
     27          8           0        5.486728    0.254912   -1.247447
     28          8           0        5.306835    1.391107    0.606691
 ---------------------------------------------------------------------

 SCF Done:  E(RHF) =  -868.336503712     A.U. after   16 cycles
 E2 =    -0.2602082918D+01 EUMP2 =    -0.87093858663015D+03

 The electronic state is 1-A.
 Alpha  occ. eigenvalues --  -20.61546 -20.61541 -20.61249 -20.61238 -15.86608
 Alpha  occ. eigenvalues --  -15.86299 -11.32119 -11.31703 -11.28751 -11.28706
 Alpha  occ. eigenvalues --  -11.28471 -11.28291 -11.28226 -11.27924 -11.27763
 Alpha  occ. eigenvalues --  -11.27673 -11.27233 -11.27186  -1.60622  -1.60322
 Alpha  occ. eigenvalues --   -1.40170  -1.39875  -1.20342  -1.19859  -1.09714
 Alpha  occ. eigenvalues --   -1.09222  -1.05745  -1.05275  -0.96503  -0.96065
 Alpha  occ. eigenvalues --   -0.87136  -0.86648  -0.83320  -0.82900  -0.78333
 Alpha  occ. eigenvalues --   -0.77971  -0.72816  -0.72513  -0.71956  -0.71649
 Alpha  occ. eigenvalues --   -0.71422  -0.70927  -0.65983  -0.65735  -0.65496
 Alpha  occ. eigenvalues --   -0.65252  -0.63062  -0.62638  -0.56229  -0.55709
 Alpha  occ. eigenvalues --   -0.54293  -0.53801  -0.53564  -0.53157  -0.49588
 Alpha  occ. eigenvalues --   -0.49565  -0.49278  -0.49267  -0.45542  -0.45273
 Alpha  occ. eigenvalues --   -0.38529  -0.37721  -0.37345  -0.36753
 Alpha virt. eigenvalues --    0.04137   0.04586   0.10035   0.10813   0.15451
 Alpha virt. eigenvalues --    0.16273   0.19978   0.21561   0.25877   0.26683
 Alpha virt. eigenvalues --    0.27816   0.28510   0.29969   0.30860   0.31889

 Mulliken charges:
               1
     1  C   -0.174119
     2  C   -0.221313
     3  C   -0.178171
     4  C    0.159549
     5  C   -0.171372
     6  C   -0.218903
     7  H    0.230145
     8  H    0.226245
     9  H    0.271746
    10  H    0.276947
    11  H    0.225822
    12  N    0.488005
    13  O   -0.458561
    14  O   -0.461470
    15  C   -0.173868
    16  C   -0.218363
    17  C   -0.172620
    18  C    0.156770
    19  C   -0.170719
    20  C   -0.229349
    21  H    0.230692
    22  H    0.229014
    23  H    0.278401
    24  H    0.278727
    25  H    0.225596
    26  N    0.487908
    27  O   -0.458270
    28  O   -0.458469
 Sum of Mulliken charges =  -0.00000

 Dipole moment (field-independent basis, Debye):
    X=              0.4307    Y=             -0.2307    Z=              0.3348  Tot=              0.5923
 Quadrupole moment (field-independent basis, Debye-Ang):
   XX=           -171.1709   YY=            -98.0080   ZZ=           -101.2123
   XY=            -18.5119   XZ=              5.6348   YZ=              2.4844

 Normal termination of Gaussian 16 at Wed May  5 16:10:56 2021.
