 Gaussian 16, Revision A.03,
 Gaussian 16:  EM64L-G16RevA.03 25-Dec-2016

 -------------
 #p 6-31g* mp2
 -------------

 ------------------------------------------------------
 Input file generated by CHIRIPA (05-May-2021 14:53:12)
 ------------------------------------------------------
 Symbolic Z-matrix:
 Charge =  0 Multiplicity = 1

                         Standard orientation:
 ---------------------------------------------------------------------
 Center     Atomic      Atomic             Coordinates (Angstroms)
 Number     Number       Type             X           Y           Z
 ---------------------------------------------------------------------
      1          6           0        3.574650   -1.115538    0.238354
      2          6           0        2.072466   -1.216504   -0.028542
      3          6           0        1.438299   -2.447500    0.619745
      4          1           0        4.068624   -2.023381   -0.134145
      5          1           0        3.746254   -1.089110    1.323365
      6          1           0        1.903658   -1.241340   -1.112748
      7          1           0        1.582036   -0.308231    0.344464
      8          1           0        1.577366   -2.425853    1.705467
      9          1           0        1.900816   -3.364264    0.239976
     10          1           0        0.364192   -2.499962    0.416271
     11          6           0        4.222929    0.109929   -0.403279
     12          6           0        5.725113    0.210895   -0.136383
     13          6           0        6.359280    1.441891   -0.784670
     14          1           0        4.051326    0.083501   -1.488290
     15          1           0        3.728955    1.017772   -0.030779
     16          1           0        6.215543   -0.697378   -0.509389
     17          1           0        5.893921    0.235731    0.947823
     18          1           0        5.896763    2.358655   -0.404901
     19          1           0        6.220213    1.420244   -1.870392
     20          1           0        7.433387    1.494353   -0.581196
     21          6           0       -1.348897    2.048740    0.926933
     22          6           0       -1.167711    0.679937    1.150699
     23          6           0       -2.101551   -0.246596    0.677384
     24          6           0       -3.209992    0.232728   -0.018961
     25          6           0       -3.418490    1.590195   -0.257913
     26          6           0       -2.471729    2.498708    0.224579
     27          1           0       -0.618450    2.761494    1.298179
     28          1           0       -0.296655    0.327619    1.695839
     29          1           0       -1.985969   -1.311840    0.836492
     30          1           0       -4.296804    1.911182   -0.804676
     31          1           0       -2.615029    3.561155    0.049319
     32          7           0       -4.205445   -0.738613   -0.524896
     33          8           0       -5.173540   -0.290812   -1.135555
     34          8           0       -3.998739   -1.929357   -0.301206
 ---------------------------------------------------------------------

 SCF Done:  E(RHF) =  -669.535004215     A.U. after   15 cycles
 E2 =    -0.2092270914D+01 EUMP2 =    -0.67162727512897D+03

 The electronic state is 1-A.
 Alpha  occ. eigenvalues --  -20.60765 -20.60760 -15.85818 -11.31188 -11.27757
 Alpha  occ. eigenvalues --  -11.27747 -11.27502 -11.26777 -11.26746 -11.22272
 Alpha  occ. eigenvalues --  -11.22066 -11.21981 -11.21911 -11.21800 -11.21490
 Alpha  occ. eigenvalues --   -1.59840  -1.39393  -1.19362  -1.09013  -1.08756
 Alpha  occ. eigenvalues --   -1.04773  -1.04107  -0.96561  -0.95590  -0.87573
 Alpha  occ. eigenvalues --   -0.86168  -0.82424  -0.80171  -0.78815  -0.77469
 Alpha  occ. eigenvalues --   -0.72037  -0.71162  -0.70476  -0.65704  -0.65015
 Alpha  occ. eigenvalues --   -0.64760  -0.62242  -0.61432  -0.59902  -0.58155
 Alpha  occ. eigenvalues --   -0.55853  -0.55260  -0.53286  -0.53076  -0.53014
 Alpha  occ. eigenvalues --   -0.52805  -0.50496  -0.48803  -0.48791  -0.48466
 Alpha  occ. eigenvalues --   -0.47199  -0.46350  -0.46272  -0.44798  -0.44359
 Alpha  occ. eigenvalues --   -0.37336  -0.36338
 Alpha virt. eigenvalues --    0.05047   0.11183   0.16466   0.19709   0.22661
 Alpha virt. eigenvalues --    0.23772   0.25583   0.26091   0.26828   0.27804
 Alpha virt. eigenvalues --    0.28833   0.29988   0.31116   0.31558   0.31951

 Mulliken charges:
               1
     1  C   -0.298568
     2  C   -0.302752
     3  C   -0.481577
     4  H    0.152893
     5  H    0.148013
     6  H    0.157774
     7  H    0.144972
     8  H    0.152591
     9  H    0.162563
    10  H    0.160503
    11  C   -0.297637
    12  C   -0.300032
    13  C   -0.475816
    14  H    0.151881
    15  H    0.145542
    16  H    0.153830
    17  H    0.151673
    18  H    0.153840
    19  H    0.156369
    20  H    0.161748
    21  C   -0.172202
    22  C   -0.217039
    23  C   -0.174940
    24  C    0.159190
    25  C   -0.170679
    26  C   -0.218327
    27  H    0.225360
    28  H    0.226614
    29  H    0.277899
    30  H    0.275626
    31  H    0.223461
    32  N    0.488038
    33  O   -0.460401
    34  O   -0.460407
 Sum of Mulliken charges =  -0.00000

 Dipole moment (field-independent basis, Debye):
    X=              3.6129    Y=              3.3739    Z=              1.7036  Tot=              5.2287
 Quadrupole moment (field-independent basis, Debye-Ang):
   XX=           -116.2583   YY=            -90.7773   ZZ=            -94.2918
   XY=            -13.4109   XZ=             -4.7416   YZ=             -0.3768

 Normal termination of Gaussian 16 at Thu May  6 18:39:58 2021.
