 Gaussian 16, Revision A.03,
 Gaussian 16:  EM64L-G16RevA.03 25-Dec-2016

 -------------
 #p 6-31g* mp2
 -------------

 ------------------------------------------------------
 Input file generated by CHIRIPA (05-May-2021 14:51:08)
 ------------------------------------------------------
 Symbolic Z-matrix:
 Charge =  0 Multiplicity = 1

                         Standard orientation:
 ---------------------------------------------------------------------
 Center     Atomic      Atomic             Coordinates (Angstroms)
 Number     Number       Type             X           Y           Z
 ---------------------------------------------------------------------
      1          6           0       -2.192791   -0.040515   -0.709841
      2          6           0       -3.000516   -1.335232   -0.613545
      3          6           0       -2.543165   -2.393406   -1.617981
      4          1           0       -2.274519    0.360179   -1.729503
      5          1           0       -1.129885   -0.266693   -0.547146
      6          1           0       -4.061750   -1.106471   -0.775002
      7          1           0       -2.917012   -1.732788    0.406058
      8          1           0       -1.491559   -2.650471   -1.454752
      9          1           0       -2.642801   -2.020596   -2.642523
     10          1           0       -3.133969   -3.310673   -1.531774
     11          6           0       -2.638203    1.027034    0.287994
     12          6           0       -1.830477    2.321751    0.191699
     13          6           0       -2.287829    3.379925    1.196134
     14          1           0       -3.701109    1.253212    0.125299
     15          1           0       -2.556475    0.626341    1.307656
     16          1           0       -1.913981    2.719308   -0.827905
     17          1           0       -0.769244    2.092991    0.353155
     18          1           0       -2.188193    3.007115    2.220676
     19          1           0       -3.339434    3.636991    1.032906
     20          1           0       -1.697025    4.297192    1.109927
     21          6           0        3.071608   -0.110216    0.132010
     22          6           0        3.002045    1.002514   -0.914401
     23          6           0        4.322277    1.759715   -1.060786
     24          1           0        3.356714    0.323168    1.100431
     25          1           0        3.870042   -0.813250   -0.143020
     26          1           0        2.203062    1.702488   -0.638216
     27          1           0        2.716885    0.566458   -1.880401
     28          1           0        5.125816    1.078811   -1.359612
     29          1           0        4.609073    2.221295   -0.110369
     30          1           0        4.250128    2.550577   -1.813906
     31          6           0        1.759385   -0.876303    0.289836
     32          6           0        1.828949   -1.989034    1.336248
     33          6           0        0.508717   -2.746234    1.482633
     34          1           0        0.960952   -0.173270    0.564867
     35          1           0        1.474280   -1.309688   -0.678584
     36          1           0        2.114109   -1.552978    2.302248
     37          1           0        2.627933   -2.689007    1.060063
     38          1           0        0.221921   -3.207815    0.532217
     39          1           0       -0.294822   -2.065331    1.781459
     40          1           0        0.580866   -3.537097    2.235754
 ---------------------------------------------------------------------

 SCF Done:  E(RHF) =  -470.732730934     A.U. after   11 cycles
 E2 =    -0.1585087067D+01 EUMP2 =    -0.47231781800106D+03

 The electronic state is 1-A.
 Alpha  occ. eigenvalues --  -11.21700 -11.21642 -11.21618 -11.21504 -11.21494
 Alpha  occ. eigenvalues --  -11.21426 -11.21354 -11.21199 -11.21176 -11.21100
 Alpha  occ. eigenvalues --  -11.21086 -11.21002  -1.08535  -1.08360  -1.03613
 Alpha  occ. eigenvalues --   -1.03480  -0.96067  -0.95928  -0.87080  -0.86950
 Alpha  occ. eigenvalues --   -0.79685  -0.79544  -0.78500  -0.78040  -0.65253
 Alpha  occ. eigenvalues --   -0.64922  -0.61006  -0.60911  -0.59428  -0.59286
 Alpha  occ. eigenvalues --   -0.57714  -0.57511  -0.55374  -0.55217  -0.52748
 Alpha  occ. eigenvalues --   -0.52642  -0.52544  -0.52289  -0.50067  -0.49830
 Alpha  occ. eigenvalues --   -0.48120  -0.47773  -0.46720  -0.46580  -0.46482
 Alpha  occ. eigenvalues --   -0.45767  -0.45694  -0.44952  -0.43859  -0.43728
 Alpha virt. eigenvalues --    0.19666   0.21572   0.23261   0.24827   0.25300
 Alpha virt. eigenvalues --    0.25568   0.26494   0.27680   0.28585   0.30589
 Alpha virt. eigenvalues --    0.30770   0.31261   0.31527   0.31728   0.32138

 Mulliken charges:
               1
     1  C   -0.308590
     2  C   -0.299500
     3  C   -0.478467
     4  H    0.148759
     5  H    0.161686
     6  H    0.151249
     7  H    0.152987
     8  H    0.157283
     9  H    0.154662
    10  H    0.159968
    11  C   -0.298007
    12  C   -0.303446
    13  C   -0.475552
    14  H    0.149658
    15  H    0.148257
    16  H    0.152552
    17  H    0.153562
    18  H    0.154876
    19  H    0.155553
    20  H    0.160109
    21  C   -0.297300
    22  C   -0.301597
    23  C   -0.475743
    24  H    0.149677
    25  H    0.149874
    26  H    0.153468
    27  H    0.152460
    28  H    0.155298
    29  H    0.155189
    30  H    0.160596
    31  C   -0.306191
    32  C   -0.299368
    33  C   -0.480850
    34  H    0.155345
    35  H    0.150741
    36  H    0.152124
    37  H    0.152502
    38  H    0.158603
    39  H    0.156466
    40  H    0.161104
 Sum of Mulliken charges =  -0.00000

 Dipole moment (field-independent basis, Debye):
    X=              0.0667    Y=             -0.0185    Z=              0.0058  Tot=              0.0695
 Quadrupole moment (field-independent basis, Debye-Ang):
   XX=            -85.1511   YY=            -85.3503   ZZ=            -84.2928
   XY=             -0.8710   XZ=              0.5455   YZ=             -0.2752

 Normal termination of Gaussian 16 at Thu May  6 06:52:20 2021.
