 Gaussian 16, Revision A.03,
 Gaussian 16:  EM64L-G16RevA.03 25-Dec-2016

 -------------
 #p 6-31g* mp2
 -------------

 ------------------------------------------------------
 Input file generated by CHIRIPA (05-May-2021 14:53:12)
 ------------------------------------------------------
 Symbolic Z-matrix:
 Charge =  0 Multiplicity = 1

                         Standard orientation:
 ---------------------------------------------------------------------
 Center     Atomic      Atomic             Coordinates (Angstroms)
 Number     Number       Type             X           Y           Z
 ---------------------------------------------------------------------
      1          6           0       -3.964421    0.639217    0.639297
      2          6           0       -2.739501    1.369699    0.087978
      3          6           0       -2.099255    2.306777    1.112558
      4          1           0       -4.704381    1.378817    0.974554
      5          1           0       -3.670735    0.065383    1.529161
      6          1           0       -3.035119    1.940884   -0.801390
      7          1           0       -2.002451    0.628275   -0.246181
      8          1           0       -1.776793    1.747946    1.997051
      9          1           0       -2.815328    3.068013    1.438688
     10          1           0       -1.225445    2.818655    0.697471
     11          6           0       -4.615504   -0.301297   -0.373250
     12          6           0       -5.840424   -1.031779    0.178069
     13          6           0       -6.480670   -1.968857   -0.846511
     14          1           0       -4.909190    0.272538   -1.263114
     15          1           0       -3.875544   -1.040896   -0.708507
     16          1           0       -6.577474   -0.290354    0.512228
     17          1           0       -5.544806   -1.602963    1.067437
     18          1           0       -5.764597   -2.730093   -1.172641
     19          1           0       -6.803132   -1.410026   -1.731004
     20          1           0       -7.354480   -2.480734   -0.431424
     21          6           0        2.217528    2.055395   -0.647302
     22          6           0        3.612783    1.962717   -0.681892
     23          6           0        4.251826    0.755809   -0.382651
     24          6           0        3.461165   -0.343469   -0.051393
     25          6           0        2.069135   -0.282762   -0.008290
     26          6           0        1.451507    0.934336   -0.311204
     27          1           0        1.729422    2.996907   -0.881185
     28          1           0        4.210224    2.831712   -0.942576
     29          1           0        5.330306    0.656151   -0.401805
     30          1           0        1.500335   -1.166232    0.255086
     31          1           0        0.367759    1.003386   -0.283542
     32          7           0        4.126355   -1.626563    0.267344
     33          8           0        3.407190   -2.580498    0.556217
     34          8           0        5.354301   -1.654022    0.222261
 ---------------------------------------------------------------------

 SCF Done:  E(RHF) =  -669.535274237     A.U. after   15 cycles
 E2 =    -0.2091577195D+01 EUMP2 =    -0.67162685143190D+03

 The electronic state is 1-A.
 Alpha  occ. eigenvalues --  -20.60727 -20.60722 -15.85779 -11.31133 -11.27696
 Alpha  occ. eigenvalues --  -11.27684 -11.27432 -11.26717 -11.26644 -11.22709
 Alpha  occ. eigenvalues --  -11.22178 -11.22151 -11.22041 -11.21950 -11.21404
 Alpha  occ. eigenvalues --   -1.59803  -1.39357  -1.19298  -1.09161  -1.08696
 Alpha  occ. eigenvalues --   -1.04703  -1.04274  -0.96705  -0.95536  -0.87717
 Alpha  occ. eigenvalues --   -0.86099  -0.82370  -0.80367  -0.78921  -0.77419
 Alpha  occ. eigenvalues --   -0.71999  -0.71125  -0.70415  -0.65833  -0.64950
 Alpha  occ. eigenvalues --   -0.64728  -0.62180  -0.61566  -0.60084  -0.58299
 Alpha  occ. eigenvalues --   -0.55971  -0.55193  -0.53441  -0.53151  -0.53018
 Alpha  occ. eigenvalues --   -0.52722  -0.50632  -0.48760  -0.48754  -0.48664
 Alpha  occ. eigenvalues --   -0.47393  -0.46463  -0.46351  -0.44765  -0.44512
 Alpha  occ. eigenvalues --   -0.37279  -0.36296
 Alpha virt. eigenvalues --    0.05111   0.11321   0.16605   0.19438   0.22571
 Alpha virt. eigenvalues --    0.23928   0.25407   0.26203   0.26549   0.27628
 Alpha virt. eigenvalues --    0.28893   0.30026   0.30869   0.31543   0.31941

 Mulliken charges:
               1
     1  C   -0.298126
     2  C   -0.306239
     3  C   -0.478782
     4  H    0.152618
     5  H    0.152101
     6  H    0.155118
     7  H    0.145558
     8  H    0.160362
     9  H    0.162094
    10  H    0.151433
    11  C   -0.299168
    12  C   -0.300396
    13  C   -0.476243
    14  H    0.150284
    15  H    0.150211
    16  H    0.152677
    17  H    0.153490
    18  H    0.156434
    19  H    0.155448
    20  H    0.162067
    21  C   -0.174177
    22  C   -0.218287
    23  C   -0.171475
    24  C    0.159002
    25  C   -0.174356
    26  C   -0.227482
    27  H    0.225529
    28  H    0.223128
    29  H    0.275345
    30  H    0.274900
    31  H    0.240168
    32  N    0.488084
    33  O   -0.460694
    34  O   -0.460627
 Sum of Mulliken charges =  -0.00000

 Dipole moment (field-independent basis, Debye):
    X=             -2.6086    Y=              4.5211    Z=             -1.0726  Tot=              5.3288
 Quadrupole moment (field-independent basis, Debye-Ang):
   XX=           -106.0808   YY=            -97.3687   ZZ=            -95.5930
   XY=             17.8868   XZ=             -4.9164   YZ=             -0.8716

 Normal termination of Gaussian 16 at Wed May  5 21:44:58 2021.
