 Gaussian 16, Revision A.03,
 Gaussian 16:  EM64L-G16RevA.03 25-Dec-2016

 -------------
 #p 6-31g* mp2
 -------------

 ------------------------------------------------------
 Input file generated by CHIRIPA (05-May-2021 14:53:13)
 ------------------------------------------------------
 Symbolic Z-matrix:
 Charge =  0 Multiplicity = 1

                         Standard orientation:
 ---------------------------------------------------------------------
 Center     Atomic      Atomic             Coordinates (Angstroms)
 Number     Number       Type             X           Y           Z
 ---------------------------------------------------------------------
      1          6           0        3.534115   -0.613773    0.011692
      2          6           0        2.827595   -1.666131    0.866885
      3          6           0        3.425192   -3.063349    0.698198
      4          1           0        3.480214   -0.912144   -1.044251
      5          1           0        4.600372   -0.591931    0.276291
      6          1           0        1.762725   -1.685013    0.601724
      7          1           0        2.883018   -1.365123    1.920896
      8          1           0        4.482628   -3.066882    0.981779
      9          1           0        3.355969   -3.388589   -0.344888
     10          1           0        2.905134   -3.799994    1.318483
     11          6           0        2.948038    0.788137    0.169458
     12          6           0        3.654558    1.840496   -0.685736
     13          6           0        3.056961    3.237713   -0.517048
     14          1           0        1.881781    0.766296   -0.095141
     15          1           0        3.001939    1.086508    1.225401
     16          1           0        3.599135    1.539488   -1.739746
     17          1           0        4.719428    1.859377   -0.420574
     18          1           0        3.126183    3.562953    0.526038
     19          1           0        1.999525    3.241246   -0.800629
     20          1           0        3.577019    3.974358   -1.137333
     21          6           0       -2.016403   -2.423572   -0.813589
     22          6           0       -0.998101   -1.465803   -0.766079
     23          6           0       -1.272327   -0.157662   -0.356061
     24          6           0       -2.581946    0.159606    0.001052
     25          6           0       -3.618093   -0.772237   -0.035759
     26          6           0       -3.320850   -2.074349   -0.448919
     27          1           0       -1.794438   -3.437426   -1.133322
     28          1           0        0.015871   -1.734178   -1.048711
     29          1           0       -0.503038    0.603581   -0.309996
     30          1           0       -4.619157   -0.474817    0.252040
     31          1           0       -4.113674   -2.816094   -0.484843
     32          7           0       -2.884440    1.541285    0.436784
     33          8           0       -4.046416    1.795561    0.746287
     34          8           0       -1.953832    2.343805    0.460555
 ---------------------------------------------------------------------

 SCF Done:  E(RHF) =  -669.534905790     A.U. after   15 cycles
 E2 =    -0.2092910343D+01 EUMP2 =    -0.67162781613227D+03

 The electronic state is 1-A.
 Alpha  occ. eigenvalues --  -20.60773 -20.60767 -15.85824 -11.31193 -11.27775
 Alpha  occ. eigenvalues --  -11.27761 -11.27516 -11.26785 -11.26764 -11.22271
 Alpha  occ. eigenvalues --  -11.21991 -11.21915 -11.21837 -11.21736 -11.21022
 Alpha  occ. eigenvalues --   -1.59846  -1.39399  -1.19375  -1.08957  -1.08765
 Alpha  occ. eigenvalues --   -1.04784  -1.03957  -0.96392  -0.95600  -0.87404
 Alpha  occ. eigenvalues --   -0.86179  -0.82442  -0.80033  -0.78771  -0.77469
 Alpha  occ. eigenvalues --   -0.72044  -0.71168  -0.70491  -0.65670  -0.65019
 Alpha  occ. eigenvalues --   -0.64807  -0.62126  -0.61347  -0.59781  -0.57992
 Alpha  occ. eigenvalues --   -0.55693  -0.55280  -0.53128  -0.53047  -0.52985
 Alpha  occ. eigenvalues --   -0.52701  -0.50321  -0.48806  -0.48797  -0.48312
 Alpha  occ. eigenvalues --   -0.47076  -0.46264  -0.46208  -0.44804  -0.44233
 Alpha  occ. eigenvalues --   -0.37351  -0.36362
 Alpha virt. eigenvalues --    0.05039   0.11219   0.16400   0.18909   0.22878
 Alpha virt. eigenvalues --    0.23256   0.24942   0.26606   0.27512   0.28049
 Alpha virt. eigenvalues --    0.29567   0.30758   0.31419   0.31562   0.32421

 Mulliken charges:
               1
     1  C   -0.299257
     2  C   -0.305100
     3  C   -0.476092
     4  H    0.146123
     5  H    0.153724
     6  H    0.146294
     7  H    0.157635
     8  H    0.159168
     9  H    0.151570
    10  H    0.161214
    11  C   -0.302158
    12  C   -0.300062
    13  C   -0.477208
    14  H    0.142844
    15  H    0.155914
    16  H    0.150325
    17  H    0.153234
    18  H    0.158292
    19  H    0.160968
    20  H    0.161069
    21  C   -0.171623
    22  C   -0.222221
    23  C   -0.180889
    24  C    0.160406
    25  C   -0.169848
    26  C   -0.218986
    27  H    0.225997
    28  H    0.226238
    29  H    0.286121
    30  H    0.275756
    31  H    0.223602
    32  N    0.487501
    33  O   -0.460363
    34  O   -0.460188
 Sum of Mulliken charges =  -0.00000

 Dipole moment (field-independent basis, Debye):
    X=              1.1623    Y=             -4.7652    Z=             -1.4520  Tot=              5.1153
 Quadrupole moment (field-independent basis, Debye-Ang):
   XX=            -94.7623   YY=            -97.3693   ZZ=            -94.8765
   XY=             14.9941   XZ=              4.1002   YZ=             -0.3068

 Normal termination of Gaussian 16 at Wed May  5 21:49:16 2021.
