 Gaussian 16, Revision A.03,
 Gaussian 16:  EM64L-G16RevA.03 25-Dec-2016

 -------------
 #p 6-31g* mp2
 -------------

 ------------------------------------------------------
 Input file generated by CHIRIPA (05-May-2021 14:53:15)
 ------------------------------------------------------
 Symbolic Z-matrix:
 Charge =  0 Multiplicity = 1

                         Standard orientation:
 ---------------------------------------------------------------------
 Center     Atomic      Atomic             Coordinates (Angstroms)
 Number     Number       Type             X           Y           Z
 ---------------------------------------------------------------------
      1          6           0       -4.542524   -0.520821   -0.138658
      2          6           0       -5.370568    0.712547    0.223463
      3          6           0       -6.855247    0.395378    0.404914
      4          1           0       -4.939995   -0.963170   -1.062395
      5          1           0       -4.663071   -1.278632    0.647845
      6          1           0       -5.247398    1.468341   -0.562807
      7          1           0       -4.970960    1.152122    1.146341
      8          1           0       -6.997248   -0.340396    1.203083
      9          1           0       -7.275257   -0.022380   -0.515777
     10          1           0       -7.428476    1.291185    0.663367
     11          6           0       -3.056252   -0.219804   -0.323355
     12          6           0       -2.228209   -1.453173   -0.685476
     13          6           0       -0.743530   -1.136003   -0.866927
     14          1           0       -2.935706    0.538007   -1.109858
     15          1           0       -2.658782    0.222544    0.600382
     16          1           0       -2.627817   -1.892747   -1.608354
     17          1           0       -2.351378   -2.208967    0.100794
     18          1           0       -0.323520   -0.718245    0.053763
     19          1           0       -0.601529   -0.400229   -1.665096
     20          1           0       -0.170301   -2.031810   -1.125380
     21          6           0        2.115355    2.656262   -0.009211
     22          6           0        1.542640    1.777904    0.916534
     23          6           0        2.007209    0.464213    1.030289
     24          6           0        3.050729    0.060479    0.198812
     25          6           0        3.641944    0.911950   -0.733255
     26          6           0        3.161335    2.221249   -0.829705
     27          1           0        1.748237    3.675062   -0.090856
     28          1           0        0.730190    2.112996    1.555036
     29          1           0        1.582011   -0.236656    1.738390
     30          1           0        4.450485    0.548990   -1.356102
     31          1           0        3.608019    2.901206   -1.549551
     32          7           0        3.551038   -1.327942    0.310079
     33          8           0        4.471519   -1.659213   -0.433971
     34          8           0        3.013223   -2.058626    1.139232
 ---------------------------------------------------------------------

 SCF Done:  E(RHF) =  -669.534616843     A.U. after   15 cycles
 E2 =    -0.2092427080D+01 EUMP2 =    -0.67162704392305D+03

 The electronic state is 1-A.
 Alpha  occ. eigenvalues --  -20.60746 -20.60738 -15.85798 -11.31156 -11.27747
 Alpha  occ. eigenvalues --  -11.27742 -11.27489 -11.26752 -11.26742 -11.21844
 Alpha  occ. eigenvalues --  -11.21664 -11.21610 -11.21551 -11.21265 -11.21011
 Alpha  occ. eigenvalues --   -1.59818  -1.39372  -1.19347  -1.08735  -1.08609
 Alpha  occ. eigenvalues --   -1.04766  -1.03661  -0.96116  -0.95572  -0.87136
 Alpha  occ. eigenvalues --   -0.86150  -0.82411  -0.79736  -0.78437  -0.77454
 Alpha  occ. eigenvalues --   -0.72019  -0.71139  -0.70471  -0.65248  -0.65003
 Alpha  occ. eigenvalues --   -0.64763  -0.62133  -0.61056  -0.59475  -0.57734
 Alpha  occ. eigenvalues --   -0.55459  -0.55238  -0.53278  -0.52857  -0.52762
 Alpha  occ. eigenvalues --   -0.52360  -0.50053  -0.48777  -0.48772  -0.48034
 Alpha  occ. eigenvalues --   -0.46777  -0.45977  -0.45902  -0.44775  -0.43924
 Alpha  occ. eigenvalues --   -0.37313  -0.36273
 Alpha virt. eigenvalues --    0.05063   0.11264   0.16512   0.21029   0.22755
 Alpha virt. eigenvalues --    0.24143   0.26101   0.26973   0.27485   0.27935
 Alpha virt. eigenvalues --    0.28696   0.30807   0.31422   0.31755   0.31819

 Mulliken charges:
               1
     1  C   -0.298327
     2  C   -0.299355
     3  C   -0.475753
     4  H    0.151006
     5  H    0.150743
     6  H    0.150996
     7  H    0.149801
     8  H    0.155986
     9  H    0.156026
    10  H    0.159993
    11  C   -0.296580
    12  C   -0.300534
    13  C   -0.476810
    14  H    0.148164
    15  H    0.143283
    16  H    0.152869
    17  H    0.154087
    18  H    0.151119
    19  H    0.153193
    20  H    0.167136
    21  C   -0.170564
    22  C   -0.216723
    23  C   -0.170737
    24  C    0.161124
    25  C   -0.171120
    26  C   -0.218693
    27  H    0.225580
    28  H    0.223336
    29  H    0.275264
    30  H    0.275561
    31  H    0.223254
    32  N    0.488140
    33  O   -0.460701
    34  O   -0.460766
 Sum of Mulliken charges =  -0.00000

 Dipole moment (field-independent basis, Debye):
    X=             -1.7410    Y=              4.8437    Z=             -0.4279  Tot=              5.1648
 Quadrupole moment (field-independent basis, Debye-Ang):
   XX=           -104.9421   YY=            -94.4925   ZZ=            -91.7836
   XY=             15.6871   XZ=             -4.0099   YZ=              0.0218

 Normal termination of Gaussian 16 at Thu May  6 01:06:11 2021.
