 Gaussian 16, Revision A.03,
 Gaussian 16:  EM64L-G16RevA.03 25-Dec-2016

 -------------
 #p 6-31g* mp2
 -------------

 ------------------------------------------------------
 Input file generated by CHIRIPA (05-May-2021 14:51:08)
 ------------------------------------------------------
 Symbolic Z-matrix:
 Charge =  0 Multiplicity = 1

                         Standard orientation:
 ---------------------------------------------------------------------
 Center     Atomic      Atomic             Coordinates (Angstroms)
 Number     Number       Type             X           Y           Z
 ---------------------------------------------------------------------
      1          6           0        2.215427   -0.288476    1.036308
      2          6           0        1.039791   -1.235876    1.277758
      3          6           0        0.295823   -0.935079    2.579229
      4          1           0        2.912428   -0.356107    1.882807
      5          1           0        1.845731    0.746113    1.017712
      6          1           0        1.411392   -2.268469    1.294514
      7          1           0        0.345603   -1.166124    0.430496
      8          1           0       -0.102179    0.084765    2.568589
      9          1           0        0.969666   -1.023844    3.437517
     10          1           0       -0.540679   -1.624135    2.731955
     11          6           0        2.969089   -0.576553   -0.260893
     12          6           0        4.144725    0.370848   -0.502343
     13          6           0        4.888692    0.070051   -1.803814
     14          1           0        3.338785   -1.611142   -0.242297
     15          1           0        2.272087   -0.508922   -1.107392
     16          1           0        4.838913    0.301095    0.344919
     17          1           0        3.773124    1.403441   -0.519099
     18          1           0        4.214850    0.158815   -2.662102
     19          1           0        5.286695   -0.949793   -1.793174
     20          1           0        5.725195    0.759106   -1.956540
     21          6           0       -2.719798    1.183960   -0.337762
     22          6           0       -1.492732    1.978822    0.109994
     23          6           0       -1.763640    3.480603    0.205167
     24          1           0       -3.056195    1.559883   -1.313706
     25          1           0       -3.542716    1.365067    0.367503
     26          1           0       -0.671950    1.795182   -0.595135
     27          1           0       -1.159103    1.600836    1.084897
     28          1           0       -2.564847    3.682772    0.923355
     29          1           0       -2.074927    3.878223   -0.766223
     30          1           0       -0.873150    4.029589    0.526885
     31          6           0       -2.464717   -0.318932   -0.437652
     32          6           0       -3.691784   -1.113793   -0.885410
     33          6           0       -3.420875   -2.615574   -0.980581
     34          1           0       -1.641799   -0.500038   -1.142918
     35          1           0       -2.128322   -0.694853    0.538291
     36          1           0       -4.025413   -0.735807   -1.860312
     37          1           0       -4.512566   -0.930153   -0.180279
     38          1           0       -3.109589   -3.013194   -0.009192
     39          1           0       -2.619668   -2.817743   -1.698771
     40          1           0       -4.311365   -3.164560   -1.302301
 ---------------------------------------------------------------------

 SCF Done:  E(RHF) =  -470.732283340     A.U. after   11 cycles
 E2 =    -0.1585103719D+01 EUMP2 =    -0.47231738705893D+03

 The electronic state is 1-A.
 Alpha  occ. eigenvalues --  -11.21675 -11.21633 -11.21578 -11.21453 -11.21451
 Alpha  occ. eigenvalues --  -11.21383 -11.21354 -11.21276 -11.21135 -11.21098
 Alpha  occ. eigenvalues --  -11.21059 -11.21051  -1.08517  -1.08352  -1.03588
 Alpha  occ. eigenvalues --   -1.03486  -0.96042  -0.95943  -0.87050  -0.86967
 Alpha  occ. eigenvalues --   -0.79706  -0.79511  -0.78373  -0.78145  -0.65187
 Alpha  occ. eigenvalues --   -0.64960  -0.61056  -0.60847  -0.59450  -0.59277
 Alpha  occ. eigenvalues --   -0.57710  -0.57498  -0.55331  -0.55244  -0.52721
 Alpha  occ. eigenvalues --   -0.52655  -0.52467  -0.52369  -0.50013  -0.49883
 Alpha  occ. eigenvalues --   -0.48040  -0.47904  -0.46773  -0.46497  -0.46075
 Alpha  occ. eigenvalues --   -0.45768  -0.45548  -0.45326  -0.43835  -0.43737
 Alpha virt. eigenvalues --    0.20462   0.22883   0.23574   0.23998   0.24957
 Alpha virt. eigenvalues --    0.26329   0.27113   0.28013   0.28929   0.29309
 Alpha virt. eigenvalues --    0.30410   0.31465   0.31647   0.31854   0.32136

 Mulliken charges:
               1
     1  C   -0.299486
     2  C   -0.306250
     3  C   -0.480873
     4  H    0.148919
     5  H    0.151332
     6  H    0.151150
     7  H    0.161235
     8  H    0.158441
     9  H    0.155573
    10  H    0.158651
    11  C   -0.298184
    12  C   -0.299585
    13  C   -0.475632
    14  H    0.149485
    15  H    0.148734
    16  H    0.151972
    17  H    0.151766
    18  H    0.154874
    19  H    0.155183
    20  H    0.160169
    21  C   -0.297413
    22  C   -0.307786
    23  C   -0.475283
    24  H    0.149693
    25  H    0.149692
    26  H    0.151799
    27  H    0.158762
    28  H    0.155525
    29  H    0.155450
    30  H    0.160178
    31  C   -0.305996
    32  C   -0.298988
    33  C   -0.475960
    34  H    0.149521
    35  H    0.158531
    36  H    0.151860
    37  H    0.151998
    38  H    0.155141
    39  H    0.155285
    40  H    0.160518
 Sum of Mulliken charges =  -0.00000

 Dipole moment (field-independent basis, Debye):
    X=             -0.0532    Y=              0.0089    Z=             -0.0061  Tot=              0.0543
 Quadrupole moment (field-independent basis, Debye-Ang):
   XX=            -84.7533   YY=            -85.6211   ZZ=            -84.4883
   XY=             -0.2512   XZ=              0.5852   YZ=             -0.5972

 Normal termination of Gaussian 16 at Wed May  5 21:19:44 2021.
