 Gaussian 16, Revision A.03,
 Gaussian 16:  EM64L-G16RevA.03 25-Dec-2016

 -------------
 #p 6-31g* mp2
 -------------

 ------------------------------------------------------
 Input file generated by CHIRIPA (05-May-2021 14:57:22)
 ------------------------------------------------------
 Symbolic Z-matrix:
 Charge =  0 Multiplicity = 1

                         Standard orientation:
 ---------------------------------------------------------------------
 Center     Atomic      Atomic             Coordinates (Angstroms)
 Number     Number       Type             X           Y           Z
 ---------------------------------------------------------------------
      1          6           0       -1.168848   -0.796515    1.692134
      2          6           0       -1.560619    0.540202    1.564760
      3          6           0       -2.652019    0.886870    0.762752
      4          6           0       -3.332057   -0.133295    0.099351
      5          6           0       -2.966061   -1.474165    0.206150
      6          6           0       -1.871580   -1.797667    1.013619
      7          1           0       -0.319825   -1.056818    2.317274
      8          1           0       -1.016728    1.319808    2.090536
      9          1           0       -2.976789    1.913712    0.646401
     10          1           0       -3.527840   -2.229200   -0.330269
     11          1           0       -1.569576   -2.836618    1.110680
     12          7           0       -4.489104    0.221445   -0.752589
     13          8           0       -5.071670   -0.695994   -1.326662
     14          8           0       -4.791522    1.410211   -0.830134
     15          6           0        2.214932    2.529060   -0.028380
     16          6           0        3.596218    2.315865    0.027488
     17          6           0        4.120678    1.025115   -0.088501
     18          6           0        3.230925   -0.034201   -0.260197
     19          6           0        1.849883    0.145964   -0.319796
     20          6           0        1.347702    1.445341   -0.201538
     21          1           0        1.816174    3.535097    0.062605
     22          1           0        4.272098    3.155608    0.161889
     23          1           0        5.185757    0.831612   -0.048724
     24          1           0        1.201188   -0.711034   -0.454580
     25          1           0        0.274532    1.607930   -0.245290
     26          7           0        3.774355   -1.405226   -0.384191
     27          8           0        2.969325   -2.321682   -0.534776
     28          8           0        4.995032   -1.537419   -0.328443
 ---------------------------------------------------------------------

 SCF Done:  E(RHF) =  -868.337221982     A.U. after   16 cycles
 E2 =    -0.2602556340D+01 EUMP2 =    -0.87093977832229D+03

 The electronic state is 1-A.
 Alpha  occ. eigenvalues --  -20.61337 -20.61323 -20.61296 -20.61271 -15.86391
 Alpha  occ. eigenvalues --  -15.86336 -11.31910 -11.31670 -11.28526 -11.28407
 Alpha  occ. eigenvalues --  -11.28210 -11.28176 -11.28159 -11.27945 -11.27547
 Alpha  occ. eigenvalues --  -11.27415 -11.27230 -11.27113  -1.60406  -1.60361
 Alpha  occ. eigenvalues --   -1.39955  -1.39916  -1.20106  -1.19827  -1.09451
 Alpha  occ. eigenvalues --   -1.09233  -1.05538  -1.05191  -0.96254  -0.96069
 Alpha  occ. eigenvalues --   -0.86909  -0.86590  -0.83078  -0.82891  -0.78145
 Alpha  occ. eigenvalues --   -0.77923  -0.72600  -0.72552  -0.71735  -0.71689
 Alpha  occ. eigenvalues --   -0.71143  -0.70914  -0.65722  -0.65564  -0.65467
 Alpha  occ. eigenvalues --   -0.65130  -0.62858  -0.62537  -0.55921  -0.55750
 Alpha  occ. eigenvalues --   -0.53963  -0.53588  -0.53497  -0.53150  -0.49372
 Alpha  occ. eigenvalues --   -0.49350  -0.49313  -0.49301  -0.45328  -0.45327
 Alpha  occ. eigenvalues --   -0.38212  -0.37846  -0.37207  -0.36544
 Alpha virt. eigenvalues --    0.04230   0.04678   0.10165   0.11042   0.15793
 Alpha virt. eigenvalues --    0.16091   0.20474   0.21499   0.26306   0.27293
 Alpha virt. eigenvalues --    0.27650   0.28085   0.30373   0.30945   0.31962

 Mulliken charges:
               1
     1  C   -0.175224
     2  C   -0.226838
     3  C   -0.177827
     4  C    0.160090
     5  C   -0.170078
     6  C   -0.220480
     7  H    0.233875
     8  H    0.225558
     9  H    0.275374
    10  H    0.279820
    11  H    0.232979
    12  N    0.488081
    13  O   -0.456743
    14  O   -0.460410
    15  C   -0.173663
    16  C   -0.218034
    17  C   -0.171405
    18  C    0.158585
    19  C   -0.178526
    20  C   -0.224217
    21  H    0.225905
    22  H    0.224821
    23  H    0.276491
    24  H    0.276032
    25  H    0.229056
    26  N    0.488089
    27  O   -0.462907
    28  O   -0.458404
 Sum of Mulliken charges =  -0.00000

 Dipole moment (field-independent basis, Debye):
    X=              2.0137    Y=              3.3932    Z=              3.4745  Tot=              5.2574
 Quadrupole moment (field-independent basis, Debye-Ang):
   XX=           -140.1587   YY=            -99.7842   ZZ=           -105.5038
   XY=             22.5608   XZ=             -7.0888   YZ=             -0.5524

 Normal termination of Gaussian 16 at Fri May  7 07:55:54 2021.
