 Gaussian 16, Revision A.03,
 Gaussian 16:  EM64L-G16RevA.03 25-Dec-2016

 -------------
 #p 6-31g* mp2
 -------------

 ------------------------------------------------------
 Input file generated by CHIRIPA (05-May-2021 14:55:24)
 ------------------------------------------------------
 Symbolic Z-matrix:
 Charge =  0 Multiplicity = 1

                         Standard orientation:
 ---------------------------------------------------------------------
 Center     Atomic      Atomic             Coordinates (Angstroms)
 Number     Number       Type             X           Y           Z
 ---------------------------------------------------------------------
      1          6           0        1.745097    0.731127   -0.489756
      2          6           0        2.052418   -0.633450   -0.487722
      3          6           0        3.360321   -1.066333   -0.249918
      4          6           0        4.340622   -0.103035   -0.016775
      5          6           0        4.065841    1.263628   -0.012344
      6          6           0        2.751016    1.673649   -0.252479
      7          1           0        0.726398    1.058521   -0.675393
      8          1           0        1.273236   -1.367667   -0.671693
      9          1           0        3.625955   -2.116478   -0.242646
     10          1           0        4.863932    1.971908    0.174225
     11          1           0        2.515251    2.734054   -0.253461
     12          7           0        5.728905   -0.549207    0.236211
     13          8           0        6.574515    0.319404    0.438927
     14          8           0        5.945143   -1.759080    0.226995
     15          6           0       -4.578139    0.038680   -0.263129
     16          6           0       -3.487653    0.702466    0.578425
     17          6           0       -2.122995    0.696510   -0.111117
     18          1           0       -4.282386   -0.995832   -0.485075
     19          1           0       -4.652229    0.556724   -1.229327
     20          1           0       -3.416590    0.184195    1.543289
     21          1           0       -3.786124    1.735459    0.798556
     22          1           0       -2.171212    1.230987   -1.065376
     23          1           0       -1.799579   -0.329091   -0.316411
     24          1           0       -1.358279    1.175889    0.507968
     25          6           0       -5.948112    0.036840    0.412812
     26          6           0       -7.038598   -0.626946   -0.428742
     27          6           0       -8.403255   -0.620990    0.260801
     28          1           0       -5.874021   -0.481203    1.379010
     29          1           0       -6.243865    1.071352    0.634758
     30          1           0       -6.740126   -1.659938   -0.648872
     31          1           0       -7.109660   -0.108675   -1.393606
     32          1           0       -8.726672    0.404610    0.466094
     33          1           0       -8.355038   -1.155466    1.215059
     34          1           0       -9.167970   -1.100369   -0.358285
 ---------------------------------------------------------------------

 SCF Done:  E(RHF) =  -669.535431547     A.U. after   15 cycles
 E2 =    -0.2091043289D+01 EUMP2 =    -0.67162647483633D+03

 The electronic state is 1-A.
 Alpha  occ. eigenvalues --  -20.60691 -20.60686 -15.85745 -11.31086 -11.27661
 Alpha  occ. eigenvalues --  -11.27657 -11.27303 -11.26654 -11.26642 -11.22597
 Alpha  occ. eigenvalues --  -11.22468 -11.22176 -11.22120 -11.21990 -11.21498
 Alpha  occ. eigenvalues --   -1.59768  -1.39322  -1.19254  -1.09185  -1.08644
 Alpha  occ. eigenvalues --   -1.04659  -1.04338  -0.96830  -0.95482  -0.87864
 Alpha  occ. eigenvalues --   -0.86051  -0.82326  -0.80424  -0.78945  -0.77381
 Alpha  occ. eigenvalues --   -0.71963  -0.71092  -0.70353  -0.65808  -0.64901
 Alpha  occ. eigenvalues --   -0.64666  -0.62015  -0.61724  -0.60250  -0.58395
 Alpha  occ. eigenvalues --   -0.56105  -0.55250  -0.53403  -0.53248  -0.52968
 Alpha  occ. eigenvalues --   -0.52747  -0.50758  -0.48731  -0.48719  -0.48712
 Alpha  occ. eigenvalues --   -0.47418  -0.46503  -0.46389  -0.44733  -0.44565
 Alpha  occ. eigenvalues --   -0.37214  -0.36272
 Alpha virt. eigenvalues --    0.05144   0.11382   0.16592   0.20418   0.22266
 Alpha virt. eigenvalues --    0.23754   0.25549   0.26007   0.26765   0.27235
 Alpha virt. eigenvalues --    0.28998   0.29603   0.30622   0.31345   0.31962

 Mulliken charges:
               1
     1  C   -0.177528
     2  C   -0.222143
     3  C   -0.170959
     4  C    0.158108
     5  C   -0.170686
     6  C   -0.220913
     7  H    0.240657
     8  H    0.223014
     9  H    0.275116
    10  H    0.275098
    11  H    0.223133
    12  N    0.488064
    13  O   -0.460766
    14  O   -0.460799
    15  C   -0.299320
    16  C   -0.299589
    17  C   -0.484227
    18  H    0.149997
    19  H    0.150367
    20  H    0.155740
    21  H    0.155083
    22  H    0.156179
    23  H    0.153555
    24  H    0.158029
    25  C   -0.299071
    26  C   -0.300128
    27  C   -0.476113
    28  H    0.150878
    29  H    0.150779
    30  H    0.152465
    31  H    0.152441
    32  H    0.155824
    33  H    0.155981
    34  H    0.161732
 Sum of Mulliken charges =  -0.00000

 Dipole moment (field-independent basis, Debye):
    X=             -5.2009    Y=              1.5804    Z=             -0.8637  Tot=              5.5039
 Quadrupole moment (field-independent basis, Debye-Ang):
   XX=           -137.6399   YY=            -89.7789   ZZ=            -95.5168
   XY=              8.6754   XZ=             -3.2808   YZ=              0.2368

 Normal termination of Gaussian 16 at Thu May  6 19:20:57 2021.
