 Gaussian 16, Revision A.03,
 Gaussian 16:  EM64L-G16RevA.03 25-Dec-2016

 -------------
 #p 6-31g* mp2
 -------------

 ------------------------------------------------------
 Input file generated by CHIRIPA (05-May-2021 14:55:20)
 ------------------------------------------------------
 Symbolic Z-matrix:
 Charge =  0 Multiplicity = 1

                         Standard orientation:
 ---------------------------------------------------------------------
 Center     Atomic      Atomic             Coordinates (Angstroms)
 Number     Number       Type             X           Y           Z
 ---------------------------------------------------------------------
      1          6           0       -4.797715    1.667710    0.857641
      2          6           0       -5.252549    0.620396    0.049693
      3          6           0       -4.345799   -0.255621   -0.554416
      4          6           0       -2.985110   -0.054155   -0.328082
      5          6           0       -2.500917    0.979930    0.471616
      6          6           0       -3.425769    1.843824    1.065657
      7          1           0       -5.509131    2.343512    1.323016
      8          1           0       -6.317445    0.481218   -0.113621
      9          1           0       -4.670536   -1.074693   -1.184562
     10          1           0       -1.433320    1.093330    0.615818
     11          1           0       -3.069669    2.656314    1.692632
     12          7           0       -2.015593   -0.975137   -0.962295
     13          8           0       -0.821937   -0.776252   -0.747194
     14          8           0       -2.467698   -1.878449   -1.662485
     15          6           0        3.820283   -0.586157    0.859421
     16          6           0        2.439208   -1.213851    0.668058
     17          6           0        2.042827   -2.133895    1.823131
     18          1           0        4.567195   -1.384589    0.967010
     19          1           0        3.830593   -0.019574    1.800840
     20          1           0        2.431083   -1.777939   -0.273406
     21          1           0        1.695525   -0.413832    0.560720
     22          1           0        2.022972   -1.580126    2.767349
     23          1           0        2.762710   -2.951984    1.928484
     24          1           0        1.052218   -2.571837    1.665780
     25          6           0        4.230656    0.336213   -0.287119
     26          6           0        5.611731    0.963906   -0.095755
     27          6           0        6.008113    1.883950   -1.250829
     28          1           0        4.220347   -0.230371   -1.228539
     29          1           0        3.483745    1.134644   -0.394708
     30          1           0        6.355415    0.163888    0.011582
     31          1           0        5.619856    1.527995    0.845708
     32          1           0        5.288229    2.702040   -1.356181
     33          1           0        6.027967    1.330182   -2.195047
     34          1           0        6.998722    2.321893   -1.093478
 ---------------------------------------------------------------------

 SCF Done:  E(RHF) =  -669.535782296     A.U. after   15 cycles
 E2 =    -0.2091171991D+01 EUMP2 =    -0.67162695428749D+03

 The electronic state is 1-A.
 Alpha  occ. eigenvalues --  -20.60900 -20.60894 -15.85936 -11.31279 -11.27851
 Alpha  occ. eigenvalues --  -11.27841 -11.27585 -11.26858 -11.26848 -11.21076
 Alpha  occ. eigenvalues --  -11.20678 -11.20640 -11.20529 -11.20318 -11.20066
 Alpha  occ. eigenvalues --   -1.59965  -1.39520  -1.19450  -1.08850  -1.07636
 Alpha  occ. eigenvalues --   -1.04850  -1.02712  -0.95690  -0.95213  -0.86250
 Alpha  occ. eigenvalues --   -0.86240  -0.82527  -0.78790  -0.77614  -0.77341
 Alpha  occ. eigenvalues --   -0.72155  -0.71281  -0.70559  -0.65107  -0.64854
 Alpha  occ. eigenvalues --   -0.64283  -0.62199  -0.60124  -0.58579  -0.56769
 Alpha  occ. eigenvalues --   -0.55352  -0.54537  -0.53180  -0.52943  -0.51907
 Alpha  occ. eigenvalues --   -0.51630  -0.49202  -0.48919  -0.48915  -0.47085
 Alpha  occ. eigenvalues --   -0.45833  -0.44991  -0.44896  -0.44806  -0.42979
 Alpha  occ. eigenvalues --   -0.37429  -0.36452
 Alpha virt. eigenvalues --    0.04951   0.11202   0.16438   0.21115   0.23486
 Alpha virt. eigenvalues --    0.24812   0.26571   0.27484   0.27779   0.28729
 Alpha virt. eigenvalues --    0.28835   0.30570   0.31706   0.32287   0.32784

 Mulliken charges:
               1
     1  C   -0.170619
     2  C   -0.218540
     3  C   -0.170828
     4  C    0.157789
     5  C   -0.170510
     6  C   -0.218621
     7  H    0.225947
     8  H    0.223779
     9  H    0.275834
    10  H    0.275501
    11  H    0.223763
    12  N    0.493619
    13  O   -0.464778
    14  O   -0.459576
    15  C   -0.299001
    16  C   -0.296915
    17  C   -0.477058
    18  H    0.146761
    19  H    0.143492
    20  H    0.159377
    21  H    0.160047
    22  H    0.146629
    23  H    0.151108
    24  H    0.165943
    25  C   -0.296689
    26  C   -0.298882
    27  C   -0.475049
    28  H    0.151874
    29  H    0.147727
    30  H    0.151216
    31  H    0.149215
    32  H    0.153599
    33  H    0.155773
    34  H    0.158073
 Sum of Mulliken charges =  -0.00000

 Dipole moment (field-independent basis, Debye):
    X=             -3.6807    Y=              3.1921    Z=              2.0974  Tot=              5.3044
 Quadrupole moment (field-independent basis, Debye-Ang):
   XX=            -72.6891   YY=            -94.3262   ZZ=            -96.7481
   XY=             -8.3368   XZ=             -4.1463   YZ=              1.3119

 Normal termination of Gaussian 16 at Thu May  6 14:06:43 2021.
