 Gaussian 16, Revision A.03,
 Gaussian 16:  EM64L-G16RevA.03 25-Dec-2016

 -------------
 #p 6-31g* mp2
 -------------

 ------------------------------------------------------
 Input file generated by CHIRIPA (05-May-2021 14:55:25)
 ------------------------------------------------------
 Symbolic Z-matrix:
 Charge =  0 Multiplicity = 1

                         Standard orientation:
 ---------------------------------------------------------------------
 Center     Atomic      Atomic             Coordinates (Angstroms)
 Number     Number       Type             X           Y           Z
 ---------------------------------------------------------------------
      1          6           0        5.033944    0.368144    0.552834
      2          6           0        4.053569    0.383936    1.550400
      3          6           0        2.758003   -0.066460    1.279847
      4          6           0        2.476223   -0.528061   -0.004993
      5          6           0        3.431245   -0.556297   -1.020092
      6          6           0        4.720206   -0.101095   -0.726972
      7          1           0        6.037805    0.719889    0.771772
      8          1           0        4.294373    0.747807    2.545215
      9          1           0        1.979839   -0.065265    2.033423
     10          1           0        3.161178   -0.924784   -2.002284
     11          1           0        5.479566   -0.114516   -1.503655
     12          7           0        1.108162   -1.007419   -0.303362
     13          8           0        0.885260   -1.409226   -1.443319
     14          8           0        0.284682   -0.972257    0.608384
     15          6           0       -2.886583    0.807496   -0.506627
     16          6           0       -2.091131    1.975072    0.078189
     17          6           0       -0.951044    2.429298   -0.833771
     18          1           0       -2.206179   -0.034755   -0.692662
     19          1           0       -3.292967    1.102767   -1.483899
     20          1           0       -1.687525    1.678160    1.054693
     21          1           0       -2.773542    2.814575    0.263032
     22          1           0       -1.339830    2.751718   -1.805106
     23          1           0       -0.247643    1.608846   -1.008946
     24          1           0       -0.395627    3.264793   -0.396368
     25          6           0       -4.029760    0.342090    0.393523
     26          6           0       -4.825211   -0.825485   -0.191293
     27          6           0       -5.965300   -1.279712    0.720667
     28          1           0       -3.623375    0.046820    1.370796
     29          1           0       -4.710163    1.184342    0.579558
     30          1           0       -4.142801   -1.664989   -0.376136
     31          1           0       -5.228817   -0.528573   -1.167798
     32          1           0       -6.668700   -0.459260    0.895842
     33          1           0       -5.576513   -1.602131    1.692002
     34          1           0       -6.520717   -2.115206    0.283264
 ---------------------------------------------------------------------

 SCF Done:  E(RHF) =  -669.536582577     A.U. after   15 cycles
 E2 =    -0.2092557913D+01 EUMP2 =    -0.67162914048935D+03

 The electronic state is 1-A.
 Alpha  occ. eigenvalues --  -20.61107 -20.61102 -15.86100 -11.31357 -11.27911
 Alpha  occ. eigenvalues --  -11.27907 -11.27637 -11.26899 -11.26889 -11.20485
 Alpha  occ. eigenvalues --  -11.20478 -11.20249 -11.20174 -11.20162 -11.19858
 Alpha  occ. eigenvalues --   -1.60155  -1.39709  -1.19517  -1.08938  -1.07198
 Alpha  occ. eigenvalues --   -1.04901  -1.02469  -0.95791  -0.94930  -0.86306
 Alpha  occ. eigenvalues --   -0.85959  -0.82626  -0.78532  -0.77690  -0.76990
 Alpha  occ. eigenvalues --   -0.72324  -0.71492  -0.70627  -0.65175  -0.64906
 Alpha  occ. eigenvalues --   -0.63785  -0.62249  -0.59853  -0.58309  -0.56548
 Alpha  occ. eigenvalues --   -0.55412  -0.54211  -0.53234  -0.52993  -0.51696
 Alpha  occ. eigenvalues --   -0.51376  -0.49162  -0.49088  -0.48830  -0.46858
 Alpha  occ. eigenvalues --   -0.45528  -0.45134  -0.44550  -0.44340  -0.42669
 Alpha  occ. eigenvalues --   -0.37490  -0.36495
 Alpha virt. eigenvalues --    0.04798   0.11159   0.16277   0.21259   0.24076
 Alpha virt. eigenvalues --    0.25132   0.27196   0.27627   0.28367   0.28552
 Alpha virt. eigenvalues --    0.29043   0.30827   0.32142   0.32265   0.32618

 Mulliken charges:
               1
     1  C   -0.170185
     2  C   -0.218639
     3  C   -0.170050
     4  C    0.157078
     5  C   -0.170477
     6  C   -0.218620
     7  H    0.226297
     8  H    0.224088
     9  H    0.275808
    10  H    0.276175
    11  H    0.224119
    12  N    0.488383
    13  O   -0.458251
    14  O   -0.459424
    15  C   -0.306055
    16  C   -0.296507
    17  C   -0.474885
    18  H    0.176711
    19  H    0.142323
    20  H    0.154204
    21  H    0.145001
    22  H    0.153610
    23  H    0.153869
    24  H    0.152397
    25  C   -0.297274
    26  C   -0.300175
    27  C   -0.475088
    28  H    0.151326
    29  H    0.142878
    30  H    0.158883
    31  H    0.148729
    32  H    0.151840
    33  H    0.154446
    34  H    0.157468
 Sum of Mulliken charges =  -0.00000

 Dipole moment (field-independent basis, Debye):
    X=              5.1432    Y=              1.4590    Z=              1.0517  Tot=              5.4486
 Quadrupole moment (field-independent basis, Debye-Ang):
   XX=            -72.3976   YY=            -97.5753   ZZ=            -90.5376
   XY=              1.0185   XZ=              1.9864   YZ=              0.6481

 Normal termination of Gaussian 16 at Thu May  6 03:12:35 2021.
