 Gaussian 16, Revision A.03,
 Gaussian 16:  EM64L-G16RevA.03 25-Dec-2016

 -------------
 #p 6-31g* mp2
 -------------

 ------------------------------------------------------
 Input file generated by CHIRIPA (05-May-2021 14:57:21)
 ------------------------------------------------------
 Symbolic Z-matrix:
 Charge =  0 Multiplicity = 1

                         Standard orientation:
 ---------------------------------------------------------------------
 Center     Atomic      Atomic             Coordinates (Angstroms)
 Number     Number       Type             X           Y           Z
 ---------------------------------------------------------------------
      1          6           0       -4.141688    2.447864    0.539917
      2          6           0       -5.243555    1.586575    0.515550
      3          6           0       -5.090349    0.248064    0.142102
      4          6           0       -3.815225   -0.197627   -0.202439
      5          6           0       -2.697964    0.635926   -0.188009
      6          6           0       -2.874643    1.970631    0.188679
      7          1           0       -4.269819    3.486173    0.831279
      8          1           0       -6.228736    1.954445    0.787826
      9          1           0       -5.926221   -0.440397    0.114549
     10          1           0       -1.728299    0.240184   -0.464696
     11          1           0       -2.017121    2.637246    0.206692
     12          7           0       -3.640608   -1.612634   -0.599507
     13          8           0       -2.506743   -1.980780   -0.898599
     14          8           0       -4.640915   -2.326779   -0.604118
     15          6           0        6.040389    0.672289   -0.883166
     16          6           0        4.840147    1.201594   -1.368734
     17          6           0        3.617308    0.816563   -0.811093
     18          6           0        3.631666   -0.104018    0.235623
     19          6           0        4.810777   -0.649211    0.741341
     20          6           0        6.021906   -0.249798    0.168468
     21          1           0        6.985772    0.976977   -1.322271
     22          1           0        4.851470    1.917874   -2.185349
     23          1           0        2.673367    1.210597   -1.167648
     24          1           0        4.767550   -1.361399    1.556410
     25          1           0        6.952483   -0.662513    0.547596
     26          7           0        2.343299   -0.519245    0.834035
     27          8           0        2.382914   -1.331828    1.755326
     28          8           0        1.318258   -0.024257    0.370448
 ---------------------------------------------------------------------

 SCF Done:  E(RHF) =  -868.338566082     A.U. after   16 cycles
 E2 =    -0.2598784492D+01 EUMP2 =    -0.87093735057361D+03

 The electronic state is 1-A.
 Alpha  occ. eigenvalues --  -20.61029 -20.60986 -20.59822 -20.59779 -15.86065
 Alpha  occ. eigenvalues --  -15.84856 -11.31364 -11.30208 -11.27952 -11.27902
 Alpha  occ. eigenvalues --  -11.27652 -11.26938 -11.26909 -11.26879 -11.26656
 Alpha  occ. eigenvalues --  -11.26641 -11.25909 -11.25794  -1.60062  -1.58882
 Alpha  occ. eigenvalues --   -1.39626  -1.38431  -1.19527  -1.18414  -1.08931
 Alpha  occ. eigenvalues --   -1.07833  -1.04926  -1.03807  -0.95780  -0.94652
 Alpha  occ. eigenvalues --   -0.86326  -0.85217  -0.82623  -0.81476  -0.77677
 Alpha  occ. eigenvalues --   -0.76499  -0.72299  -0.71371  -0.71078  -0.70641
 Alpha  occ. eigenvalues --   -0.70205  -0.69534  -0.65188  -0.64930  -0.64072
 Alpha  occ. eigenvalues --   -0.63826  -0.62279  -0.61125  -0.55426  -0.54368
 Alpha  occ. eigenvalues --   -0.53251  -0.53021  -0.52162  -0.51898  -0.49045
 Alpha  occ. eigenvalues --   -0.49008  -0.47853  -0.47816  -0.45041  -0.43838
 Alpha  occ. eigenvalues --   -0.37499  -0.36524  -0.36445  -0.35411
 Alpha virt. eigenvalues --    0.04868   0.06019   0.11131   0.12232   0.16368
 Alpha virt. eigenvalues --    0.17479   0.21222   0.22305   0.27155   0.27810
 Alpha virt. eigenvalues --    0.28393   0.29243   0.30842   0.31814   0.32329

 Mulliken charges:
               1
     1  C   -0.171210
     2  C   -0.219741
     3  C   -0.171365
     4  C    0.156308
     5  C   -0.172411
     6  C   -0.220615
     7  H    0.221574
     8  H    0.219635
     9  H    0.272854
    10  H    0.293818
    11  H    0.222514
    12  N    0.487504
    13  O   -0.455205
    14  O   -0.465566
    15  C   -0.170521
    16  C   -0.218285
    17  C   -0.170076
    18  C    0.158855
    19  C   -0.170213
    20  C   -0.218402
    21  H    0.226245
    22  H    0.223332
    23  H    0.271928
    24  H    0.276860
    25  H    0.224421
    26  N    0.493326
    27  O   -0.454781
    28  O   -0.470781
 Sum of Mulliken charges =  -0.00000

 Dipole moment (field-independent basis, Debye):
    X=              4.3569    Y=              6.3243    Z=             -0.6804  Tot=              7.7099
 Quadrupole moment (field-independent basis, Debye-Ang):
   XX=            -62.5998   YY=           -106.6441   ZZ=           -105.5726
   XY=            -14.8906   XZ=            -10.8595   YZ=             -3.2346

 Normal termination of Gaussian 16 at Thu May  6 06:30:28 2021.
