 Gaussian 16, Revision A.03,
 Gaussian 16:  EM64L-G16RevA.03 25-Dec-2016

 -------------
 #p 6-31g* mp2
 -------------

 ------------------------------------------------------
 Input file generated by CHIRIPA (05-May-2021 14:55:19)
 ------------------------------------------------------
 Symbolic Z-matrix:
 Charge =  0 Multiplicity = 1

                         Standard orientation:
 ---------------------------------------------------------------------
 Center     Atomic      Atomic             Coordinates (Angstroms)
 Number     Number       Type             X           Y           Z
 ---------------------------------------------------------------------
      1          6           0        4.746892   -1.853518   -0.174041
      2          6           0        3.980452   -1.652883    0.978711
      3          6           0        3.189733   -0.508039    1.115251
      4          6           0        3.189158    0.419765    0.074833
      5          6           0        3.941836    0.248309   -1.085929
      6          6           0        4.725176   -0.903956   -1.200871
      7          1           0        5.358276   -2.745743   -0.271719
      8          1           0        3.995370   -2.388635    1.777767
      9          1           0        2.586723   -0.327618    1.996866
     10          1           0        3.906439    0.999547   -1.865548
     11          1           0        5.319391   -1.057142   -2.097246
     12          7           0        2.355965    1.635688    0.207949
     13          8           0        2.372788    2.438053   -0.722945
     14          8           0        1.701860    1.763339    1.240659
     15          6           0       -4.901755    0.109362    0.061355
     16          6           0       -6.165582   -0.664829   -0.314617
     17          6           0       -7.445502    0.128851   -0.050663
     18          1           0       -4.951066    0.385709    1.123496
     19          1           0       -4.874304    1.050285   -0.505481
     20          1           0       -6.189942   -1.604654    0.251733
     21          1           0       -6.113168   -0.939532   -1.375940
     22          1           0       -7.447628    1.059388   -0.627464
     23          1           0       -7.524837    0.390486    1.009457
     24          1           0       -8.336784   -0.443323   -0.326512
     25          6           0       -3.614030   -0.670939   -0.196763
     26          6           0       -2.350202    0.103251    0.179209
     27          6           0       -1.070283   -0.690428   -0.084745
     28          1           0       -3.641481   -1.611863    0.370072
     29          1           0       -3.564719   -0.947286   -1.258906
     30          1           0       -2.402617    0.377955    1.240531
     31          1           0       -2.325843    1.043077   -0.387141
     32          1           0       -0.990948   -0.952063   -1.144866
     33          1           0       -1.068157   -1.620964    0.492056
     34          1           0       -0.179001   -0.118254    0.191104
 ---------------------------------------------------------------------

 SCF Done:  E(RHF) =  -669.536093375     A.U. after   15 cycles
 E2 =    -0.2091484610D+01 EUMP2 =    -0.67162757798554D+03

 The electronic state is 1-A.
 Alpha  occ. eigenvalues --  -20.60922 -20.60916 -15.85932 -11.31233 -11.27797
 Alpha  occ. eigenvalues --  -11.27793 -11.27534 -11.26802 -11.26792 -11.21265
 Alpha  occ. eigenvalues --  -11.20965 -11.20936 -11.20873 -11.20768 -11.20502
 Alpha  occ. eigenvalues --   -1.59976  -1.39534  -1.19402  -1.08814  -1.07963
 Alpha  occ. eigenvalues --   -1.04796  -1.03055  -0.95660  -0.95528  -0.86559
 Alpha  occ. eigenvalues --   -0.86198  -0.82493  -0.79125  -0.77763  -0.77550
 Alpha  occ. eigenvalues --   -0.72162  -0.71305  -0.70515  -0.65060  -0.64803
 Alpha  occ. eigenvalues --   -0.64598  -0.62146  -0.60458  -0.58888  -0.57114
 Alpha  occ. eigenvalues --   -0.55306  -0.54834  -0.53131  -0.52891  -0.52226
 Alpha  occ. eigenvalues --   -0.51955  -0.49491  -0.48929  -0.48917  -0.47448
 Alpha  occ. eigenvalues --   -0.46158  -0.45315  -0.45232  -0.44928  -0.43282
 Alpha  occ. eigenvalues --   -0.37376  -0.36389
 Alpha virt. eigenvalues --    0.04973   0.11223   0.16445   0.21367   0.23302
 Alpha virt. eigenvalues --    0.24693   0.27105   0.27266   0.27911   0.28020
 Alpha virt. eigenvalues --    0.28594   0.30632   0.31830   0.31869   0.32313

 Mulliken charges:
               1
     1  C   -0.170431
     2  C   -0.218405
     3  C   -0.170928
     4  C    0.157940
     5  C   -0.170600
     6  C   -0.218591
     7  H    0.225791
     8  H    0.223686
     9  H    0.275923
    10  H    0.275600
    11  H    0.223577
    12  N    0.488274
    13  O   -0.457898
    14  O   -0.458490
    15  C   -0.298115
    16  C   -0.299203
    17  C   -0.475495
    18  H    0.149901
    19  H    0.150822
    20  H    0.150518
    21  H    0.151058
    22  H    0.155558
    23  H    0.155086
    24  H    0.158859
    25  C   -0.298231
    26  C   -0.297317
    27  C   -0.481697
    28  H    0.146519
    29  H    0.147792
    30  H    0.154515
    31  H    0.157209
    32  H    0.151494
    33  H    0.148632
    34  H    0.166646
 Sum of Mulliken charges =  -0.00000

 Dipole moment (field-independent basis, Debye):
    X=              3.0912    Y=             -4.1715    Z=             -0.4523  Tot=              5.2117
 Quadrupole moment (field-independent basis, Debye-Ang):
   XX=            -77.5379   YY=            -98.6045   ZZ=            -90.0342
   XY=            -11.9804   XZ=             -2.9302   YZ=             -2.6197

 Normal termination of Gaussian 16 at Wed May  5 22:08:33 2021.
