 Gaussian 16, Revision A.03,
 Gaussian 16:  EM64L-G16RevA.03 25-Dec-2016

 -------------
 #p 6-31g* mp2
 -------------

 ------------------------------------------------------
 Input file generated by CHIRIPA (05-May-2021 14:55:22)
 ------------------------------------------------------
 Symbolic Z-matrix:
 Charge =  0 Multiplicity = 1

                         Standard orientation:
 ---------------------------------------------------------------------
 Center     Atomic      Atomic             Coordinates (Angstroms)
 Number     Number       Type             X           Y           Z
 ---------------------------------------------------------------------
      1          6           0       -2.333256    1.901161    0.391052
      2          6           0       -3.592376    2.152899   -0.163714
      3          6           0       -4.507395    1.112304   -0.349326
      4          6           0       -4.128525   -0.173675    0.032782
      5          6           0       -2.881541   -0.456354    0.588134
      6          6           0       -1.982475    0.599633    0.764547
      7          1           0       -1.628644    2.715498    0.531666
      8          1           0       -3.867514    3.162687   -0.454699
      9          1           0       -5.488789    1.279073   -0.776491
     10          1           0       -2.635902   -1.473453    0.868470
     11          1           0       -1.005321    0.401182    1.195628
     12          7           0       -5.088769   -1.283453   -0.158847
     13          8           0       -4.730812   -2.407543    0.186007
     14          8           0       -6.181185   -1.008193   -0.650272
     15          6           0        5.618771   -0.548592    0.001953
     16          6           0        7.040664   -0.019186   -0.187616
     17          6           0        8.103493   -1.104849   -0.015782
     18          1           0        5.530769   -0.994860    1.001976
     19          1           0        5.437249   -1.358040   -0.718628
     20          1           0        7.218980    0.789957    0.532180
     21          1           0        7.125238    0.426045   -1.187233
     22          1           0        7.953717   -1.909163   -0.743274
     23          1           0        8.047991   -1.543184    0.985908
     24          1           0        9.112508   -0.704570   -0.155512
     25          6           0        4.545105    0.524962   -0.166729
     26          6           0        3.123213   -0.004443    0.022842
     27          6           0        2.060385    1.081219   -0.148993
     28          1           0        4.726629    1.334411    0.553852
     29          1           0        4.633108    0.971230   -1.166751
     30          1           0        3.038640   -0.449674    1.022458
     31          1           0        2.944898   -0.813586   -0.696955
     32          1           0        2.115886    1.519554   -1.150683
     33          1           0        2.210160    1.885535    0.578499
     34          1           0        1.051368    0.680941   -0.009263
 ---------------------------------------------------------------------

 SCF Done:  E(RHF) =  -669.535508607     A.U. after   15 cycles
 E2 =    -0.2090904444D+01 EUMP2 =    -0.67162641305034D+03

 The electronic state is 1-A.
 Alpha  occ. eigenvalues --  -20.60749 -20.60744 -15.85803 -11.31168 -11.27746
 Alpha  occ. eigenvalues --  -11.27741 -11.27475 -11.26747 -11.26727 -11.22338
 Alpha  occ. eigenvalues --  -11.22048 -11.21975 -11.21959 -11.21814 -11.21370
 Alpha  occ. eigenvalues --   -1.59824  -1.39378  -1.19344  -1.08975  -1.08734
 Alpha  occ. eigenvalues --   -1.04750  -1.04110  -0.96577  -0.95568  -0.87603
 Alpha  occ. eigenvalues --   -0.86143  -0.82403  -0.80180  -0.78755  -0.77454
 Alpha  occ. eigenvalues --   -0.72021  -0.71148  -0.70440  -0.65599  -0.64995
 Alpha  occ. eigenvalues --   -0.64789  -0.62138  -0.61498  -0.59951  -0.58171
 Alpha  occ. eigenvalues --   -0.55850  -0.55237  -0.53428  -0.53064  -0.53024
 Alpha  occ. eigenvalues --   -0.52671  -0.50504  -0.48783  -0.48776  -0.48485
 Alpha  occ. eigenvalues --   -0.47195  -0.46307  -0.46207  -0.44784  -0.44357
 Alpha  occ. eigenvalues --   -0.37311  -0.36346
 Alpha virt. eigenvalues --    0.05088   0.11179   0.16559   0.20456   0.22494
 Alpha virt. eigenvalues --    0.23810   0.26125   0.26272   0.26912   0.27956
 Alpha virt. eigenvalues --    0.28720   0.30063   0.30894   0.31583   0.31901

 Mulliken charges:
               1
     1  C   -0.171101
     2  C   -0.218773
     3  C   -0.170732
     4  C    0.158456
     5  C   -0.171665
     6  C   -0.220657
     7  H    0.227020
     8  H    0.223432
     9  H    0.275597
    10  H    0.275681
    11  H    0.226878
    12  N    0.488089
    13  O   -0.460466
    14  O   -0.460499
    15  C   -0.298831
    16  C   -0.300038
    17  C   -0.476023
    18  H    0.150140
    19  H    0.150959
    20  H    0.151991
    21  H    0.152513
    22  H    0.156035
    23  H    0.155610
    24  H    0.161263
    25  C   -0.298815
    26  C   -0.299485
    27  C   -0.482267
    28  H    0.149536
    29  H    0.150984
    30  H    0.151340
    31  H    0.155418
    32  H    0.159671
    33  H    0.153324
    34  H    0.155416
 Sum of Mulliken charges =  -0.00000

 Dipole moment (field-independent basis, Debye):
    X=              3.5338    Y=              3.9104    Z=              0.6349  Tot=              5.3087
 Quadrupole moment (field-independent basis, Debye-Ang):
   XX=           -120.9476   YY=            -94.8222   ZZ=            -93.7320
   XY=            -18.8455   XZ=             -1.3445   YZ=             -1.1701

 Normal termination of Gaussian 16 at Wed May  5 22:18:17 2021.
