 Gaussian 16, Revision A.03,
 Gaussian 16:  EM64L-G16RevA.03 25-Dec-2016

 -------------
 #p 6-31g* mp2
 -------------

 ------------------------------------------------------
 Input file generated by CHIRIPA (05-May-2021 14:55:25)
 ------------------------------------------------------
 Symbolic Z-matrix:
 Charge =  0 Multiplicity = 1

                         Standard orientation:
 ---------------------------------------------------------------------
 Center     Atomic      Atomic             Coordinates (Angstroms)
 Number     Number       Type             X           Y           Z
 ---------------------------------------------------------------------
      1          6           0        4.388593    2.394147   -0.121941
      2          6           0        3.428211    2.140136    0.862775
      3          6           0        2.835269    0.878397    0.967563
      4          6           0        3.228087   -0.110605    0.067085
      5          6           0        4.182075    0.111582   -0.924797
      6          6           0        4.761802    1.380846   -1.011017
      7          1           0        4.844072    3.377219   -0.196130
      8          1           0        3.136432    2.925177    1.554600
      9          1           0        2.089246    0.654493    1.720380
     10          1           0        4.452488   -0.691038   -1.600146
     11          1           0        5.507382    1.575257   -1.776758
     12          7           0        2.607361   -1.450335    0.168190
     13          8           0        2.970696   -2.304717   -0.637201
     14          8           0        1.769253   -1.620666    1.050914
     15          6           0       -4.561804    0.550713    0.060142
     16          6           0       -6.014588    0.675465   -0.400119
     17          6           0       -6.598592    2.065114   -0.143976
     18          1           0       -4.502256    0.783126    1.132235
     19          1           0       -3.954321    1.305890   -0.457610
     20          1           0       -6.618903   -0.080633    0.117316
     21          1           0       -6.070715    0.442542   -1.471199
     22          1           0       -6.020504    2.829481   -0.673278
     23          1           0       -6.571806    2.303334    0.924263
     24          1           0       -7.637863    2.132116   -0.480556
     25          6           0       -3.963994   -0.832822   -0.189221
     26          6           0       -2.511210   -0.957573    0.271039
     27          6           0       -1.927207   -2.347223    0.014897
     28          1           0       -4.571478   -1.587998    0.328530
     29          1           0       -4.023543   -1.065234   -1.261314
     30          1           0       -2.455084   -0.724650    1.342120
     31          1           0       -1.906896   -0.201477   -0.246395
     32          1           0       -1.953993   -2.585442   -1.053343
     33          1           0       -2.505295   -3.111590    0.544198
     34          1           0       -0.887936   -2.414225    0.351477
 ---------------------------------------------------------------------

 SCF Done:  E(RHF) =  -669.536420875     A.U. after   15 cycles
 E2 =    -0.2090877165D+01 EUMP2 =    -0.67162729803913D+03

 The electronic state is 1-A.
 Alpha  occ. eigenvalues --  -20.60980 -20.60970 -15.85999 -11.31301 -11.27861
 Alpha  occ. eigenvalues --  -11.27856 -11.27598 -11.26865 -11.26854 -11.21279
 Alpha  occ. eigenvalues --  -11.20967 -11.20849 -11.20781 -11.20722 -11.19705
 Alpha  occ. eigenvalues --   -1.60030  -1.39587  -1.19467  -1.08876  -1.07876
 Alpha  occ. eigenvalues --   -1.04860  -1.02880  -0.95722  -0.95302  -0.86320
 Alpha  occ. eigenvalues --   -0.86260  -0.82554  -0.78981  -0.77671  -0.77609
 Alpha  occ. eigenvalues --   -0.72222  -0.71340  -0.70576  -0.65123  -0.64863
 Alpha  occ. eigenvalues --   -0.64521  -0.62207  -0.60296  -0.58708  -0.56887
 Alpha  occ. eigenvalues --   -0.55366  -0.54619  -0.53195  -0.52952  -0.51939
 Alpha  occ. eigenvalues --   -0.51731  -0.49282  -0.48981  -0.48965  -0.47266
 Alpha  occ. eigenvalues --   -0.46052  -0.45208  -0.45139  -0.44985  -0.43085
 Alpha  occ. eigenvalues --   -0.37445  -0.36460
 Alpha virt. eigenvalues --    0.04886   0.11195   0.16369   0.21323   0.23360
 Alpha virt. eigenvalues --    0.25036   0.27140   0.27245   0.27919   0.28227
 Alpha virt. eigenvalues --    0.28825   0.30882   0.31989   0.32196   0.32455

 Mulliken charges:
               1
     1  C   -0.170533
     2  C   -0.218600
     3  C   -0.170631
     4  C    0.158095
     5  C   -0.170690
     6  C   -0.218629
     7  H    0.226044
     8  H    0.223982
     9  H    0.276176
    10  H    0.275886
    11  H    0.223836
    12  N    0.488873
    13  O   -0.458270
    14  O   -0.460370
    15  C   -0.297321
    16  C   -0.299104
    17  C   -0.475267
    18  H    0.148050
    19  H    0.146911
    20  H    0.151948
    21  H    0.151547
    22  H    0.153735
    23  H    0.154320
    24  H    0.159329
    25  C   -0.297298
    26  C   -0.297092
    27  C   -0.488275
    28  H    0.148893
    29  H    0.148432
    30  H    0.149677
    31  H    0.146546
    32  H    0.150324
    33  H    0.150341
    34  H    0.189134
 Sum of Mulliken charges =  -0.00000

 Dipole moment (field-independent basis, Debye):
    X=              2.4976    Y=              4.6636    Z=             -0.3248  Tot=              5.3003
 Quadrupole moment (field-independent basis, Debye-Ang):
   XX=            -80.6308   YY=            -96.6354   ZZ=            -91.3555
   XY=             14.9694   XZ=             -3.8884   YZ=              1.3297

 Normal termination of Gaussian 16 at Thu May  6 01:37:27 2021.
