 Gaussian 16, Revision A.03,
 Gaussian 16:  EM64L-G16RevA.03 25-Dec-2016

 -------------
 #p 6-31g* mp2
 -------------

 ------------------------------------------------------
 Input file generated by CHIRIPA (05-May-2021 14:53:14)
 ------------------------------------------------------
 Symbolic Z-matrix:
 Charge =  0 Multiplicity = 1

                         Standard orientation:
 ---------------------------------------------------------------------
 Center     Atomic      Atomic             Coordinates (Angstroms)
 Number     Number       Type             X           Y           Z
 ---------------------------------------------------------------------
      1          6           0       -2.190077    1.300637   -0.359911
      2          6           0       -1.806752    2.185913    0.826400
      3          6           0       -1.261854    3.548060    0.395779
      4          1           0       -1.310494    1.158751   -1.002675
      5          1           0       -2.941755    1.821316   -0.969229
      6          1           0       -1.057039    1.663137    1.434061
      7          1           0       -2.687302    2.325550    1.466517
      8          1           0       -2.007585    4.092951   -0.192082
      9          1           0       -0.368059    3.426775   -0.224723
     10          1           0       -0.994125    4.164647    1.259492
     11          6           0       -2.736489   -0.064440    0.054490
     12          6           0       -3.119814   -0.949717   -1.131821
     13          6           0       -3.664713   -2.311864   -0.701199
     14          1           0       -1.984812   -0.585120    0.663808
     15          1           0       -3.616072    0.077445    0.697255
     16          1           0       -2.239265   -1.089353   -1.771938
     17          1           0       -3.869527   -0.426941   -1.739482
     18          1           0       -4.558507   -2.190578   -0.080698
     19          1           0       -2.918982   -2.856755   -0.113338
     20          1           0       -3.932441   -2.928451   -1.564913
     21          6           0        0.944948   -2.540268    1.202686
     22          6           0        0.770639   -1.285996    1.796773
     23          6           0        1.308942   -0.139260    1.205353
     24          6           0        2.019134   -0.283989    0.014568
     25          6           0        2.209897   -1.519756   -0.601696
     26          6           0        1.662755   -2.652946    0.007454
     27          1           0        0.523349   -3.425818    1.669001
     28          1           0        0.213641   -1.195486    2.725001
     29          1           0        1.189082    0.844016    1.643782
     30          1           0        2.769990   -1.578341   -1.527051
     31          1           0        1.799707   -3.625744   -0.456175
     32          7           0        2.593690    0.922838   -0.620927
     33          8           0        3.215275    0.768620   -1.669967
     34          8           0        2.411561    2.000116   -0.057955
 ---------------------------------------------------------------------

 SCF Done:  E(RHF) =  -669.535368374     A.U. after   15 cycles
 E2 =    -0.2094816262D+01 EUMP2 =    -0.67163018463619D+03

 The electronic state is 1-A.
 Alpha  occ. eigenvalues --  -20.60970 -20.60965 -15.86004 -11.31360 -11.27921
 Alpha  occ. eigenvalues --  -11.27912 -11.27668 -11.26935 -11.26924 -11.21738
 Alpha  occ. eigenvalues --  -11.21561 -11.21429 -11.21376 -11.21313 -11.20560
 Alpha  occ. eigenvalues --   -1.60032  -1.39585  -1.19539  -1.08931  -1.08448
 Alpha  occ. eigenvalues --   -1.04939  -1.03520  -0.95938  -0.95764  -0.86954
 Alpha  occ. eigenvalues --   -0.86328  -0.82598  -0.79604  -0.78287  -0.77636
 Alpha  occ. eigenvalues --   -0.72223  -0.71353  -0.70643  -0.65192  -0.65140
 Alpha  occ. eigenvalues --   -0.64907  -0.62313  -0.60876  -0.59339  -0.57563
 Alpha  occ. eigenvalues --   -0.55430  -0.55234  -0.53251  -0.53022  -0.52626
 Alpha  occ. eigenvalues --   -0.52355  -0.49868  -0.48982  -0.48977  -0.47910
 Alpha  occ. eigenvalues --   -0.46640  -0.45814  -0.45742  -0.44944  -0.43766
 Alpha  occ. eigenvalues --   -0.37493  -0.36457
 Alpha virt. eigenvalues --    0.04818   0.11021   0.16237   0.20521   0.22991
 Alpha virt. eigenvalues --    0.23884   0.25896   0.26905   0.27660   0.28038
 Alpha virt. eigenvalues --    0.28790   0.30904   0.31428   0.31695   0.32194

 Mulliken charges:
               1
     1  C   -0.297870
     2  C   -0.299029
     3  C   -0.481037
     4  H    0.151162
     5  H    0.151091
     6  H    0.139325
     7  H    0.149824
     8  H    0.153132
     9  H    0.173820
    10  H    0.158713
    11  C   -0.302730
    12  C   -0.298904
    13  C   -0.474797
    14  H    0.149477
    15  H    0.147366
    16  H    0.152927
    17  H    0.153254
    18  H    0.155243
    19  H    0.149005
    20  H    0.160450
    21  C   -0.171287
    22  C   -0.219057
    23  C   -0.169568
    24  C    0.157538
    25  C   -0.171049
    26  C   -0.218223
    27  H    0.226922
    28  H    0.225621
    29  H    0.279031
    30  H    0.276221
    31  H    0.224458
    32  N    0.487881
    33  O   -0.458879
    34  O   -0.460028
 Sum of Mulliken charges =  -0.00000

 Dipole moment (field-independent basis, Debye):
    X=             -1.8274    Y=             -4.2168    Z=              2.1506  Tot=              5.0741
 Quadrupole moment (field-independent basis, Debye-Ang):
   XX=           -102.5054   YY=            -91.8442   ZZ=            -92.3235
   XY=            -10.0823   XZ=              3.1700   YZ=              1.5773

 Normal termination of Gaussian 16 at Thu May  6 12:06:51 2021.
