 Gaussian 16, Revision A.03,
 Gaussian 16:  EM64L-G16RevA.03 25-Dec-2016

 -------------
 #p 6-31g* mp2
 -------------

 ------------------------------------------------------
 Input file generated by CHIRIPA (05-May-2021 14:55:20)
 ------------------------------------------------------
 Symbolic Z-matrix:
 Charge =  0 Multiplicity = 1

                         Standard orientation:
 ---------------------------------------------------------------------
 Center     Atomic      Atomic             Coordinates (Angstroms)
 Number     Number       Type             X           Y           Z
 ---------------------------------------------------------------------
      1          6           0       -3.773508    0.791632   -0.741811
      2          6           0       -3.041439    1.168143    0.389044
      3          6           0       -2.025176    0.345114    0.883393
      4          6           0       -1.766464   -0.852898    0.219220
      5          6           0       -2.478271   -1.255687   -0.909666
      6          6           0       -3.490087   -0.416950   -1.386421
      7          1           0       -4.561239    1.437083   -1.119000
      8          1           0       -3.259358    2.106178    0.891685
      9          1           0       -1.442927    0.612188    1.756935
     10          1           0       -2.237972   -2.196739   -1.389348
     11          1           0       -4.056997   -0.711912   -2.264860
     12          7           0       -0.692946   -1.732517    0.733252
     13          8           0       -0.484493   -2.782924    0.130069
     14          8           0       -0.080302   -1.354900    1.729600
     15          6           0        1.842853    1.190377    0.122828
     16          6           0        1.610689    2.659848   -0.230356
     17          6           0        0.316973    3.214147    0.367010
     18          1           0        0.989621    0.595600   -0.230980
     19          1           0        1.867065    1.082657    1.216082
     20          1           0        1.588303    2.764979   -1.322630
     21          1           0        2.464662    3.251170    0.124164
     22          1           0        0.333468    3.138380    1.459067
     23          1           0       -0.547870    2.649426    0.004051
     24          1           0        0.170822    4.265960    0.102078
     25          6           0        3.132233    0.621914   -0.467151
     26          6           0        3.364397   -0.847556   -0.113967
     27          6           0        4.658113   -1.401855   -0.711332
     28          1           0        3.108021    0.729634   -1.560406
     29          1           0        3.985465    1.216692   -0.113343
     30          1           0        2.510424   -1.438879   -0.468488
     31          1           0        3.386783   -0.952688    0.978307
     32          1           0        5.522956   -0.837135   -0.348375
     33          1           0        4.641618   -1.326088   -1.803389
     34          1           0        4.804264   -2.453669   -0.446400
 ---------------------------------------------------------------------

 SCF Done:  E(RHF) =  -669.534504495     A.U. after   15 cycles
 E2 =    -0.2095815496D+01 EUMP2 =    -0.67163031999074D+03

 The electronic state is 1-A.
 Alpha  occ. eigenvalues --  -20.60920 -20.60900 -15.85922 -11.31267 -11.27857
 Alpha  occ. eigenvalues --  -11.27822 -11.27592 -11.26846 -11.26816 -11.21380
 Alpha  occ. eigenvalues --  -11.21107 -11.20826 -11.20701 -11.20505 -11.20215
 Alpha  occ. eigenvalues --   -1.59963  -1.39518  -1.19465  -1.08856  -1.07858
 Alpha  occ. eigenvalues --   -1.04864  -1.02987  -0.95695  -0.95495  -0.86538
 Alpha  occ. eigenvalues --   -0.86247  -0.82523  -0.79101  -0.77718  -0.77438
 Alpha  occ. eigenvalues --   -0.72153  -0.71277  -0.70556  -0.65111  -0.64843
 Alpha  occ. eigenvalues --   -0.64499  -0.62201  -0.60408  -0.58903  -0.57077
 Alpha  occ. eigenvalues --   -0.55350  -0.54844  -0.53234  -0.52931  -0.52206
 Alpha  occ. eigenvalues --   -0.51911  -0.49485  -0.48924  -0.48913  -0.47382
 Alpha  occ. eigenvalues --   -0.46121  -0.45431  -0.45019  -0.44522  -0.43223
 Alpha  occ. eigenvalues --   -0.37430  -0.36345
 Alpha virt. eigenvalues --    0.04915   0.11121   0.16317   0.21081   0.23334
 Alpha virt. eigenvalues --    0.24638   0.26460   0.27111   0.27570   0.28402
 Alpha virt. eigenvalues --    0.29417   0.30477   0.31713   0.32010   0.32573

 Mulliken charges:
               1
     1  C   -0.170984
     2  C   -0.219822
     3  C   -0.168300
     4  C    0.155292
     5  C   -0.171770
     6  C   -0.218986
     7  H    0.226343
     8  H    0.226115
     9  H    0.278453
    10  H    0.275885
    11  H    0.223805
    12  N    0.490404
    13  O   -0.460494
    14  O   -0.456561
    15  C   -0.297007
    16  C   -0.297621
    17  C   -0.485249
    18  H    0.142715
    19  H    0.158385
    20  H    0.150084
    21  H    0.151782
    22  H    0.150865
    23  H    0.158075
    24  H    0.157609
    25  C   -0.299460
    26  C   -0.300872
    27  C   -0.475936
    28  H    0.145226
    29  H    0.146780
    30  H    0.160622
    31  H    0.159975
    32  H    0.151209
    33  H    0.151054
    34  H    0.162384
 Sum of Mulliken charges =  -0.00000

 Dipole moment (field-independent basis, Debye):
    X=             -3.8935    Y=              2.8887    Z=             -1.6769  Tot=              5.1299
 Quadrupole moment (field-independent basis, Debye-Ang):
   XX=            -82.5873   YY=            -99.0824   ZZ=            -92.6609
   XY=             -1.3116   XZ=              4.3767   YZ=              4.9929

 Normal termination of Gaussian 16 at Thu May  6 17:25:59 2021.
