 Gaussian 16, Revision A.03,
 Gaussian 16:  EM64L-G16RevA.03 25-Dec-2016

 -------------
 #p 6-31g* mp2
 -------------

 ------------------------------------------------------
 Input file generated by CHIRIPA (05-May-2021 14:57:23)
 ------------------------------------------------------
 Symbolic Z-matrix:
 Charge =  0 Multiplicity = 1

                         Standard orientation:
 ---------------------------------------------------------------------
 Center     Atomic      Atomic             Coordinates (Angstroms)
 Number     Number       Type             X           Y           Z
 ---------------------------------------------------------------------
      1          6           0        2.029220    0.459548    0.581741
      2          6           0        2.858860    1.519200    0.200485
      3          6           0        4.216711    1.302434   -0.052105
      4          6           0        4.713803    0.007487    0.086824
      5          6           0        3.912749   -1.068863    0.465074
      6          6           0        2.557880   -0.828830    0.712588
      7          1           0        0.975567    0.636975    0.775988
      8          1           0        2.451035    2.520817    0.098075
      9          1           0        4.881522    2.104611   -0.348678
     10          1           0        4.348160   -2.056308    0.558815
     11          1           0        1.915933   -1.653674    1.008529
     12          7           0        6.149720   -0.234309   -0.177894
     13          8           0        6.563284   -1.384460   -0.048452
     14          8           0        6.834439    0.730900   -0.509811
     15          6           0       -1.995789   -0.122986   -0.581083
     16          6           0       -2.741937   -1.306074   -0.571776
     17          6           0       -4.117391   -1.276090   -0.323235
     18          6           0       -4.717035   -0.040025   -0.086888
     19          6           0       -4.000803    1.155925   -0.089511
     20          6           0       -2.626492    1.102078   -0.340346
     21          1           0       -0.927747   -0.155547   -0.775046
     22          1           0       -2.254783   -2.258909   -0.758412
     23          1           0       -4.719011   -2.176813   -0.310164
     24          1           0       -4.514432    2.090647    0.099952
     25          1           0       -2.049537    2.022472   -0.346958
     26          7           0       -6.172562    0.004349    0.177445
     27          8           0       -6.677200    1.106081    0.382783
     28          8           0       -6.781206   -1.063443    0.174285
 ---------------------------------------------------------------------

 SCF Done:  E(RHF) =  -868.336733676     A.U. after   16 cycles
 E2 =    -0.2599952578D+01 EUMP2 =    -0.87093668625426D+03

 The electronic state is 1-A.
 Alpha  occ. eigenvalues --  -20.61392 -20.61387 -20.61367 -20.61361 -15.86451
 Alpha  occ. eigenvalues --  -15.86426 -11.31993 -11.31957 -11.28560 -11.28550
 Alpha  occ. eigenvalues --  -11.28543 -11.28517 -11.28433 -11.28387 -11.27680
 Alpha  occ. eigenvalues --  -11.27665 -11.27658 -11.27603  -1.60463  -1.60438
 Alpha  occ. eigenvalues --   -1.40012  -1.39987  -1.20187  -1.20152  -1.09587
 Alpha  occ. eigenvalues --   -1.09530  -1.05604  -1.05574  -0.96405  -0.96313
 Alpha  occ. eigenvalues --   -0.87009  -0.86979  -0.83225  -0.83132  -0.78190
 Alpha  occ. eigenvalues --   -0.78163  -0.72666  -0.72641  -0.71788  -0.71763
 Alpha  occ. eigenvalues --   -0.71621  -0.71051  -0.65846  -0.65814  -0.65645
 Alpha  occ. eigenvalues --   -0.65567  -0.62938  -0.62910  -0.56486  -0.55837
 Alpha  occ. eigenvalues --   -0.53928  -0.53893  -0.53703  -0.53675  -0.49440
 Alpha  occ. eigenvalues --   -0.49414  -0.49409  -0.49385  -0.45377  -0.45355
 Alpha  occ. eigenvalues --   -0.38231  -0.38167  -0.37197  -0.37168
 Alpha virt. eigenvalues --    0.04276   0.04353   0.10423   0.10441   0.15533
 Alpha virt. eigenvalues --    0.15739   0.18898   0.21838   0.25530   0.25991
 Alpha virt. eigenvalues --    0.27123   0.29390   0.29878   0.30404   0.32083

 Mulliken charges:
               1
     1  C   -0.178025
     2  C   -0.217969
     3  C   -0.169957
     4  C    0.159836
     5  C   -0.169896
     6  C   -0.219755
     7  H    0.222072
     8  H    0.223611
     9  H    0.278187
    10  H    0.277952
    11  H    0.223143
    12  N    0.487881
    13  O   -0.458377
    14  O   -0.458174
    15  C   -0.177997
    16  C   -0.218624
    17  C   -0.169868
    18  C    0.159505
    19  C   -0.169657
    20  C   -0.219472
    21  H    0.223497
    22  H    0.224614
    23  H    0.278150
    24  H    0.277739
    25  H    0.220482
    26  N    0.487924
    27  O   -0.458601
    28  O   -0.458220
 Sum of Mulliken charges =  -0.00000

 Dipole moment (field-independent basis, Debye):
    X=              0.0891    Y=              0.6545    Z=             -0.0034  Tot=              0.6605
 Quadrupole moment (field-independent basis, Debye-Ang):
   XX=           -199.7306   YY=            -94.8961   ZZ=           -105.9387
   XY=              5.5993   XZ=              7.8348   YZ=             -0.5129

 Normal termination of Gaussian 16 at Thu May  6 19:35:26 2021.
