 Gaussian 16, Revision A.03,
 Gaussian 16:  EM64L-G16RevA.03 25-Dec-2016

 -------------
 #p 6-31g* mp2
 -------------

 ------------------------------------------------------
 Input file generated by CHIRIPA (05-May-2021 14:53:15)
 ------------------------------------------------------
 Symbolic Z-matrix:
 Charge =  0 Multiplicity = 1

                         Standard orientation:
 ---------------------------------------------------------------------
 Center     Atomic      Atomic             Coordinates (Angstroms)
 Number     Number       Type             X           Y           Z
 ---------------------------------------------------------------------
      1          6           0       -3.110615   -0.115608    0.091872
      2          6           0       -3.945510   -1.059480   -0.774177
      3          6           0       -4.071875   -2.458777   -0.171024
      4          1           0       -2.110253   -0.546974    0.233800
      5          1           0       -3.565472   -0.046085    1.089703
      6          1           0       -3.489989   -1.126120   -1.770508
      7          1           0       -4.943940   -0.625725   -0.914218
      8          1           0       -4.546807   -2.412114    0.814300
      9          1           0       -3.084595   -2.915352   -0.046855
     10          1           0       -4.672605   -3.117056   -0.806361
     11          6           0       -2.975175    1.287102   -0.497865
     12          6           0       -2.140279    2.230974    0.368184
     13          6           0       -2.013915    3.630271   -0.234969
     14          1           0       -2.520318    1.217579   -1.495696
     15          1           0       -3.975537    1.718468   -0.639793
     16          1           0       -1.141850    1.797219    0.508225
     17          1           0       -2.595801    2.297614    1.364514
     18          1           0       -3.001195    4.086846   -0.359139
     19          1           0       -1.538983    3.583608   -1.220293
     20          1           0       -1.413185    4.288550    0.400367
     21          6           0        0.328305   -1.608749    1.076518
     22          6           0        0.872514   -0.508427    1.747077
     23          6           0        2.007570    0.137137    1.247636
     24          6           0        2.575347   -0.346327    0.069849
     25          6           0        2.056553   -1.440244   -0.621156
     26          6           0        0.921015   -2.070331   -0.103379
     27          1           0       -0.553621   -2.104226    1.471618
     28          1           0        0.414312   -0.147775    2.663606
     29          1           0        2.449540    0.991052    1.746545
     30          1           0        2.535490   -1.776781   -1.532629
     31          1           0        0.500540   -2.924637   -0.626263
     32          7           0        3.777235    0.328910   -0.468593
     33          8           0        4.258724   -0.116423   -1.508056
     34          8           0        4.215028    1.290709    0.159036
 ---------------------------------------------------------------------

 SCF Done:  E(RHF) =  -669.535104531     A.U. after   15 cycles
 E2 =    -0.2093581683D+01 EUMP2 =    -0.67162868621350D+03

 The electronic state is 1-A.
 Alpha  occ. eigenvalues --  -20.60838 -20.60832 -15.85893 -11.31291 -11.27876
 Alpha  occ. eigenvalues --  -11.27869 -11.27591 -11.26887 -11.26876 -11.22264
 Alpha  occ. eigenvalues --  -11.21968 -11.21949 -11.21936 -11.21789 -11.21292
 Alpha  occ. eigenvalues --   -1.59913  -1.39465  -1.19482  -1.08988  -1.08839
 Alpha  occ. eigenvalues --   -1.04882  -1.04059  -0.96516  -0.95696  -0.87531
 Alpha  occ. eigenvalues --   -0.86273  -0.82524  -0.80133  -0.78784  -0.77556
 Alpha  occ. eigenvalues --   -0.72110  -0.71237  -0.70593  -0.65601  -0.65127
 Alpha  occ. eigenvalues --   -0.64862  -0.62221  -0.61454  -0.59899  -0.58129
 Alpha  occ. eigenvalues --   -0.55838  -0.55375  -0.53318  -0.53141  -0.52963
 Alpha  occ. eigenvalues --   -0.52932  -0.50467  -0.48873  -0.48863  -0.48451
 Alpha  occ. eigenvalues --   -0.47171  -0.46308  -0.46206  -0.44864  -0.44293
 Alpha  occ. eigenvalues --   -0.37351  -0.36469
 Alpha virt. eigenvalues --    0.04926   0.11123   0.16300   0.19811   0.22780
 Alpha virt. eigenvalues --    0.23556   0.25896   0.26558   0.26802   0.27862
 Alpha virt. eigenvalues --    0.28909   0.30524   0.31149   0.31325   0.31918

 Mulliken charges:
               1
     1  C   -0.307441
     2  C   -0.299417
     3  C   -0.475359
     4  H    0.153023
     5  H    0.146254
     6  H    0.153426
     7  H    0.155062
     8  H    0.156211
     9  H    0.144067
    10  H    0.164275
    11  C   -0.296876
    12  C   -0.304691
    13  C   -0.475811
    14  H    0.151843
    15  H    0.150587
    16  H    0.154810
    17  H    0.148381
    18  H    0.155362
    19  H    0.158005
    20  H    0.161150
    21  C   -0.172858
    22  C   -0.217076
    23  C   -0.171849
    24  C    0.158679
    25  C   -0.170457
    26  C   -0.220091
    27  H    0.230450
    28  H    0.225756
    29  H    0.276415
    30  H    0.276116
    31  H    0.224172
    32  N    0.488081
    33  O   -0.460182
    34  O   -0.460018
 Sum of Mulliken charges =  -0.00000

 Dipole moment (field-independent basis, Debye):
    X=             -4.1935    Y=             -2.3475    Z=              1.8579  Tot=              5.1525
 Quadrupole moment (field-independent basis, Debye-Ang):
   XX=           -116.5637   YY=            -92.4710   ZZ=            -91.6272
   XY=             -5.2214   XZ=              4.4186   YZ=              2.4097

 Normal termination of Gaussian 16 at Thu May  6 02:41:33 2021.
