 Gaussian 16, Revision A.03,
 Gaussian 16:  EM64L-G16RevA.03 25-Dec-2016

 -------------
 #p 6-31g* mp2
 -------------

 ------------------------------------------------------
 Input file generated by CHIRIPA (05-May-2021 14:53:15)
 ------------------------------------------------------
 Symbolic Z-matrix:
 Charge =  0 Multiplicity = 1

                         Standard orientation:
 ---------------------------------------------------------------------
 Center     Atomic      Atomic             Coordinates (Angstroms)
 Number     Number       Type             X           Y           Z
 ---------------------------------------------------------------------
      1          6           0       -3.399643   -0.124871    0.001288
      2          6           0       -2.921874   -1.376960   -0.734915
      3          6           0       -3.717495   -2.626038   -0.354673
      4          1           0       -3.325100   -0.293219    1.084361
      5          1           0       -4.464286    0.036744   -0.217370
      6          1           0       -1.858102   -1.535381   -0.516039
      7          1           0       -2.997383   -1.205541   -1.816363
      8          1           0       -4.778609   -2.493073   -0.589103
      9          1           0       -3.632855   -2.824787    0.718610
     10          1           0       -3.359316   -3.509357   -0.892554
     11          6           0       -2.613946    1.132044   -0.368273
     12          6           0       -3.091715    2.384133    0.367930
     13          6           0       -2.296095    3.633211   -0.012312
     14          1           0       -1.549303    0.970429   -0.149615
     15          1           0       -2.688489    1.300392   -1.451346
     16          1           0       -3.016207    2.212714    1.449379
     17          1           0       -4.155488    2.542554    0.149054
     18          1           0       -2.380735    3.831961   -1.085595
     19          1           0       -1.234980    3.500246    0.222118
     20          1           0       -2.654274    4.516530    0.525569
     21          6           0        4.046853    1.268017   -0.706952
     22          6           0        3.558042    1.373071    0.599397
     23          6           0        2.617144    0.458099    1.081147
     24          6           0        2.184922   -0.554049    0.225558
     25          6           0        2.653048   -0.685125   -1.080951
     26          6           0        3.593594    0.241065   -1.541486
     27          1           0        4.777629    1.983147   -1.072947
     28          1           0        3.908257    2.169596    1.249739
     29          1           0        2.222058    0.516125    2.088101
     30          1           0        2.285060   -1.489890   -1.705736
     31          1           0        3.971464    0.157037   -2.556474
     32          7           0        1.189021   -1.528628    0.724335
     33          8           0        0.824171   -2.411255   -0.049287
     34          8           0        0.792142   -1.391421    1.879453
 ---------------------------------------------------------------------

 SCF Done:  E(RHF) =  -669.536452717     A.U. after   15 cycles
 E2 =    -0.2091722928D+01 EUMP2 =    -0.67162817564593D+03

 The electronic state is 1-A.
 Alpha  occ. eigenvalues --  -20.61025 -20.61011 -15.86038 -11.31333 -11.27890
 Alpha  occ. eigenvalues --  -11.27881 -11.27617 -11.26883 -11.26873 -11.21205
 Alpha  occ. eigenvalues --  -11.20874 -11.20846 -11.20523 -11.20393 -11.19939
 Alpha  occ. eigenvalues --   -1.60077  -1.39632  -1.19493  -1.08903  -1.07720
 Alpha  occ. eigenvalues --   -1.04882  -1.02786  -0.95749  -0.95278  -0.86301
 Alpha  occ. eigenvalues --   -0.86284  -0.82583  -0.78902  -0.77644  -0.77481
 Alpha  occ. eigenvalues --   -0.72254  -0.71394  -0.70599  -0.65147  -0.64884
 Alpha  occ. eigenvalues --   -0.64341  -0.62229  -0.60169  -0.58689  -0.56863
 Alpha  occ. eigenvalues --   -0.55387  -0.54575  -0.53214  -0.52973  -0.51981
 Alpha  occ. eigenvalues --   -0.51705  -0.49248  -0.49026  -0.49013  -0.47219
 Alpha  occ. eigenvalues --   -0.45979  -0.45243  -0.45009  -0.44624  -0.43054
 Alpha  occ. eigenvalues --   -0.37466  -0.36480
 Alpha virt. eigenvalues --    0.04844   0.11173   0.16334   0.21308   0.23421
 Alpha virt. eigenvalues --    0.25096   0.27091   0.27238   0.27964   0.28335
 Alpha virt. eigenvalues --    0.28623   0.30919   0.32061   0.32239   0.32569

 Mulliken charges:
               1
     1  C   -0.298443
     2  C   -0.307534
     3  C   -0.473922
     4  H    0.154076
     5  H    0.145347
     6  H    0.171090
     7  H    0.144266
     8  H    0.148183
     9  H    0.159030
    10  H    0.161209
    11  C   -0.295885
    12  C   -0.299321
    13  C   -0.474886
    14  H    0.145348
    15  H    0.146650
    16  H    0.153346
    17  H    0.151419
    18  H    0.153762
    19  H    0.151915
    20  H    0.158577
    21  C   -0.170257
    22  C   -0.218557
    23  C   -0.171245
    24  C    0.158414
    25  C   -0.170322
    26  C   -0.218488
    27  H    0.226280
    28  H    0.224054
    29  H    0.275828
    30  H    0.276223
    31  H    0.224096
    32  N    0.487275
    33  O   -0.458266
    34  O   -0.459263
 Sum of Mulliken charges =  -0.00000

 Dipole moment (field-independent basis, Debye):
    X=              3.7373    Y=              3.3004    Z=             -1.6783  Tot=              5.2609
 Quadrupole moment (field-independent basis, Debye-Ang):
   XX=            -80.4195   YY=            -99.1928   ZZ=            -91.2880
   XY=              5.2884   XZ=             -3.0234   YZ=              4.1118

 Normal termination of Gaussian 16 at Thu May  6 13:48:54 2021.
