 Gaussian 16, Revision A.03,
 Gaussian 16:  EM64L-G16RevA.03 25-Dec-2016

 -------------
 #p 6-31g* mp2
 -------------

 ------------------------------------------------------
 Input file generated by CHIRIPA (05-May-2021 14:51:11)
 ------------------------------------------------------
 Symbolic Z-matrix:
 Charge =  0 Multiplicity = 1

                         Standard orientation:
 ---------------------------------------------------------------------
 Center     Atomic      Atomic             Coordinates (Angstroms)
 Number     Number       Type             X           Y           Z
 ---------------------------------------------------------------------
      1          6           0       -2.662330    1.016247   -0.122977
      2          6           0       -3.597901    2.124432    0.361397
      3          6           0       -2.942520    3.505554    0.333557
      4          1           0       -1.759375    1.007880    0.502759
      5          1           0       -2.331913    1.245788   -1.145489
      6          1           0       -3.927550    1.892166    1.382181
      7          1           0       -4.498819    2.130037   -0.265444
      8          1           0       -2.629000    3.762760   -0.683375
      9          1           0       -2.054485    3.523538    0.973612
     10          1           0       -3.628921    4.282775    0.683757
     11          6           0       -3.303197   -0.370307   -0.100953
     12          6           0       -2.367627   -1.478493   -0.585328
     13          6           0       -3.023007   -2.859614   -0.557487
     14          1           0       -3.633614   -0.599848    0.921558
     15          1           0       -4.206153   -0.361940   -0.726690
     16          1           0       -1.466708   -1.484098    0.041514
     17          1           0       -2.037977   -1.246227   -1.606112
     18          1           0       -3.911043   -2.877598   -1.197542
     19          1           0       -3.336528   -3.116820    0.459445
     20          1           0       -2.336606   -3.636836   -0.907687
     21          6           0        2.840212   -1.062837   -0.013366
     22          6           0        1.689322   -1.610213    0.831510
     23          6           0        1.416190   -3.091620    0.569539
     24          1           0        2.609101   -1.212049   -1.076977
     25          1           0        3.747927   -1.646280    0.194102
     26          1           0        0.784380   -1.025024    0.623537
     27          1           0        1.923113   -1.459507    1.893227
     28          1           0        2.302978   -3.692652    0.795302
     29          1           0        1.157775   -3.255700   -0.481604
     30          1           0        0.589736   -3.462250    1.183922
     31          6           0        3.125315    0.416897    0.237296
     32          6           0        4.276206    0.964274   -0.607580
     33          6           0        4.549337    2.445680   -0.345609
     34          1           0        2.217600    1.000340    0.029828
     35          1           0        3.356425    0.566109    1.300907
     36          1           0        4.042415    0.813567   -1.669297
     37          1           0        5.181146    0.379085   -0.399606
     38          1           0        4.807751    2.609761    0.705534
     39          1           0        3.662549    3.046712   -0.571372
     40          1           0        5.375791    2.816310   -0.959992
 ---------------------------------------------------------------------

 SCF Done:  E(RHF) =  -470.733287253     A.U. after   11 cycles
 E2 =    -0.1583229773D+01 EUMP2 =    -0.47231651702606D+03

 The electronic state is 1-A.
 Alpha  occ. eigenvalues --  -11.21623 -11.21601 -11.21596 -11.21579 -11.21430
 Alpha  occ. eigenvalues --  -11.21402 -11.21365 -11.21343 -11.21088 -11.21084
 Alpha  occ. eigenvalues --  -11.21064 -11.21059  -1.08460  -1.08417  -1.03573
 Alpha  occ. eigenvalues --   -1.03499  -0.96007  -0.95961  -0.87010  -0.86989
 Alpha  occ. eigenvalues --   -0.79659  -0.79551  -0.78322  -0.78188  -0.65187
 Alpha  occ. eigenvalues --   -0.64968  -0.61112  -0.60788  -0.59422  -0.59271
 Alpha  occ. eigenvalues --   -0.57643  -0.57544  -0.55318  -0.55216  -0.52707
 Alpha  occ. eigenvalues --   -0.52645  -0.52412  -0.52405  -0.49954  -0.49901
 Alpha  occ. eigenvalues --   -0.48035  -0.47843  -0.46843  -0.46496  -0.46001
 Alpha  occ. eigenvalues --   -0.45761  -0.45758  -0.45352  -0.43805  -0.43771
 Alpha virt. eigenvalues --    0.20777   0.23286   0.23298   0.24576   0.25462
 Alpha virt. eigenvalues --    0.26761   0.26927   0.27353   0.28771   0.29178
 Alpha virt. eigenvalues --    0.30747   0.31167   0.31692   0.31860   0.32369

 Mulliken charges:
               1
     1  C   -0.299556
     2  C   -0.299595
     3  C   -0.475815
     4  H    0.149884
     5  H    0.149220
     6  H    0.152129
     7  H    0.152151
     8  H    0.155028
     9  H    0.155335
    10  H    0.160405
    11  C   -0.297665
    12  C   -0.309124
    13  C   -0.475438
    14  H    0.149479
    15  H    0.149722
    16  H    0.162417
    17  H    0.150950
    18  H    0.154953
    19  H    0.154832
    20  H    0.161085
    21  C   -0.297600
    22  C   -0.306690
    23  C   -0.476243
    24  H    0.149937
    25  H    0.149488
    26  H    0.157190
    27  H    0.151721
    28  H    0.155388
    29  H    0.155952
    30  H    0.160496
    31  C   -0.298708
    32  C   -0.299633
    33  C   -0.475775
    34  H    0.150035
    35  H    0.149434
    36  H    0.152008
    37  H    0.151883
    38  H    0.155094
    39  H    0.155390
    40  H    0.160235
 Sum of Mulliken charges =  -0.00000

 Dipole moment (field-independent basis, Debye):
    X=              0.0022    Y=             -0.0054    Z=              0.0012  Tot=              0.0060
 Quadrupole moment (field-independent basis, Debye-Ang):
   XX=            -84.4864   YY=            -86.9532   ZZ=            -83.3235
   XY=             -0.9298   XZ=              0.7426   YZ=             -0.4434

 Normal termination of Gaussian 16 at Wed May  5 15:15:54 2021.
