 Gaussian 16, Revision A.03,
 Gaussian 16:  EM64L-G16RevA.03 25-Dec-2016

 -------------
 #p 6-31g* mp2
 -------------

 ------------------------------------------------------
 Input file generated by CHIRIPA (05-May-2021 14:57:26)
 ------------------------------------------------------
 Symbolic Z-matrix:
 Charge =  0 Multiplicity = 1

                         Standard orientation:
 ---------------------------------------------------------------------
 Center     Atomic      Atomic             Coordinates (Angstroms)
 Number     Number       Type             X           Y           Z
 ---------------------------------------------------------------------
      1          6           0        2.886468    2.555526    0.086468
      2          6           0        4.243506    2.244276   -0.048039
      3          6           0        4.656829    0.916082   -0.188088
      4          6           0        3.681871   -0.080284   -0.189456
      5          6           0        2.322291    0.197913   -0.057399
      6          6           0        1.931874    1.533153    0.081368
      7          1           0        2.574286    3.590035    0.194763
      8          1           0        4.987064    3.036206   -0.044422
      9          1           0        5.700759    0.646967   -0.293945
     10          1           0        1.604341   -0.613206   -0.064624
     11          1           0        0.877284    1.771922    0.185647
     12          7           0        4.107312   -1.490113   -0.337041
     13          8           0        3.228730   -2.349606   -0.335190
     14          8           0        5.311299   -1.708949   -0.451774
     15          6           0       -1.508931   -0.858276    1.367356
     16          6           0       -2.359876   -1.823820    0.819505
     17          6           0       -3.527669   -1.444032    0.151247
     18          6           0       -3.815046   -0.083801    0.048906
     19          6           0       -2.987287    0.901928    0.584109
     20          6           0       -1.824795    0.499122    1.248119
     21          1           0       -0.603821   -1.162246    1.884825
     22          1           0       -2.117099   -2.878718    0.910583
     23          1           0       -4.204141   -2.170581   -0.282265
     24          1           0       -3.255930    1.945880    0.477280
     25          1           0       -1.165795    1.251171    1.672605
     26          7           0       -5.048529    0.330448   -0.656301
     27          8           0       -5.279225    1.535249   -0.732922
     28          8           0       -5.761283   -0.557509   -1.119066
 ---------------------------------------------------------------------

 SCF Done:  E(RHF) =  -868.337700123     A.U. after   16 cycles
 E2 =    -0.2600393649D+01 EUMP2 =    -0.87093809377263D+03

 The electronic state is 1-A.
 Alpha  occ. eigenvalues --  -20.61378 -20.61355 -20.61202 -20.61188 -15.86424
 Alpha  occ. eigenvalues --  -15.86256 -11.31815 -11.31749 -11.28425 -11.28402
 Alpha  occ. eigenvalues --  -11.28356 -11.28279 -11.28122 -11.28107 -11.27491
 Alpha  occ. eigenvalues --  -11.27434 -11.27361 -11.27277  -1.60442  -1.60270
 Alpha  occ. eigenvalues --   -1.39997  -1.39820  -1.19992  -1.19941  -1.09378
 Alpha  occ. eigenvalues --   -1.09314  -1.05421  -1.05348  -0.96210  -0.96119
 Alpha  occ. eigenvalues --   -0.86838  -0.86721  -0.83045  -0.82951  -0.78123
 Alpha  occ. eigenvalues --   -0.77951  -0.72642  -0.72471  -0.71766  -0.71594
 Alpha  occ. eigenvalues --   -0.71154  -0.70969  -0.65662  -0.65605  -0.65582
 Alpha  occ. eigenvalues --   -0.65204  -0.62865  -0.62571  -0.55902  -0.55842
 Alpha  occ. eigenvalues --   -0.53738  -0.53687  -0.53615  -0.53279  -0.49404
 Alpha  occ. eigenvalues --   -0.49392  -0.49238  -0.49218  -0.45397  -0.45197
 Alpha  occ. eigenvalues --   -0.37962  -0.37938  -0.37014  -0.36958
 Alpha virt. eigenvalues --    0.04424   0.04544   0.10507   0.10621   0.15840
 Alpha virt. eigenvalues --    0.15906   0.19261   0.22020   0.25320   0.26169
 Alpha virt. eigenvalues --    0.27962   0.29282   0.29519   0.31287   0.32203

 Mulliken charges:
               1
     1  C   -0.170533
     2  C   -0.218110
     3  C   -0.169932
     4  C    0.159854
     5  C   -0.176192
     6  C   -0.223338
     7  H    0.227281
     8  H    0.225875
     9  H    0.277475
    10  H    0.273471
    11  H    0.222041
    12  N    0.488247
    13  O   -0.462818
    14  O   -0.457684
    15  C   -0.176828
    16  C   -0.217666
    17  C   -0.169020
    18  C    0.159440
    19  C   -0.170963
    20  C   -0.225314
    21  H    0.230764
    22  H    0.230593
    23  H    0.278955
    24  H    0.275422
    25  H    0.218789
    26  N    0.488083
    27  O   -0.460283
    28  O   -0.457611
 Sum of Mulliken charges =  -0.00000

 Dipole moment (field-independent basis, Debye):
    X=              2.7845    Y=              3.3778    Z=              2.9509  Tot=              5.2793
 Quadrupole moment (field-independent basis, Debye-Ang):
   XX=           -143.3810   YY=           -100.5129   ZZ=           -106.2594
   XY=             27.2575   XZ=             -7.2281   YZ=             -0.5522

 Normal termination of Gaussian 16 at Thu May  6 11:30:09 2021.
