 Gaussian 16, Revision A.03,
 Gaussian 16:  EM64L-G16RevA.03 25-Dec-2016

 -------------
 #p 6-31g* mp2
 -------------

 ------------------------------------------------------
 Input file generated by CHIRIPA (05-May-2021 14:57:22)
 ------------------------------------------------------
 Symbolic Z-matrix:
 Charge =  0 Multiplicity = 1

                         Standard orientation:
 ---------------------------------------------------------------------
 Center     Atomic      Atomic             Coordinates (Angstroms)
 Number     Number       Type             X           Y           Z
 ---------------------------------------------------------------------
      1          6           0        6.653492   -0.573599    0.715189
      2          6           0        5.605403   -1.458770    0.988140
      3          6           0        4.310698   -1.187195    0.535885
      4          6           0        4.098820   -0.015956   -0.189784
      5          6           0        5.122269    0.885633   -0.477847
      6          6           0        6.409011    0.593720   -0.015645
      7          1           0        7.656157   -0.792464    1.070375
      8          1           0        5.792338   -2.366084    1.555486
      9          1           0        3.480960   -1.855109    0.732975
     10          1           0        4.905025    1.782085   -1.045822
     11          1           0        7.221048    1.282975   -0.229113
     12          7           0        2.732389    0.282314   -0.673831
     13          8           0        2.571810    1.320934   -1.311106
     14          8           0        1.847833   -0.528171   -0.406787
     15          6           0       -2.037386    1.087290    0.413919
     16          6           0       -3.163780    1.719736    0.950361
     17          6           0       -4.435648    1.162440    0.788119
     18          6           0       -4.545088   -0.033706    0.080625
     19          6           0       -3.441914   -0.687787   -0.465701
     20          6           0       -2.179796   -0.112338   -0.291157
     21          1           0       -1.053156    1.527263    0.544731
     22          1           0       -3.056183    2.651468    1.498396
     23          1           0       -5.324501    1.630916    1.192952
     24          1           0       -3.580793   -1.615681   -1.007129
     25          1           0       -1.306789   -0.605719   -0.708862
     26          7           0       -5.886396   -0.633300   -0.097644
     27          8           0       -5.956116   -1.687869   -0.725068
     28          8           0       -6.842596   -0.037339    0.393426
 ---------------------------------------------------------------------

 SCF Done:  E(RHF) =  -868.340966505     A.U. after   16 cycles
 E2 =    -0.2598135092D+01 EUMP2 =    -0.87093910159675D+03

 The electronic state is 1-A.
 Alpha  occ. eigenvalues --  -20.61984 -20.61977 -20.59940 -20.59932 -15.86992
 Alpha  occ. eigenvalues --  -15.84981 -11.32013 -11.30116 -11.28539 -11.28533
 Alpha  occ. eigenvalues --  -11.28211 -11.27471 -11.27461 -11.26693 -11.26581
 Alpha  occ. eigenvalues --  -11.26194 -11.25650 -11.25354  -1.61042  -1.59019
 Alpha  occ. eigenvalues --   -1.40601  -1.38579  -1.20152  -1.18235  -1.09612
 Alpha  occ. eigenvalues --   -1.07642  -1.05500  -1.03594  -0.96503  -0.94529
 Alpha  occ. eigenvalues --   -0.86914  -0.84973  -0.83346  -0.81372  -0.78430
 Alpha  occ. eigenvalues --   -0.76473  -0.73227  -0.72337  -0.71250  -0.71204
 Alpha  occ. eigenvalues --   -0.70340  -0.69279  -0.65806  -0.65497  -0.63862
 Alpha  occ. eigenvalues --   -0.63533  -0.62849  -0.60933  -0.56010  -0.54005
 Alpha  occ. eigenvalues --   -0.53848  -0.53584  -0.51953  -0.51649  -0.49991
 Alpha  occ. eigenvalues --   -0.49951  -0.47974  -0.47933  -0.46077  -0.44037
 Alpha  occ. eigenvalues --   -0.38110  -0.37087  -0.36170  -0.35211
 Alpha virt. eigenvalues --    0.04071   0.06031   0.10573   0.12457   0.15642
 Alpha virt. eigenvalues --    0.17612   0.20752   0.22761   0.26695   0.27594
 Alpha virt. eigenvalues --    0.28644   0.29551   0.30397   0.31802   0.32383

 Mulliken charges:
               1
     1  C   -0.169496
     2  C   -0.218532
     3  C   -0.170512
     4  C    0.157041
     5  C   -0.170363
     6  C   -0.218592
     7  H    0.228497
     8  H    0.226101
     9  H    0.275744
    10  H    0.276365
    11  H    0.225922
    12  N    0.490049
    13  O   -0.458865
    14  O   -0.470110
    15  C   -0.172421
    16  C   -0.219565
    17  C   -0.173339
    18  C    0.157855
    19  C   -0.173826
    20  C   -0.224617
    21  H    0.233619
    22  H    0.219104
    23  H    0.271387
    24  H    0.272528
    25  H    0.244543
    26  N    0.488207
    27  O   -0.462871
    28  O   -0.463854
 Sum of Mulliken charges =  -0.00000

 Dipole moment (field-independent basis, Debye):
    X=             10.2813    Y=              1.0442    Z=              2.2932  Tot=             10.5856
 Quadrupole moment (field-independent basis, Debye-Ang):
   XX=           -108.3414   YY=            -99.0535   ZZ=           -104.5633
   XY=            -14.3642   XZ=              2.0861   YZ=              0.3284

 Normal termination of Gaussian 16 at Fri May  7 03:16:14 2021.
