 Gaussian 16, Revision A.03,
 Gaussian 16:  EM64L-G16RevA.03 25-Dec-2016

 -------------
 #p 6-31g* mp2
 -------------

 ------------------------------------------------------
 Input file generated by CHIRIPA (05-May-2021 14:57:21)
 ------------------------------------------------------
 Symbolic Z-matrix:
 Charge =  0 Multiplicity = 1

                         Standard orientation:
 ---------------------------------------------------------------------
 Center     Atomic      Atomic             Coordinates (Angstroms)
 Number     Number       Type             X           Y           Z
 ---------------------------------------------------------------------
      1          6           0        2.064740   -2.344948   -0.977125
      2          6           0        1.324020   -1.498535   -1.808654
      3          6           0        1.284275   -0.122172   -1.566593
      4          6           0        2.000281    0.376127   -0.479247
      5          6           0        2.747457   -0.441367    0.367348
      6          6           0        2.772846   -1.814598    0.106312
      7          1           0        2.090039   -3.412924   -1.172534
      8          1           0        0.773124   -1.907628   -2.650795
      9          1           0        0.718933    0.555866   -2.194345
     10          1           0        3.286381   -0.004226    1.199145
     11          1           0        3.348947   -2.469547    0.753764
     12          7           0        1.965804    1.831563   -0.212944
     13          8           0        2.605248    2.245797    0.751503
     14          8           0        1.299989    2.530541   -0.973705
     15          6           0       -0.219799   -0.742054    2.199008
     16          6           0       -0.525127    0.601189    1.956118
     17          6           0       -1.512929    0.948499    1.029743
     18          6           0       -2.178644   -0.077687    0.361119
     19          6           0       -1.897146   -1.425131    0.581218
     20          6           0       -0.905573   -1.749152    1.511994
     21          1           0        0.549013   -1.002806    2.920348
     22          1           0        0.005832    1.385421    2.488195
     23          1           0       -1.769342    1.980328    0.822384
     24          1           0       -2.443527   -2.184684    0.035356
     25          1           0       -0.670553   -2.793177    1.698601
     26          7           0       -3.226381    0.277667   -0.621922
     27          8           0       -3.798444   -0.645156   -1.197926
     28          8           0       -3.455696    1.472286   -0.797811
 ---------------------------------------------------------------------

 SCF Done:  E(RHF) =  -868.336638633     A.U. after   16 cycles
 E2 =    -0.2607616944D+01 EUMP2 =    -0.87094425557720D+03

 The electronic state is 1-A.
 Alpha  occ. eigenvalues --  -20.61407 -20.61352 -20.60763 -20.60719 -15.86377
 Alpha  occ. eigenvalues --  -15.85796 -11.31597 -11.31101 -11.28215 -11.28124
 Alpha  occ. eigenvalues --  -11.27917 -11.27799 -11.27583 -11.27493 -11.27237
 Alpha  occ. eigenvalues --  -11.27139 -11.26796 -11.26531  -1.60439  -1.59828
 Alpha  occ. eigenvalues --   -1.39999  -1.39378  -1.19817  -1.19294  -1.09220
 Alpha  occ. eigenvalues --   -1.08730  -1.05194  -1.04707  -0.96079  -0.95560
 Alpha  occ. eigenvalues --   -0.86609  -0.86100  -0.82925  -0.82383  -0.77983
 Alpha  occ. eigenvalues --   -0.77422  -0.72620  -0.72013  -0.71785  -0.71164
 Alpha  occ. eigenvalues --   -0.70938  -0.70439  -0.65463  -0.65213  -0.64963
 Alpha  occ. eigenvalues --   -0.64684  -0.62549  -0.62019  -0.55720  -0.55255
 Alpha  occ. eigenvalues --   -0.54491  -0.53292  -0.52777  -0.52059  -0.49399
 Alpha  occ. eigenvalues --   -0.49368  -0.48780  -0.48759  -0.45433  -0.44794
 Alpha  occ. eigenvalues --   -0.38344  -0.37802  -0.36208  -0.35756
 Alpha virt. eigenvalues --    0.04299   0.05268   0.10239   0.11898   0.15931
 Alpha virt. eigenvalues --    0.16690   0.20593   0.21788   0.26529   0.27189
 Alpha virt. eigenvalues --    0.28042   0.28686   0.30508   0.31079   0.31920

 Mulliken charges:
               1
     1  C   -0.171817
     2  C   -0.217245
     3  C   -0.169327
     4  C    0.165867
     5  C   -0.174851
     6  C   -0.220891
     7  H    0.225046
     8  H    0.227856
     9  H    0.280060
    10  H    0.270969
    11  H    0.220488
    12  N    0.488190
    13  O   -0.466460
    14  O   -0.455472
    15  C   -0.164546
    16  C   -0.234974
    17  C   -0.170792
    18  C    0.155405
    19  C   -0.172136
    20  C   -0.213886
    21  H    0.221662
    22  H    0.237188
    23  H    0.284398
    24  H    0.271763
    25  H    0.217468
    26  N    0.486861
    27  O   -0.465180
    28  O   -0.455645
 Sum of Mulliken charges =  -0.00000

 Dipole moment (field-independent basis, Debye):
    X=              3.7826    Y=             -6.1781    Z=              2.3988  Tot=              7.6310
 Quadrupole moment (field-independent basis, Debye-Ang):
   XX=           -120.5545   YY=           -104.3850   ZZ=            -98.8719
   XY=             -7.7219   XZ=             -5.5582   YZ=              1.9821

 Normal termination of Gaussian 16 at Thu May  6 16:09:57 2021.
