 Gaussian 16, Revision A.03,
 Gaussian 16:  EM64L-G16RevA.03 25-Dec-2016

 -------------
 #p 6-31g* mp2
 -------------

 ------------------------------------------------------
 Input file generated by CHIRIPA (05-May-2021 14:53:12)
 ------------------------------------------------------
 Symbolic Z-matrix:
 Charge =  0 Multiplicity = 1

                         Standard orientation:
 ---------------------------------------------------------------------
 Center     Atomic      Atomic             Coordinates (Angstroms)
 Number     Number       Type             X           Y           Z
 ---------------------------------------------------------------------
      1          6           0        3.773321   -0.457003    0.481969
      2          6           0        4.371051   -1.622052   -0.307565
      3          6           0        4.542932   -2.883524    0.539158
      4          1           0        4.418492   -0.236951    1.343524
      5          1           0        2.799579   -0.761166    0.890265
      6          1           0        5.342746   -1.315318   -0.715410
      7          1           0        3.724483   -1.839231   -1.167449
      8          1           0        3.577845   -3.216631    0.934441
      9          1           0        5.205304   -2.689741    1.389048
     10          1           0        4.971663   -3.703791   -0.044976
     11          6           0        3.595386    0.811219   -0.350906
     12          6           0        2.997656    1.976269    0.438628
     13          6           0        2.825775    3.237741   -0.408096
     14          1           0        4.569128    1.115383   -0.759203
     15          1           0        2.950215    0.591168   -1.212461
     16          1           0        3.644224    2.193447    1.298511
     17          1           0        2.025960    1.669535    0.846473
     18          1           0        2.163403    3.043958   -1.257986
     19          1           0        3.790861    3.570848   -0.803379
     20          1           0        2.397044    4.058007    0.176038
     21          6           0       -5.361858   -0.231091    0.384427
     22          6           0       -4.859094   -0.570580   -0.875928
     23          6           0       -3.484893   -0.522822   -1.128592
     24          6           0       -2.638310   -0.129402   -0.093311
     25          6           0       -3.108715    0.214846    1.172984
     26          6           0       -4.486607    0.159849    1.403065
     27          1           0       -6.430803   -0.271002    0.571931
     28          1           0       -5.536471   -0.874552   -1.668901
     29          1           0       -3.068748   -0.780344   -2.094989
     30          1           0       -2.408668    0.514043    1.943590
     31          1           0       -4.874238    0.424057    2.382852
     32          7           0       -1.181551   -0.075010   -0.348842
     33          8           0       -0.456651    0.274815    0.580018
     34          8           0       -0.792227   -0.383234   -1.473146
 ---------------------------------------------------------------------

 SCF Done:  E(RHF) =  -669.536765351     A.U. after   15 cycles
 E2 =    -0.2091417098D+01 EUMP2 =    -0.67162818244877D+03

 The electronic state is 1-A.
 Alpha  occ. eigenvalues --  -20.61132 -20.61119 -15.86144 -11.31398 -11.27951
 Alpha  occ. eigenvalues --  -11.27948 -11.27677 -11.26943 -11.26933 -11.20358
 Alpha  occ. eigenvalues --  -11.20077 -11.19876 -11.19858 -11.19742 -11.19728
 Alpha  occ. eigenvalues --   -1.60176  -1.39734  -1.19558  -1.08976  -1.06923
 Alpha  occ. eigenvalues --   -1.04944  -1.02153  -0.95828  -0.94642  -0.86348
 Alpha  occ. eigenvalues --   -0.85669  -0.82665  -0.78222  -0.77725  -0.76719
 Alpha  occ. eigenvalues --   -0.72367  -0.71481  -0.70666  -0.65216  -0.64948
 Alpha  occ. eigenvalues --   -0.63517  -0.62291  -0.59533  -0.58030  -0.56257
 Alpha  occ. eigenvalues --   -0.55451  -0.53921  -0.53279  -0.53035  -0.51398
 Alpha  occ. eigenvalues --   -0.51083  -0.49166  -0.49120  -0.48552  -0.46556
 Alpha  occ. eigenvalues --   -0.45314  -0.45043  -0.44283  -0.44074  -0.42378
 Alpha  occ. eigenvalues --   -0.37533  -0.36541
 Alpha virt. eigenvalues --    0.04789   0.11115   0.16295   0.21245   0.24371
 Alpha virt. eigenvalues --    0.25616   0.27180   0.27933   0.28341   0.29004
 Alpha virt. eigenvalues --    0.29283   0.30849   0.32339   0.32680   0.33067

 Mulliken charges:
               1
     1  C   -0.300760
     2  C   -0.299491
     3  C   -0.474814
     4  H    0.142328
     5  H    0.162291
     6  H    0.147246
     7  H    0.155444
     8  H    0.154932
     9  H    0.151933
    10  H    0.155988
    11  C   -0.296632
    12  C   -0.308740
    13  C   -0.474980
    14  H    0.140674
    15  H    0.159645
    16  H    0.142225
    17  H    0.177319
    18  H    0.157275
    19  H    0.149090
    20  H    0.153614
    21  C   -0.170336
    22  C   -0.218614
    23  C   -0.170341
    24  C    0.157454
    25  C   -0.170602
    26  C   -0.218561
    27  H    0.226406
    28  H    0.224189
    29  H    0.276017
    30  H    0.275963
    31  H    0.224236
    32  N    0.491432
    33  O   -0.462780
    34  O   -0.459049
 Sum of Mulliken charges =  -0.00000

 Dipole moment (field-independent basis, Debye):
    X=             -5.6312    Y=             -0.2797    Z=              0.8704  Tot=              5.7049
 Quadrupole moment (field-independent basis, Debye-Ang):
   XX=            -68.9761   YY=            -96.9700   ZZ=            -90.7506
   XY=              1.7062   XZ=             -1.1212   YZ=              2.2197

 Normal termination of Gaussian 16 at Wed May  5 15:28:40 2021.
