 Gaussian 16, Revision A.03,
 Gaussian 16:  EM64L-G16RevA.03 25-Dec-2016

 -------------
 #p 6-31g* mp2
 -------------

 ------------------------------------------------------
 Input file generated by CHIRIPA (05-May-2021 14:53:13)
 ------------------------------------------------------
 Symbolic Z-matrix:
 Charge =  0 Multiplicity = 1

                         Standard orientation:
 ---------------------------------------------------------------------
 Center     Atomic      Atomic             Coordinates (Angstroms)
 Number     Number       Type             X           Y           Z
 ---------------------------------------------------------------------
      1          6           0       -3.660271   -0.408108    0.319308
      2          6           0       -3.092262   -1.638925   -0.388112
      3          6           0       -3.506903   -2.949490    0.281430
      4          1           0       -3.326846   -0.408249    1.366100
      5          1           0       -4.756573   -0.479308    0.340452
      6          1           0       -1.997423   -1.564751   -0.409137
      7          1           0       -3.426920   -1.635753   -1.433391
      8          1           0       -4.597051   -3.050082    0.289148
      9          1           0       -3.159431   -2.978677    1.319222
     10          1           0       -3.089893   -3.816428   -0.240473
     11          6           0       -3.254533    0.909709   -0.338311
     12          6           0       -3.822542    2.140525    0.369109
     13          6           0       -3.407901    3.451091   -0.300432
     14          1           0       -2.158231    0.980909   -0.359454
     15          1           0       -3.587957    0.909849   -1.385102
     16          1           0       -3.487883    2.137353    1.414389
     17          1           0       -4.917381    2.066351    0.390135
     18          1           0       -3.755373    3.480277   -1.338225
     19          1           0       -2.317753    3.551682   -0.308151
     20          1           0       -3.824911    4.318028    0.221470
     21          6           0        4.956793    0.929605    0.111842
     22          6           0        4.434161    0.522131   -1.119962
     23          6           0        3.185335   -0.102459   -1.189738
     24          6           0        2.483022   -0.304751   -0.002672
     25          6           0        2.976918    0.089837    1.239768
     26          6           0        4.227789    0.712540    1.285707
     27          1           0        5.927706    1.414069    0.156787
     28          1           0        4.998094    0.689413   -2.033220
     29          1           0        2.757068   -0.427960   -2.129980
     30          1           0        2.391358   -0.090537    2.133078
     31          1           0        4.631192    1.027937    2.243744
     32          7           0        1.159864   -0.964977   -0.063922
     33          8           0        0.560884   -1.131699    0.996296
     34          8           0        0.746806   -1.303240   -1.170990
 ---------------------------------------------------------------------

 SCF Done:  E(RHF) =  -669.537130824     A.U. after   15 cycles
 E2 =    -0.2092218407D+01 EUMP2 =    -0.67162934923029D+03

 The electronic state is 1-A.
 Alpha  occ. eigenvalues --  -20.61223 -20.61210 -15.86198 -11.31442 -11.27986
 Alpha  occ. eigenvalues --  -11.27981 -11.27707 -11.26970 -11.26960 -11.20720
 Alpha  occ. eigenvalues --  -11.20428 -11.20179 -11.19889 -11.19533 -11.19436
 Alpha  occ. eigenvalues --   -1.60245  -1.39801  -1.19594  -1.09016  -1.07093
 Alpha  occ. eigenvalues --   -1.04975  -1.02195  -0.95869  -0.94726  -0.86379
 Alpha  occ. eigenvalues --   -0.85755  -0.82705  -0.78324  -0.77774  -0.76798
 Alpha  occ. eigenvalues --   -0.72392  -0.71543  -0.70701  -0.65248  -0.64979
 Alpha  occ. eigenvalues --   -0.63721  -0.62321  -0.59587  -0.58151  -0.56299
 Alpha  occ. eigenvalues --   -0.55482  -0.54029  -0.53312  -0.53064  -0.51469
 Alpha  occ. eigenvalues --   -0.51143  -0.49312  -0.49168  -0.48655  -0.46610
 Alpha  occ. eigenvalues --   -0.45331  -0.45226  -0.44381  -0.44054  -0.42459
 Alpha  occ. eigenvalues --   -0.37567  -0.36570
 Alpha virt. eigenvalues --    0.04744   0.11087   0.16263   0.21229   0.24075
 Alpha virt. eigenvalues --    0.25653   0.27161   0.27863   0.28187   0.28844
 Alpha virt. eigenvalues --    0.29161   0.30841   0.32348   0.32622   0.32973

 Mulliken charges:
               1
     1  C   -0.296330
     2  C   -0.312999
     3  C   -0.473942
     4  H    0.150227
     5  H    0.141708
     6  H    0.187617
     7  H    0.142780
     8  H    0.145900
     9  H    0.155299
    10  H    0.157923
    11  C   -0.296632
    12  C   -0.298757
    13  C   -0.474411
    14  H    0.151788
    15  H    0.146541
    16  H    0.150439
    17  H    0.149671
    18  H    0.153932
    19  H    0.152289
    20  H    0.156621
    21  C   -0.170205
    22  C   -0.218611
    23  C   -0.170517
    24  C    0.160095
    25  C   -0.170681
    26  C   -0.218619
    27  H    0.226594
    28  H    0.224434
    29  H    0.276355
    30  H    0.276037
    31  H    0.224375
    32  N    0.487840
    33  O   -0.459371
    34  O   -0.457387
 Sum of Mulliken charges =  -0.00000

 Dipole moment (field-independent basis, Debye):
    X=              5.1966    Y=              2.2533    Z=              0.2147  Tot=              5.6682
 Quadrupole moment (field-independent basis, Debye-Ang):
   XX=            -73.0073   YY=            -98.8266   ZZ=            -89.6049
   XY=              4.2763   XZ=              0.5729   YZ=              0.8307

 Normal termination of Gaussian 16 at Wed May  5 17:03:56 2021.
