 Gaussian 16, Revision A.03,
 Gaussian 16:  EM64L-G16RevA.03 25-Dec-2016

 -------------
 #p 6-31g* mp2
 -------------

 ------------------------------------------------------
 Input file generated by CHIRIPA (05-May-2021 14:53:12)
 ------------------------------------------------------
 Symbolic Z-matrix:
 Charge =  0 Multiplicity = 1

                         Standard orientation:
 ---------------------------------------------------------------------
 Center     Atomic      Atomic             Coordinates (Angstroms)
 Number     Number       Type             X           Y           Z
 ---------------------------------------------------------------------
      1          6           0       -3.853017    0.662841   -0.449705
      2          6           0       -3.705641    1.909404    0.423419
      3          6           0       -4.494086    3.104129   -0.113966
      4          1           0       -3.518448    0.895845   -1.469861
      5          1           0       -4.917042    0.398358   -0.522463
      6          1           0       -2.642085    2.170648    0.495641
      7          1           0       -4.040420    1.673351    1.441661
      8          1           0       -5.561579    2.867589   -0.169719
      9          1           0       -4.155299    3.367711   -1.121115
     10          1           0       -4.374583    3.984360    0.525387
     11          6           0       -3.070593   -0.539951    0.074539
     12          6           0       -3.217969   -1.786515   -0.798584
     13          6           0       -2.429524   -2.981239   -0.261200
     14          1           0       -2.006568   -0.275469    0.147297
     15          1           0       -3.405162   -0.772956    1.094695
     16          1           0       -2.883190   -1.550462   -1.816827
     17          1           0       -4.281525   -2.047759   -0.870806
     18          1           0       -2.768311   -3.244822    0.745949
     19          1           0       -1.362031   -2.744699   -0.205447
     20          1           0       -2.549027   -3.861471   -0.900553
     21          6           0        0.967125   -1.554710    1.184415
     22          6           0        1.502419   -0.492648    1.920624
     23          6           0        2.465620    0.348578    1.355707
     24          6           0        2.872501    0.097659    0.046212
     25          6           0        2.358027   -0.952273   -0.712898
     26          6           0        1.395882   -1.780734   -0.127684
     27          1           0        0.219297   -2.203237    1.631139
     28          1           0        1.171318   -0.314735    2.939822
     29          1           0        2.896660    1.178050    1.903062
     30          1           0        2.707867   -1.104555   -1.726722
     31          1           0        0.981909   -2.604786   -0.701802
     32          7           0        3.891641    0.981471   -0.562584
     33          8           0        4.233402    0.739245   -1.718077
     34          8           0        4.329382    1.899693    0.127261
 ---------------------------------------------------------------------

 SCF Done:  E(RHF) =  -669.534887813     A.U. after   15 cycles
 E2 =    -0.2092774641D+01 EUMP2 =    -0.67162766245359D+03

 The electronic state is 1-A.
 Alpha  occ. eigenvalues --  -20.60796 -20.60791 -15.85851 -11.31227 -11.27801
 Alpha  occ. eigenvalues --  -11.27797 -11.27514 -11.26806 -11.26795 -11.22358
 Alpha  occ. eigenvalues --  -11.22145 -11.21985 -11.21970 -11.21817 -11.21339
 Alpha  occ. eigenvalues --   -1.59872  -1.39425  -1.19407  -1.09005  -1.08792
 Alpha  occ. eigenvalues --   -1.04812  -1.04134  -0.96609  -0.95627  -0.87637
 Alpha  occ. eigenvalues --   -0.86209  -0.82457  -0.80217  -0.78783  -0.77506
 Alpha  occ. eigenvalues --   -0.72069  -0.71196  -0.70516  -0.65656  -0.65058
 Alpha  occ. eigenvalues --   -0.64832  -0.62206  -0.61481  -0.59983  -0.58197
 Alpha  occ. eigenvalues --   -0.55906  -0.55296  -0.53300  -0.53169  -0.53044
 Alpha  occ. eigenvalues --   -0.52856  -0.50545  -0.48827  -0.48823  -0.48514
 Alpha  occ. eigenvalues --   -0.47223  -0.46332  -0.46218  -0.44828  -0.44359
 Alpha  occ. eigenvalues --   -0.37336  -0.36408
 Alpha virt. eigenvalues --    0.05011   0.11122   0.16466   0.20542   0.22581
 Alpha virt. eigenvalues --    0.24012   0.25914   0.26255   0.26984   0.27482
 Alpha virt. eigenvalues --    0.29423   0.30264   0.30887   0.31419   0.31920

 Mulliken charges:
               1
     1  C   -0.298504
     2  C   -0.300366
     3  C   -0.476064
     4  H    0.151851
     5  H    0.150268
     6  H    0.153339
     7  H    0.150586
     8  H    0.155369
     9  H    0.156955
    10  H    0.161467
    11  C   -0.303279
    12  C   -0.298219
    13  C   -0.483439
    14  H    0.153381
    15  H    0.146893
    16  H    0.154297
    17  H    0.155122
    18  H    0.154843
    19  H    0.148686
    20  H    0.163636
    21  C   -0.169927
    22  C   -0.219918
    23  C   -0.170912
    24  C    0.158126
    25  C   -0.171554
    26  C   -0.221757
    27  H    0.229904
    28  H    0.224124
    29  H    0.275808
    30  H    0.275830
    31  H    0.225966
    32  N    0.488095
    33  O   -0.460327
    34  O   -0.460279
 Sum of Mulliken charges =  -0.00000

 Dipole moment (field-independent basis, Debye):
    X=             -3.6598    Y=             -3.0425    Z=              2.1174  Tot=              5.2091
 Quadrupole moment (field-independent basis, Debye-Ang):
   XX=           -115.5155   YY=            -95.3262   ZZ=            -90.8513
   XY=             -8.6112   XZ=              5.8596   YZ=              2.7604

 Normal termination of Gaussian 16 at Thu May  6 07:15:39 2021.
