 Gaussian 16, Revision A.03,
 Gaussian 16:  EM64L-G16RevA.03 25-Dec-2016

 -------------
 #p 6-31g* mp2
 -------------

 ------------------------------------------------------
 Input file generated by CHIRIPA (05-May-2021 14:57:21)
 ------------------------------------------------------
 Symbolic Z-matrix:
 Charge =  0 Multiplicity = 1

                         Standard orientation:
 ---------------------------------------------------------------------
 Center     Atomic      Atomic             Coordinates (Angstroms)
 Number     Number       Type             X           Y           Z
 ---------------------------------------------------------------------
      1          6           0       -4.873668   -1.201368   -1.171293
      2          6           0       -4.642393    0.103752   -1.618164
      3          6           0       -3.764839    0.945431   -0.928219
      4          6           0       -3.132663    0.447112    0.209903
      5          6           0       -3.342361   -0.848340    0.680139
      6          6           0       -4.224059   -1.672418   -0.025587
      7          1           0       -5.556983   -1.848369   -1.713389
      8          1           0       -5.145496    0.472257   -2.507622
      9          1           0       -3.567504    1.960110   -1.252106
     10          1           0       -2.826180   -1.187422    1.570082
     11          1           0       -4.401754   -2.685541    0.323772
     12          7           0       -2.201442    1.328844    0.948671
     13          8           0       -1.656873    0.865963    1.948582
     14          8           0       -2.033753    2.466129    0.513817
     15          6           0        5.319535    1.069461   -0.680503
     16          6           0        4.064527    1.680724   -0.592008
     17          6           0        2.931006    0.930760   -0.264543
     18          6           0        3.089558   -0.434360   -0.030878
     19          6           0        4.326430   -1.072298   -0.111344
     20          6           0        5.446258   -0.302680   -0.440312
     21          1           0        6.194764    1.659686   -0.935469
     22          1           0        3.963125    2.746164   -0.778021
     23          1           0        1.947486    1.378460   -0.189235
     24          1           0        4.396038   -2.136308    0.079584
     25          1           0        6.419664   -0.780069   -0.508325
     26          7           0        1.896798   -1.238717    0.316589
     27          8           0        2.063055   -2.439761    0.517805
     28          8           0        0.818241   -0.652896    0.381141
 ---------------------------------------------------------------------

 SCF Done:  E(RHF) =  -868.338606249     A.U. after   16 cycles
 E2 =    -0.2599587568D+01 EUMP2 =    -0.87093819381670D+03

 The electronic state is 1-A.
 Alpha  occ. eigenvalues --  -20.60345 -20.60274 -20.59913 -20.59776 -15.85352
 Alpha  occ. eigenvalues --  -15.84885 -11.30688 -11.30254 -11.27307 -11.27187
 Alpha  occ. eigenvalues --  -11.27042 -11.26916 -11.26771 -11.26662 -11.26323
 Alpha  occ. eigenvalues --  -11.26246 -11.25949 -11.25850  -1.59384  -1.58899
 Alpha  occ. eigenvalues --   -1.38935  -1.38453  -1.18871  -1.18448  -1.08282
 Alpha  occ. eigenvalues --   -1.07854  -1.04266  -1.03866  -0.95117  -0.94687
 Alpha  occ. eigenvalues --   -0.85669  -0.85267  -0.81951  -0.81527  -0.76989
 Alpha  occ. eigenvalues --   -0.76553  -0.71645  -0.71130  -0.70696  -0.70138
 Alpha  occ. eigenvalues --   -0.69967  -0.69593  -0.64526  -0.64276  -0.64120
 Alpha  occ. eigenvalues --   -0.63898  -0.61601  -0.61216  -0.54795  -0.54412
 Alpha  occ. eigenvalues --   -0.52608  -0.52357  -0.52182  -0.51977  -0.48364
 Alpha  occ. eigenvalues --   -0.48341  -0.47907  -0.47854  -0.44396  -0.43777
 Alpha  occ. eigenvalues --   -0.36872  -0.36441  -0.35870  -0.35459
 Alpha virt. eigenvalues --    0.05512   0.06045   0.11782   0.12194   0.17014
 Alpha virt. eigenvalues --    0.17483   0.21903   0.22222   0.27834   0.28122
 Alpha virt. eigenvalues --    0.28795   0.29152   0.31416   0.31731   0.33118

 Mulliken charges:
               1
     1  C   -0.171151
     2  C   -0.219308
     3  C   -0.172215
     4  C    0.161455
     5  C   -0.162168
     6  C   -0.219243
     7  H    0.222329
     8  H    0.219221
     9  H    0.271190
    10  H    0.280862
    11  H    0.222471
    12  N    0.490593
    13  O   -0.450696
    14  O   -0.472794
    15  C   -0.170973
    16  C   -0.219426
    17  C   -0.171004
    18  C    0.157647
    19  C   -0.171503
    20  C   -0.219072
    21  H    0.224096
    22  H    0.224664
    23  H    0.284297
    24  H    0.273565
    25  H    0.221373
    26  N    0.489150
    27  O   -0.465892
    28  O   -0.457469
 Sum of Mulliken charges =  -0.00000

 Dipole moment (field-independent basis, Debye):
    X=              0.9902    Y=             -0.3165    Z=             -3.6325  Tot=              3.7783
 Quadrupole moment (field-independent basis, Debye-Ang):
   XX=            -59.2391   YY=           -105.0556   ZZ=           -104.9859
   XY=             12.7728   XZ=              4.0756   YZ=             -4.5524

 Normal termination of Gaussian 16 at Wed May  5 17:45:12 2021.
