 Gaussian 16, Revision A.03,
 Gaussian 16:  EM64L-G16RevA.03 25-Dec-2016

 -------------
 #p 6-31g* mp2
 -------------

 ------------------------------------------------------
 Input file generated by CHIRIPA (05-May-2021 14:53:12)
 ------------------------------------------------------
 Symbolic Z-matrix:
 Charge =  0 Multiplicity = 1

                         Standard orientation:
 ---------------------------------------------------------------------
 Center     Atomic      Atomic             Coordinates (Angstroms)
 Number     Number       Type             X           Y           Z
 ---------------------------------------------------------------------
      1          6           0       -3.135246    0.705433    0.093228
      2          6           0       -2.276881    1.961472   -0.060267
      3          6           0       -2.827245    3.153064    0.723954
      4          1           0       -4.158433    0.925168   -0.241062
      5          1           0       -3.203690    0.444467    1.158407
      6          1           0       -2.208935    2.219195   -1.124964
      7          1           0       -1.255571    1.738667    0.274247
      8          1           0       -2.879007    2.920251    1.792467
      9          1           0       -3.837787    3.403510    0.385306
     10          1           0       -2.198333    4.040189    0.600103
     11          6           0       -2.597921   -0.494354   -0.684924
     12          6           0       -3.456286   -1.750393   -0.531429
     13          6           0       -2.905922   -2.941985   -1.315649
     14          1           0       -2.529477   -0.233388   -1.750103
     15          1           0       -1.574734   -0.714090   -0.350634
     16          1           0       -4.477596   -1.527588   -0.865943
     17          1           0       -3.524232   -2.008116    0.533268
     18          1           0       -1.895380   -3.192431   -0.977002
     19          1           0       -2.854160   -2.709172   -2.384162
     20          1           0       -3.534834   -3.829110   -1.191798
     21          6           0        1.184628   -1.297902    2.174276
     22          6           0        2.139299   -1.942249    1.380587
     23          6           0        2.730358   -1.278513    0.301397
     24          6           0        2.341501    0.035052    0.043275
     25          6           0        1.393232    0.704059    0.815612
     26          6           0        0.815292    0.020871    1.889757
     27          1           0        0.730575   -1.821064    3.010657
     28          1           0        2.428061   -2.966392    1.599204
     29          1           0        3.471984   -1.753496   -0.329317
     30          1           0        1.125727    1.725327    0.572978
     31          1           0        0.074151    0.523779    2.504442
     32          7           0        2.960284    0.748017   -1.096545
     33          8           0        2.600523    1.904973   -1.303091
     34          8           0        3.793331    0.136382   -1.761807
 ---------------------------------------------------------------------

 SCF Done:  E(RHF) =  -669.534937397     A.U. after   15 cycles
 E2 =    -0.2093414120D+01 EUMP2 =    -0.67162835151685D+03

 The electronic state is 1-A.
 Alpha  occ. eigenvalues --  -20.60811 -20.60805 -15.85867 -11.31269 -11.27848
 Alpha  occ. eigenvalues --  -11.27845 -11.27609 -11.26887 -11.26865 -11.21978
 Alpha  occ. eigenvalues --  -11.21872 -11.21753 -11.21558 -11.21475 -11.21305
 Alpha  occ. eigenvalues --   -1.59885  -1.39437  -1.19463  -1.08846  -1.08743
 Alpha  occ. eigenvalues --   -1.04879  -1.03857  -0.96294  -0.95672  -0.87310
 Alpha  occ. eigenvalues --   -0.86261  -0.82510  -0.79929  -0.78557  -0.77534
 Alpha  occ. eigenvalues --   -0.72085  -0.71209  -0.70571  -0.65436  -0.65096
 Alpha  occ. eigenvalues --   -0.64868  -0.62282  -0.61212  -0.59655  -0.57899
 Alpha  occ. eigenvalues --   -0.55597  -0.55362  -0.53236  -0.52982  -0.52950
 Alpha  occ. eigenvalues --   -0.52706  -0.50243  -0.48847  -0.48838  -0.48227
 Alpha  occ. eigenvalues --   -0.46973  -0.46077  -0.46007  -0.44832  -0.44092
 Alpha  occ. eigenvalues --   -0.37438  -0.36405
 Alpha virt. eigenvalues --    0.04954   0.11141   0.16335   0.20165   0.22868
 Alpha virt. eigenvalues --    0.23817   0.25997   0.26470   0.27650   0.28080
 Alpha virt. eigenvalues --    0.28689   0.30090   0.31359   0.31513   0.32352

 Mulliken charges:
               1
     1  C   -0.296926
     2  C   -0.304768
     3  C   -0.476426
     4  H    0.151847
     5  H    0.143061
     6  H    0.159521
     7  H    0.146075
     8  H    0.149880
     9  H    0.158489
    10  H    0.162985
    11  C   -0.303105
    12  C   -0.299054
    13  C   -0.475802
    14  H    0.152830
    15  H    0.153607
    16  H    0.152851
    17  H    0.147934
    18  H    0.154032
    19  H    0.157822
    20  H    0.159831
    21  C   -0.171656
    22  C   -0.218672
    23  C   -0.170913
    24  C    0.157791
    25  C   -0.170723
    26  C   -0.217784
    27  H    0.226207
    28  H    0.224024
    29  H    0.276134
    30  H    0.277872
    31  H    0.224934
    32  N    0.488190
    33  O   -0.459858
    34  O   -0.460229
 Sum of Mulliken charges =  -0.00000

 Dipole moment (field-independent basis, Debye):
    X=             -2.1346    Y=             -2.5053    Z=              3.9168  Tot=              5.1161
 Quadrupole moment (field-independent basis, Debye-Ang):
   XX=           -103.7898   YY=            -92.6208   ZZ=            -94.3928
   XY=             -8.6365   XZ=              9.6280   YZ=              0.0851

 Normal termination of Gaussian 16 at Thu May  6 18:41:29 2021.
