 Gaussian 16, Revision A.03,
 Gaussian 16:  EM64L-G16RevA.03 25-Dec-2016

 -------------
 #p 6-31g* mp2
 -------------

 ------------------------------------------------------
 Input file generated by CHIRIPA (05-May-2021 14:55:21)
 ------------------------------------------------------
 Symbolic Z-matrix:
 Charge =  0 Multiplicity = 1

                         Standard orientation:
 ---------------------------------------------------------------------
 Center     Atomic      Atomic             Coordinates (Angstroms)
 Number     Number       Type             X           Y           Z
 ---------------------------------------------------------------------
      1          6           0        0.717918   -2.389800   -0.039858
      2          6           0        0.530854   -1.305708    0.824012
      3          6           0        1.494154   -0.296677    0.915980
      4          6           0        2.637730   -0.404080    0.126051
      5          6           0        2.852970   -1.471690   -0.744104
      6          6           0        1.876337   -2.469192   -0.819784
      7          1           0       -0.035575   -3.169162   -0.104974
      8          1           0       -0.367811   -1.241433    1.430902
      9          1           0        1.374802    0.553619    1.576411
     10          1           0        3.759118   -1.508179   -1.336541
     11          1           0        2.024283   -3.309957   -1.491551
     12          7           0        3.664590    0.658033    0.214792
     13          8           0        4.663373    0.540123   -0.491725
     14          8           0        3.451216    1.588316    0.989183
     15          6           0       -2.563434    1.137028    0.124440
     16          6           0       -1.948967    2.080045   -0.910515
     17          6           0       -0.757188    2.864778   -0.361288
     18          1           0       -2.878793    1.719902    1.000654
     19          1           0       -1.792720    0.436975    0.475614
     20          1           0       -2.720959    2.777218   -1.260652
     21          1           0       -1.635208    1.494883   -1.784447
     22          1           0        0.032740    2.183329   -0.029264
     23          1           0       -1.059180    3.472950    0.497508
     24          1           0       -0.333307    3.532645   -1.117687
     25          6           0       -3.755903    0.345543   -0.409690
     26          6           0       -4.370370   -0.597475    0.625266
     27          6           0       -5.562149   -1.382208    0.076038
     28          1           0       -4.526617    1.045595   -0.760864
     29          1           0       -3.440543   -0.237332   -1.285903
     30          1           0       -4.684129   -0.012313    1.499198
     31          1           0       -3.598379   -1.294649    0.975402
     32          1           0       -5.260157   -1.990379   -0.782757
     33          1           0       -6.352078   -0.700758   -0.255985
     34          1           0       -5.986030   -2.050075    0.832438
 ---------------------------------------------------------------------

 SCF Done:  E(RHF) =  -669.534770193     A.U. after   15 cycles
 E2 =    -0.2093634518D+01 EUMP2 =    -0.67162840471033D+03

 The electronic state is 1-A.
 Alpha  occ. eigenvalues --  -20.60821 -20.60814 -15.85872 -11.31281 -11.27846
 Alpha  occ. eigenvalues --  -11.27841 -11.27591 -11.26868 -11.26852 -11.22304
 Alpha  occ. eigenvalues --  -11.21934 -11.21869 -11.21812 -11.21667 -11.21107
 Alpha  occ. eigenvalues --   -1.59892  -1.39444  -1.19461  -1.08932  -1.08836
 Alpha  occ. eigenvalues --   -1.04873  -1.03948  -0.96384  -0.95668  -0.87402
 Alpha  occ. eigenvalues --   -0.86258  -0.82506  -0.80032  -0.78773  -0.77529
 Alpha  occ. eigenvalues --   -0.72088  -0.71215  -0.70559  -0.65632  -0.65106
 Alpha  occ. eigenvalues --   -0.64840  -0.62233  -0.61332  -0.59766  -0.58002
 Alpha  occ. eigenvalues --   -0.55689  -0.55359  -0.53205  -0.53083  -0.53043
 Alpha  occ. eigenvalues --   -0.52681  -0.50323  -0.48856  -0.48842  -0.48336
 Alpha  occ. eigenvalues --   -0.47086  -0.46271  -0.46194  -0.44830  -0.44210
 Alpha  occ. eigenvalues --   -0.37426  -0.36401
 Alpha virt. eigenvalues --    0.04954   0.11012   0.16339   0.19893   0.22862
 Alpha virt. eigenvalues --    0.23726   0.24949   0.26553   0.26774   0.28432
 Alpha virt. eigenvalues --    0.29418   0.30734   0.31282   0.31458   0.31844

 Mulliken charges:
               1
     1  C   -0.172563
     2  C   -0.218545
     3  C   -0.171788
     4  C    0.158718
     5  C   -0.170676
     6  C   -0.218238
     7  H    0.226064
     8  H    0.226471
     9  H    0.277494
    10  H    0.276057
    11  H    0.223913
    12  N    0.488504
    13  O   -0.460047
    14  O   -0.460030
    15  C   -0.303173
    16  C   -0.299150
    17  C   -0.479443
    18  H    0.150317
    19  H    0.144474
    20  H    0.153078
    21  H    0.152585
    22  H    0.156566
    23  H    0.155384
    24  H    0.165090
    25  C   -0.298204
    26  C   -0.298563
    27  C   -0.475772
    28  H    0.152763
    29  H    0.149143
    30  H    0.154364
    31  H    0.141730
    32  H    0.154379
    33  H    0.158238
    34  H    0.160857
 Sum of Mulliken charges =  -0.00000

 Dipole moment (field-independent basis, Debye):
    X=             -3.5918    Y=             -3.6900    Z=             -0.3747  Tot=              5.1631
 Quadrupole moment (field-independent basis, Debye-Ang):
   XX=           -112.8095   YY=            -90.6911   ZZ=            -92.9604
   XY=            -11.1551   XZ=             -3.7777   YZ=              1.6100

 Normal termination of Gaussian 16 at Thu May  6 12:31:02 2021.
