 Gaussian 16, Revision A.03,
 Gaussian 16:  EM64L-G16RevA.03 25-Dec-2016

 -------------
 #p 6-31g* mp2
 -------------

 ------------------------------------------------------
 Input file generated by CHIRIPA (05-May-2021 14:51:13)
 ------------------------------------------------------
 Symbolic Z-matrix:
 Charge =  0 Multiplicity = 1

                         Standard orientation:
 ---------------------------------------------------------------------
 Center     Atomic      Atomic             Coordinates (Angstroms)
 Number     Number       Type             X           Y           Z
 ---------------------------------------------------------------------
      1          6           0        2.367560    0.566267   -0.028968
      2          6           0        3.377106    1.508218   -0.685878
      3          6           0        2.852605    2.938415   -0.817145
      4          1           0        1.439722    0.565520   -0.617236
      5          1           0        2.107002    0.954943    0.965233
      6          1           0        3.636731    1.117147   -1.677983
      7          1           0        4.302717    1.506576   -0.096083
      8          1           0        2.611124    3.352058    0.167328
      9          1           0        1.941355    2.960416   -1.423560
     10          1           0        3.590246    3.594794   -1.289280
     11          6           0        2.877395   -0.867151    0.109267
     12          6           0        1.867850   -1.809102    0.766177
     13          6           0        2.392350   -3.239299    0.897444
     14          1           0        3.137954   -1.255827   -0.884934
     15          1           0        3.805234   -0.866404    0.697535
     16          1           0        0.942239   -1.807461    0.176382
     17          1           0        1.608224   -1.418031    1.758282
     18          1           0        3.303600   -3.261301    1.503859
     19          1           0        2.633831   -3.652943   -0.087029
     20          1           0        1.654709   -3.895678    1.369579
     21          6           0       -3.022509   -0.480905   -0.197655
     22          6           0       -2.149400   -1.660963   -0.625592
     23          6           0       -2.964113   -2.916700   -0.937297
     24          1           0       -3.608657   -0.768149    0.686012
     25          1           0       -3.746140   -0.261124   -0.994805
     26          1           0       -1.426719   -1.877566    0.171548
     27          1           0       -1.565120   -1.370812   -1.508227
     28          1           0       -3.674316   -2.723790   -1.747851
     29          1           0       -3.535129   -3.233423   -0.058531
     30          1           0       -2.320166   -3.747898   -1.241108
     31          6           0       -2.222447    0.781790    0.117356
     32          6           0       -3.095555    1.961847    0.545293
     33          6           0       -2.280842    3.217584    0.856997
     34          1           0       -1.498816    0.562008    0.914507
     35          1           0       -1.636299    1.069033   -0.766310
     36          1           0       -3.679836    1.671696    1.427928
     37          1           0       -3.818237    2.178451   -0.251846
     38          1           0       -1.709827    3.534307   -0.021768
     39          1           0       -1.570640    3.024674    1.667552
     40          1           0       -2.924790    4.048783    1.160809
 ---------------------------------------------------------------------

 SCF Done:  E(RHF) =  -470.733249012     A.U. after   11 cycles
 E2 =    -0.1583653121D+01 EUMP2 =    -0.47231690213331D+03

 The electronic state is 1-A.
 Alpha  occ. eigenvalues --  -11.21617 -11.21597 -11.21569 -11.21522 -11.21411
 Alpha  occ. eigenvalues --  -11.21356 -11.21349 -11.21295 -11.21096 -11.21052
 Alpha  occ. eigenvalues --  -11.21049 -11.21044  -1.08452  -1.08377  -1.03552
 Alpha  occ. eigenvalues --   -1.03482  -0.95987  -0.95941  -0.87009  -0.86952
 Alpha  occ. eigenvalues --   -0.79703  -0.79477  -0.78402  -0.78052  -0.65083
 Alpha  occ. eigenvalues --   -0.65012  -0.60993  -0.60853  -0.59412  -0.59256
 Alpha  occ. eigenvalues --   -0.57652  -0.57498  -0.55269  -0.55231  -0.52693
 Alpha  occ. eigenvalues --   -0.52631  -0.52452  -0.52323  -0.49943  -0.49881
 Alpha  occ. eigenvalues --   -0.48172  -0.47706  -0.46779  -0.46483  -0.46196
 Alpha  occ. eigenvalues --   -0.45762  -0.45630  -0.45161  -0.43792  -0.43737
 Alpha virt. eigenvalues --    0.21283   0.23022   0.23446   0.24692   0.25065
 Alpha virt. eigenvalues --    0.25987   0.26921   0.27426   0.28447   0.30421
 Alpha virt. eigenvalues --    0.30653   0.31129   0.31761   0.31868   0.32021

 Mulliken charges:
               1
     1  C   -0.300197
     2  C   -0.299743
     3  C   -0.475381
     4  H    0.152485
     5  H    0.149059
     6  H    0.151632
     7  H    0.151834
     8  H    0.155575
     9  H    0.154588
    10  H    0.160043
    11  C   -0.297580
    12  C   -0.308383
    13  C   -0.475361
    14  H    0.149136
    15  H    0.149273
    16  H    0.161864
    17  H    0.150350
    18  H    0.155082
    19  H    0.155038
    20  H    0.159672
    21  C   -0.297761
    22  C   -0.306212
    23  C   -0.475298
    24  H    0.149666
    25  H    0.149393
    26  H    0.159125
    27  H    0.150739
    28  H    0.155223
    29  H    0.155293
    30  H    0.160264
    31  C   -0.300004
    32  C   -0.299798
    33  C   -0.475490
    34  H    0.151776
    35  H    0.149607
    36  H    0.151886
    37  H    0.151790
    38  H    0.155491
    39  H    0.155218
    40  H    0.160103
 Sum of Mulliken charges =  -0.00000

 Dipole moment (field-independent basis, Debye):
    X=             -0.0316    Y=              0.0016    Z=              0.0035  Tot=              0.0319
 Quadrupole moment (field-independent basis, Debye-Ang):
   XX=            -85.0038   YY=            -86.8210   ZZ=            -83.0879
   XY=             -0.0776   XZ=              0.2353   YZ=             -0.1310

 Normal termination of Gaussian 16 at Thu May  6 02:23:22 2021.
