 Gaussian 16, Revision A.03,
 Gaussian 16:  EM64L-G16RevA.03 25-Dec-2016

 -------------
 #p 6-31g* mp2
 -------------

 ------------------------------------------------------
 Input file generated by CHIRIPA (05-May-2021 14:51:08)
 ------------------------------------------------------
 Symbolic Z-matrix:
 Charge =  0 Multiplicity = 1

                         Standard orientation:
 ---------------------------------------------------------------------
 Center     Atomic      Atomic             Coordinates (Angstroms)
 Number     Number       Type             X           Y           Z
 ---------------------------------------------------------------------
      1          6           0       -3.551455    0.211179   -0.375385
      2          6           0       -2.385448    0.593420    0.536922
      3          6           0       -1.160747    1.077101   -0.240223
      4          1           0       -3.222923   -0.573706   -1.070343
      5          1           0       -3.825928    1.078934   -0.991063
      6          1           0       -2.114160   -0.274389    1.151680
      7          1           0       -2.716849    1.377351    1.229916
      8          1           0       -1.408966    1.957996   -0.841066
      9          1           0       -0.802853    0.296871   -0.919747
     10          1           0       -0.339178    1.345063    0.431403
     11          6           0       -4.783118   -0.274337    0.386855
     12          6           0       -5.949125   -0.656578   -0.525452
     13          6           0       -7.173827   -1.140259    0.251693
     14          1           0       -4.508645   -1.142092    1.002533
     15          1           0       -5.111650    0.510549    1.081813
     16          1           0       -5.617724   -1.440509   -1.218446
     17          1           0       -6.220413    0.211231   -1.140209
     18          1           0       -7.531721   -0.360029    0.931218
     19          1           0       -6.925608   -2.021154    0.852537
     20          1           0       -7.995395   -1.408221   -0.419932
     21          6           0        4.674763   -0.466525    0.273177
     22          6           0        4.620463   -1.833784   -0.409201
     23          6           0        5.641617   -2.819373    0.159703
     24          1           0        5.686157   -0.050836    0.167204
     25          1           0        4.500935   -0.595018    1.350520
     26          1           0        4.792970   -1.702593   -1.485142
     27          1           0        3.609028   -2.246182   -0.301758
     28          1           0        5.468133   -2.979688    1.228722
     29          1           0        6.658802   -2.433011    0.038616
     30          1           0        5.585455   -3.790224   -0.342447
     31          6           0        3.659809    0.529683   -0.284647
     32          6           0        3.714110    1.896942    0.397731
     33          6           0        2.692957    2.882531   -0.171174
     34          1           0        3.833639    0.658176   -1.361990
     35          1           0        2.648416    0.113995   -0.178675
     36          1           0        4.725545    2.309339    0.290288
     37          1           0        3.541604    1.765751    1.473670
     38          1           0        1.675772    2.496169   -0.050086
     39          1           0        2.866440    3.042845   -1.240193
     40          1           0        2.749118    3.853382    0.330977
 ---------------------------------------------------------------------

 SCF Done:  E(RHF) =  -470.733240026     A.U. after   11 cycles
 E2 =    -0.1582411405D+01 EUMP2 =    -0.47231565143070D+03

 The electronic state is 1-A.
 Alpha  occ. eigenvalues --  -11.21648 -11.21618 -11.21580 -11.21544 -11.21433
 Alpha  occ. eigenvalues --  -11.21373 -11.21363 -11.21299 -11.21133 -11.21085
 Alpha  occ. eigenvalues --  -11.21056 -11.20951  -1.08461  -1.08387  -1.03570
 Alpha  occ. eigenvalues --   -1.03480  -0.96031  -0.95919  -0.87062  -0.86924
 Alpha  occ. eigenvalues --   -0.79659  -0.79518  -0.78273  -0.78195  -0.65089
 Alpha  occ. eigenvalues --   -0.65023  -0.60959  -0.60917  -0.59432  -0.59267
 Alpha  occ. eigenvalues --   -0.57664  -0.57509  -0.55317  -0.55216  -0.52806
 Alpha  occ. eigenvalues --   -0.52624  -0.52446  -0.52274  -0.49971  -0.49836
 Alpha  occ. eigenvalues --   -0.47958  -0.47845  -0.46657  -0.46579  -0.45820
 Alpha  occ. eigenvalues --   -0.45743  -0.45730  -0.45666  -0.43776  -0.43731
 Alpha virt. eigenvalues --    0.21637   0.23009   0.23622   0.24831   0.26158
 Alpha virt. eigenvalues --    0.26606   0.27183   0.27458   0.27873   0.28891
 Alpha virt. eigenvalues --    0.30339   0.31316   0.31699   0.31809   0.32058

 Mulliken charges:
               1
     1  C   -0.298771
     2  C   -0.299605
     3  C   -0.480052
     4  H    0.149750
     5  H    0.149766
     6  H    0.151770
     7  H    0.152270
     8  H    0.156399
     9  H    0.156010
    10  H    0.163290
    11  C   -0.298278
    12  C   -0.299649
    13  C   -0.475719
    14  H    0.149510
    15  H    0.149730
    16  H    0.151986
    17  H    0.152017
    18  H    0.155215
    19  H    0.155184
    20  H    0.160330
    21  C   -0.298226
    22  C   -0.299575
    23  C   -0.475670
    24  H    0.149591
    25  H    0.149316
    26  H    0.151899
    27  H    0.151753
    28  H    0.155108
    29  H    0.155178
    30  H    0.160110
    31  C   -0.299342
    32  C   -0.299209
    33  C   -0.483361
    34  H    0.149488
    35  H    0.150780
    36  H    0.151695
    37  H    0.151128
    38  H    0.163706
    39  H    0.154989
    40  H    0.159492
 Sum of Mulliken charges =  -0.00000

 Dipole moment (field-independent basis, Debye):
    X=             -0.0500    Y=             -0.0019    Z=             -0.0118  Tot=              0.0514
 Quadrupole moment (field-independent basis, Debye-Ang):
   XX=            -85.6892   YY=            -84.6358   ZZ=            -84.5884
   XY=              0.0120   XZ=             -0.3191   YZ=              0.2168

 Normal termination of Gaussian 16 at Wed May  5 21:18:48 2021.
