 Gaussian 16, Revision A.03,
 Gaussian 16:  EM64L-G16RevA.03 25-Dec-2016

 -------------
 #p 6-31g* mp2
 -------------

 ------------------------------------------------------
 Input file generated by CHIRIPA (05-May-2021 14:53:13)
 ------------------------------------------------------
 Symbolic Z-matrix:
 Charge =  0 Multiplicity = 1

                         Standard orientation:
 ---------------------------------------------------------------------
 Center     Atomic      Atomic             Coordinates (Angstroms)
 Number     Number       Type             X           Y           Z
 ---------------------------------------------------------------------
      1          6           0       -2.215337    1.216843   -0.107698
      2          6           0       -1.378366    2.020969   -1.103110
      3          6           0       -0.709757    3.239001   -0.465024
      4          1           0       -2.982230    1.870913    0.329353
      5          1           0       -1.572738    0.890935    0.721908
      6          1           0       -2.022053    2.344088   -1.931287
      7          1           0       -0.613498    1.364860   -1.537984
      8          1           0       -0.044972    2.931415    0.348642
      9          1           0       -1.461529    3.916207   -0.046896
     10          1           0       -0.116532    3.799388   -1.194347
     11          6           0       -2.890090   -0.003955   -0.730664
     12          6           0       -3.727062   -0.808081    0.264748
     13          6           0       -4.395671   -2.026113   -0.373338
     14          1           0       -3.532689    0.321953   -1.560270
     15          1           0       -2.123198   -0.658025   -1.167715
     16          1           0       -4.491930   -0.151972    0.699622
     17          1           0       -3.083375   -1.131200    1.092925
     18          1           0       -3.643899   -2.703319   -0.791466
     19          1           0       -5.060456   -1.718527   -1.187004
     20          1           0       -4.988896   -2.586499    0.355985
     21          6           0        0.558526   -0.184747    2.381971
     22          6           0        1.699136    0.606030    2.208179
     23          6           0        2.502037    0.454508    1.073746
     24          6           0        2.133113   -0.501727    0.128865
     25          6           0        1.002790   -1.304685    0.273488
     26          6           0        0.214599   -1.135903    1.415773
     27          1           0       -0.059472   -0.060337    3.266276
     28          1           0        1.968663    1.345503    2.956898
     29          1           0        3.390435    1.053387    0.914028
     30          1           0        0.759703   -2.033473   -0.490185
     31          1           0       -0.670649   -1.751425    1.548104
     32          7           0        2.975322   -0.671273   -1.076266
     33          8           0        2.628694   -1.520773   -1.894089
     34          8           0        3.966126    0.048548   -1.180204
 ---------------------------------------------------------------------

 SCF Done:  E(RHF) =  -669.534320045     A.U. after   15 cycles
 E2 =    -0.2095908415D+01 EUMP2 =    -0.67163022846071D+03

 The electronic state is 1-A.
 Alpha  occ. eigenvalues --  -20.60889 -20.60883 -15.85945 -11.31375 -11.27941
 Alpha  occ. eigenvalues --  -11.27928 -11.27659 -11.26970 -11.26924 -11.22283
 Alpha  occ. eigenvalues --  -11.21786 -11.21680 -11.21642 -11.21489 -11.21157
 Alpha  occ. eigenvalues --   -1.59964  -1.39515  -1.19555  -1.08967  -1.08750
 Alpha  occ. eigenvalues --   -1.04958  -1.03877  -0.96308  -0.95755  -0.87332
 Alpha  occ. eigenvalues --   -0.86354  -0.82581  -0.79972  -0.78571  -0.77622
 Alpha  occ. eigenvalues --   -0.72160  -0.71289  -0.70637  -0.65585  -0.65198
 Alpha  occ. eigenvalues --   -0.64864  -0.62306  -0.61278  -0.59691  -0.57918
 Alpha  occ. eigenvalues --   -0.55634  -0.55439  -0.53287  -0.53095  -0.52975
 Alpha  occ. eigenvalues --   -0.52717  -0.50271  -0.48928  -0.48912  -0.48267
 Alpha  occ. eigenvalues --   -0.47030  -0.46083  -0.46044  -0.44906  -0.44104
 Alpha  occ. eigenvalues --   -0.37412  -0.36488
 Alpha virt. eigenvalues --    0.04866   0.10973   0.16250   0.19616   0.23142
 Alpha virt. eigenvalues --    0.23564   0.25767   0.26038   0.27444   0.28442
 Alpha virt. eigenvalues --    0.29031   0.30126   0.31319   0.31379   0.31908

 Mulliken charges:
               1
     1  C   -0.304644
     2  C   -0.299124
     3  C   -0.478377
     4  H    0.146896
     5  H    0.155220
     6  H    0.152590
     7  H    0.154275
     8  H    0.153577
     9  H    0.153000
    10  H    0.162834
    11  C   -0.298950
    12  C   -0.300671
    13  C   -0.475617
    14  H    0.153136
    15  H    0.147493
    16  H    0.154801
    17  H    0.139295
    18  H    0.153667
    19  H    0.159493
    20  H    0.160404
    21  C   -0.173271
    22  C   -0.217631
    23  C   -0.170708
    24  C    0.159462
    25  C   -0.171392
    26  C   -0.219355
    27  H    0.227492
    28  H    0.225072
    29  H    0.276816
    30  H    0.276318
    31  H    0.229648
    32  N    0.487794
    33  O   -0.459914
    34  O   -0.459625
 Sum of Mulliken charges =  -0.00000

 Dipole moment (field-independent basis, Debye):
    X=             -2.8601    Y=              0.5756    Z=              4.2338  Tot=              5.1416
 Quadrupole moment (field-independent basis, Debye-Ang):
   XX=           -105.4815   YY=            -93.8980   ZZ=            -93.5791
   XY=              4.4286   XZ=             10.1856   YZ=             -1.1167

 Normal termination of Gaussian 16 at Thu May  6 15:21:35 2021.
