 Gaussian 16, Revision A.03,
 Gaussian 16:  EM64L-G16RevA.03 25-Dec-2016

 -------------
 #p 6-31g* mp2
 -------------

 ------------------------------------------------------
 Input file generated by CHIRIPA (05-May-2021 14:57:25)
 ------------------------------------------------------
 Symbolic Z-matrix:
 Charge =  0 Multiplicity = 1

                         Standard orientation:
 ---------------------------------------------------------------------
 Center     Atomic      Atomic             Coordinates (Angstroms)
 Number     Number       Type             X           Y           Z
 ---------------------------------------------------------------------
      1          6           0       -0.545767   -1.207512   -0.735789
      2          6           0       -0.843799    0.121480   -1.054344
      3          6           0       -2.107234    0.651911   -0.776995
      4          6           0       -3.053024   -0.178613   -0.177828
      5          6           0       -2.786414   -1.506668    0.151534
      6          6           0       -1.516315   -2.015920   -0.134926
      7          1           0        0.438288   -1.611338   -0.954779
      8          1           0       -0.092019    0.751620   -1.521029
      9          1           0       -2.364720    1.677290   -1.013041
     10          1           0       -3.556477   -2.110373    0.616249
     11          1           0       -1.287664   -3.048398    0.113576
     12          7           0       -4.394093    0.371720    0.120612
     13          8           0       -5.209899   -0.380616    0.648901
     14          8           0       -4.604024    1.544985   -0.179411
     15          6           0        3.499476   -2.158311    0.062607
     16          6           0        2.641560   -1.735803    1.083385
     17          6           0        2.265054   -0.393179    1.184144
     18          6           0        2.767470    0.504008    0.242909
     19          6           0        3.623852    0.113815   -0.785513
     20          6           0        3.987024   -1.233784   -0.866944
     21          1           0        3.786777   -3.203226   -0.008157
     22          1           0        2.261384   -2.451589    1.806684
     23          1           0        1.602312   -0.038944    1.964341
     24          1           0        3.986595    0.850678   -1.491817
     25          1           0        4.653444   -1.559064   -1.660748
     26          7           0        2.375938    1.928018    0.339347
     27          8           0        2.832273    2.698742   -0.502306
     28          8           0        1.620133    2.246469    1.254762
 ---------------------------------------------------------------------

 SCF Done:  E(RHF) =  -868.336694029     A.U. after   16 cycles
 E2 =    -0.2603582600D+01 EUMP2 =    -0.87094027662902D+03

 The electronic state is 1-A.
 Alpha  occ. eigenvalues --  -20.61726 -20.61693 -20.60565 -20.60545 -15.86758
 Alpha  occ. eigenvalues --  -15.85616 -11.32253 -11.30998 -11.28880 -11.28795
 Alpha  occ. eigenvalues --  -11.28637 -11.27891 -11.27836 -11.27675 -11.27558
 Alpha  occ. eigenvalues --  -11.27318 -11.26685 -11.26556  -1.60793  -1.59634
 Alpha  occ. eigenvalues --   -1.40333  -1.39187  -1.20498  -1.19209  -1.09849
 Alpha  occ. eigenvalues --   -1.08605  -1.05876  -1.04620  -0.96642  -0.95421
 Alpha  occ. eigenvalues --   -0.87251  -0.86030  -0.83443  -0.82254  -0.78470
 Alpha  occ. eigenvalues --   -0.77296  -0.72959  -0.72169  -0.71831  -0.71531
 Alpha  occ. eigenvalues --   -0.70959  -0.70334  -0.66096  -0.65830  -0.64861
 Alpha  occ. eigenvalues --   -0.64649  -0.63175  -0.61969  -0.56349  -0.55514
 Alpha  occ. eigenvalues --   -0.53933  -0.53915  -0.52866  -0.52717  -0.49741
 Alpha  occ. eigenvalues --   -0.49713  -0.48600  -0.48583  -0.45698  -0.44588
 Alpha  occ. eigenvalues --   -0.38584  -0.37975  -0.36629  -0.36209
 Alpha virt. eigenvalues --    0.03954   0.05316   0.09970   0.11490   0.15413
 Alpha virt. eigenvalues --    0.16791   0.20399   0.21536   0.26255   0.27127
 Alpha virt. eigenvalues --    0.27414   0.28451   0.30120   0.30839   0.31728

 Mulliken charges:
               1
     1  C   -0.172939
     2  C   -0.222815
     3  C   -0.165766
     4  C    0.156914
     5  C   -0.170451
     6  C   -0.224813
     7  H    0.229544
     8  H    0.224882
     9  H    0.280173
    10  H    0.274263
    11  H    0.217247
    12  N    0.488211
    13  O   -0.462441
    14  O   -0.458097
    15  C   -0.175522
    16  C   -0.226435
    17  C   -0.166225
    18  C    0.152060
    19  C   -0.174631
    20  C   -0.220286
    21  H    0.229113
    22  H    0.226679
    23  H    0.281918
    24  H    0.278807
    25  H    0.227638
    26  N    0.486577
    27  O   -0.459894
    28  O   -0.453710
 Sum of Mulliken charges =  -0.00000

 Dipole moment (field-independent basis, Debye):
    X=              6.2805    Y=             -6.7484    Z=             -1.2942  Tot=              9.3091
 Quadrupole moment (field-independent basis, Debye-Ang):
   XX=           -124.8861   YY=           -105.8770   ZZ=           -101.4667
   XY=             -6.5787   XZ=             -1.2264   YZ=             -3.7911

 Normal termination of Gaussian 16 at Thu May  6 03:32:28 2021.
