 Gaussian 16, Revision A.03,
 Gaussian 16:  EM64L-G16RevA.03 25-Dec-2016

 -------------
 #p 6-31g* mp2
 -------------

 ------------------------------------------------------
 Input file generated by CHIRIPA (05-May-2021 14:51:11)
 ------------------------------------------------------
 Symbolic Z-matrix:
 Charge =  0 Multiplicity = 1

                         Standard orientation:
 ---------------------------------------------------------------------
 Center     Atomic      Atomic             Coordinates (Angstroms)
 Number     Number       Type             X           Y           Z
 ---------------------------------------------------------------------
      1          6           0       -2.818691    0.075517   -0.621176
      2          6           0       -4.212101   -0.553069   -0.656880
      3          6           0       -4.317563   -1.700170   -1.662280
      4          1           0       -2.562504    0.441141   -1.624985
      5          1           0       -2.080577   -0.699749   -0.373091
      6          1           0       -4.947529    0.223435   -0.903464
      7          1           0       -4.465078   -0.917068    0.347174
      8          1           0       -3.605919   -2.494871   -1.416079
      9          1           0       -4.091111   -1.347888   -2.673822
     10          1           0       -5.321909   -2.134987   -1.671366
     11          6           0       -2.697507    1.223718    0.379162
     12          6           0       -1.304097    1.852303    0.414866
     13          6           0       -1.198635    2.999404    1.420266
     14          1           0       -3.435622    1.998983    0.131077
     15          1           0       -2.953694    0.858093    1.382971
     16          1           0       -1.051120    2.216302   -0.589188
     17          1           0       -0.568669    1.075799    0.661450
     18          1           0       -1.425087    2.647122    2.431808
     19          1           0       -1.910279    3.794105    1.174065
     20          1           0       -0.194289    3.434221    1.429351
     21          6           0        3.185161   -0.571532   -0.507446
     22          6           0        3.880100    0.787085   -0.603376
     23          6           0        4.730733    0.928135   -1.866042
     24          1           0        3.943110   -1.366445   -0.531354
     25          1           0        2.552977   -0.715652   -1.394557
     26          1           0        4.509713    0.929196    0.284322
     27          1           0        3.120421    1.578863   -0.579044
     28          1           0        4.112338    0.812524   -2.762046
     29          1           0        5.509524    0.159165   -1.893774
     30          1           0        5.218383    1.906769   -1.914342
     31          6           0        2.331037   -0.727702    0.749460
     32          6           0        1.636098   -2.086320    0.845391
     33          6           0        0.785465   -2.227369    2.108055
     34          1           0        2.963221   -0.583581    1.636571
     35          1           0        1.573088    0.067210    0.773369
     36          1           0        2.395777   -2.878097    0.821058
     37          1           0        1.006485   -2.228430   -0.042308
     38          1           0        0.006673   -1.458399    2.135788
     39          1           0        1.403859   -2.111758    3.004060
     40          1           0        0.297816   -3.206003    2.156356
 ---------------------------------------------------------------------

 SCF Done:  E(RHF) =  -470.733361902     A.U. after   11 cycles
 E2 =    -0.1583456448D+01 EUMP2 =    -0.47231681834938D+03

 The electronic state is 1-A.
 Alpha  occ. eigenvalues --  -11.21662 -11.21636 -11.21632 -11.21593 -11.21457
 Alpha  occ. eigenvalues --  -11.21398 -11.21397 -11.21338 -11.21136 -11.21116
 Alpha  occ. eigenvalues --  -11.21094 -11.21064  -1.08490  -1.08431  -1.03580
 Alpha  occ. eigenvalues --   -1.03543  -0.96023  -0.95992  -0.87038  -0.87011
 Alpha  occ. eigenvalues --   -0.79671  -0.79586  -0.78351  -0.78198  -0.65260
 Alpha  occ. eigenvalues --   -0.64942  -0.61053  -0.60869  -0.59404  -0.59350
 Alpha  occ. eigenvalues --   -0.57652  -0.57589  -0.55362  -0.55230  -0.52714
 Alpha  occ. eigenvalues --   -0.52692  -0.52454  -0.52414  -0.50000  -0.49915
 Alpha  occ. eigenvalues --   -0.48043  -0.47895  -0.46868  -0.46549  -0.46061
 Alpha  occ. eigenvalues --   -0.45801  -0.45742  -0.45301  -0.43828  -0.43795
 Alpha virt. eigenvalues --    0.19432   0.23124   0.23938   0.24121   0.25913
 Alpha virt. eigenvalues --    0.26678   0.27009   0.27713   0.28453   0.29325
 Alpha virt. eigenvalues --    0.30623   0.31645   0.31685   0.31740   0.32092

 Mulliken charges:
               1
     1  C   -0.299740
     2  C   -0.299642
     3  C   -0.475807
     4  H    0.149595
     5  H    0.150193
     6  H    0.152079
     7  H    0.152292
     8  H    0.155327
     9  H    0.155106
    10  H    0.160437
    11  C   -0.297417
    12  C   -0.310243
    13  C   -0.475263
    14  H    0.149938
    15  H    0.149806
    16  H    0.151791
    17  H    0.160317
    18  H    0.155470
    19  H    0.155532
    20  H    0.160450
    21  C   -0.297664
    22  C   -0.299855
    23  C   -0.475725
    24  H    0.149548
    25  H    0.149849
    26  H    0.151827
    27  H    0.152227
    28  H    0.155247
    29  H    0.155144
    30  H    0.160194
    31  C   -0.307187
    32  C   -0.299819
    33  C   -0.477759
    34  H    0.149568
    35  H    0.158080
    36  H    0.152342
    37  H    0.152155
    38  H    0.155480
    39  H    0.155719
    40  H    0.160409
 Sum of Mulliken charges =  -0.00000

 Dipole moment (field-independent basis, Debye):
    X=             -0.0084    Y=              0.0084    Z=              0.0018  Tot=              0.0120
 Quadrupole moment (field-independent basis, Debye-Ang):
   XX=            -84.4923   YY=            -84.9662   ZZ=            -85.2039
   XY=             -0.8745   XZ=              1.0283   YZ=             -1.0319

 Normal termination of Gaussian 16 at Wed May  5 15:13:11 2021.
