 Gaussian 16, Revision A.03,
 Gaussian 16:  EM64L-G16RevA.03 25-Dec-2016

 -------------
 #p 6-31g* mp2
 -------------

 ------------------------------------------------------
 Input file generated by CHIRIPA (05-May-2021 14:51:13)
 ------------------------------------------------------
 Symbolic Z-matrix:
 Charge =  0 Multiplicity = 1

                         Standard orientation:
 ---------------------------------------------------------------------
 Center     Atomic      Atomic             Coordinates (Angstroms)
 Number     Number       Type             X           Y           Z
 ---------------------------------------------------------------------
      1          6           0        3.522684    0.531741    0.457785
      2          6           0        2.620651    1.446190   -0.371736
      3          6           0        1.912951    2.504566    0.474900
      4          1           0        2.920872    0.039957    1.234261
      5          1           0        4.270126    1.143155    0.982092
      6          1           0        1.876002    0.833100   -0.895410
      7          1           0        3.224644    1.935707   -1.146449
      8          1           0        2.643048    3.140544    0.985871
      9          1           0        1.286743    2.031672    1.238337
     10          1           0        1.273398    3.147262   -0.138105
     11          6           0        4.237077   -0.531563   -0.374535
     12          6           0        5.139110   -1.446012    0.454986
     13          6           0        5.846811   -2.504389   -0.391650
     14          1           0        3.489636   -1.142978   -0.898842
     15          1           0        4.838890   -0.039779   -1.151011
     16          1           0        4.535117   -1.935529    1.229699
     17          1           0        5.883760   -0.832922    0.978660
     18          1           0        6.473019   -2.031494   -1.155087
     19          1           0        5.116714   -3.140366   -0.902621
     20          1           0        6.486364   -3.147084    0.221355
     21          6           0       -3.313428    0.421260    0.249972
     22          6           0       -2.898627    1.585692   -0.650041
     23          6           0       -1.764391    2.419316   -0.053070
     24          1           0       -3.621132    0.814181    1.228683
     25          1           0       -2.440969   -0.221593    0.431493
     26          1           0       -3.771933    2.225400   -0.830940
     27          1           0       -2.592056    1.189969   -1.626788
     28          1           0       -0.876623    1.800135    0.111505
     29          1           0       -2.063204    2.841449    0.911874
     30          1           0       -1.483720    3.246240   -0.712827
     31          6           0       -4.446333   -0.421438   -0.333221
     32          6           0       -4.861136   -1.585871    0.566791
     33          6           0       -5.995371   -2.419494   -0.030180
     34          1           0       -5.318792    0.221415   -0.514743
     35          1           0       -4.138630   -0.814359   -1.311934
     36          1           0       -5.167705   -1.190147    1.543538
     37          1           0       -3.987829   -2.225578    0.747690
     38          1           0       -5.696558   -2.841627   -0.995124
     39          1           0       -6.883139   -1.800312   -0.194755
     40          1           0       -6.276042   -3.246419    0.629577
 ---------------------------------------------------------------------

 SCF Done:  E(RHF) =  -470.732335291     A.U. after   11 cycles
 E2 =    -0.1582863859D+01 EUMP2 =    -0.47231519914943D+03

 The electronic state is 1-A.
 Alpha  occ. eigenvalues --  -11.21606 -11.21605 -11.21594 -11.21556 -11.21405
 Alpha  occ. eigenvalues --  -11.21402 -11.21345 -11.21343 -11.21076 -11.21075
 Alpha  occ. eigenvalues --  -11.20958 -11.20956  -1.08436  -1.08411  -1.03561
 Alpha  occ. eigenvalues --   -1.03469  -0.96061  -0.95868  -0.87120  -0.86842
 Alpha  occ. eigenvalues --   -0.79674  -0.79484  -0.78249  -0.78225  -0.65113
 Alpha  occ. eigenvalues --   -0.65010  -0.61104  -0.60770  -0.59444  -0.59231
 Alpha  occ. eigenvalues --   -0.57594  -0.57562  -0.55513  -0.55013  -0.52893
 Alpha  occ. eigenvalues --   -0.52537  -0.52334  -0.52291  -0.50101  -0.49667
 Alpha  occ. eigenvalues --   -0.47930  -0.47835  -0.46689  -0.46506  -0.45805
 Alpha  occ. eigenvalues --   -0.45750  -0.45712  -0.45673  -0.43886  -0.43630
 Alpha virt. eigenvalues --    0.21759   0.23082   0.23569   0.25037   0.26383
 Alpha virt. eigenvalues --    0.26794   0.27144   0.27426   0.27542   0.29153
 Alpha virt. eigenvalues --    0.29402   0.31296   0.31609   0.31992   0.32296

 Mulliken charges:
               1
     1  C   -0.298147
     2  C   -0.301812
     3  C   -0.479207
     4  H    0.149415
     5  H    0.149799
     6  H    0.151572
     7  H    0.152155
     8  H    0.155054
     9  H    0.155429
    10  H    0.165383
    11  C   -0.298196
    12  C   -0.299642
    13  C   -0.475690
    14  H    0.149189
    15  H    0.149702
    16  H    0.151880
    17  H    0.152007
    18  H    0.155203
    19  H    0.155085
    20  H    0.160272
    21  C   -0.298267
    22  C   -0.300022
    23  C   -0.479532
    24  H    0.149634
    25  H    0.148740
    26  H    0.151437
    27  H    0.151392
    28  H    0.163822
    29  H    0.154633
    30  H    0.158762
    31  C   -0.298208
    32  C   -0.299610
    33  C   -0.475694
    34  H    0.149642
    35  H    0.149554
    36  H    0.151952
    37  H    0.151700
    38  H    0.155151
    39  H    0.155235
    40  H    0.160228
 Sum of Mulliken charges =  -0.00000

 Dipole moment (field-independent basis, Debye):
    X=              0.0126    Y=              0.0224    Z=              0.0084  Tot=              0.0270
 Quadrupole moment (field-independent basis, Debye-Ang):
   XX=            -84.8360   YY=            -85.1447   ZZ=            -84.8989
   XY=              0.0332   XZ=             -0.4432   YZ=             -0.4011

 Normal termination of Gaussian 16 at Wed May  5 16:50:05 2021.
