 Gaussian 16, Revision A.03,
 Gaussian 16:  EM64L-G16RevA.03 25-Dec-2016

 -------------
 #p 6-31g* mp2
 -------------

 ------------------------------------------------------
 Input file generated by CHIRIPA (05-May-2021 14:53:14)
 ------------------------------------------------------
 Symbolic Z-matrix:
 Charge =  0 Multiplicity = 1

                         Standard orientation:
 ---------------------------------------------------------------------
 Center     Atomic      Atomic             Coordinates (Angstroms)
 Number     Number       Type             X           Y           Z
 ---------------------------------------------------------------------
      1          6           0       -3.189541   -0.275565    0.314051
      2          6           0       -2.749285   -1.609487   -0.289947
      3          6           0       -3.247249   -2.813650    0.509939
      4          1           0       -2.821661   -0.208867    1.347086
      5          1           0       -4.286617   -0.250976    0.370739
      6          1           0       -1.653417   -1.630989   -0.346757
      7          1           0       -3.118092   -1.672934   -1.321727
      8          1           0       -4.341074   -2.819969    0.555851
      9          1           0       -2.868077   -2.777786    1.536361
     10          1           0       -2.921099   -3.756800    0.060547
     11          6           0       -2.699439    0.937636   -0.474411
     12          6           0       -3.139695    2.271557    0.129587
     13          6           0       -2.641731    3.475721   -0.670298
     14          1           0       -1.602363    0.913047   -0.531099
     15          1           0       -3.067319    0.870938   -1.507446
     16          1           0       -2.770888    2.335005    1.161368
     17          1           0       -4.235563    2.293060    0.186397
     18          1           0       -3.020903    3.439857   -1.696721
     19          1           0       -1.547906    3.482040   -0.716211
     20          1           0       -2.967881    4.418871   -0.220906
     21          6           0        3.275977    2.026522    0.501110
     22          6           0        2.477210    1.408913    1.469124
     23          6           0        1.931415    0.142911    1.236972
     24          6           0        2.206066   -0.479541    0.020250
     25          6           0        2.998080    0.109830   -0.963948
     26          6           0        3.533410    1.376156   -0.710200
     27          1           0        3.695900    3.010110    0.689839
     28          1           0        2.275604    1.911636    2.410755
     29          1           0        1.309667   -0.358135    1.968955
     30          1           0        3.181346   -0.416183   -1.893001
     31          1           0        4.153390    1.853398   -1.463798
     32          7           0        1.633797   -1.819972   -0.236949
     33          8           0        1.890712   -2.347352   -1.316996
     34          8           0        0.939173   -2.317841    0.646375
 ---------------------------------------------------------------------

 SCF Done:  E(RHF) =  -669.536254070     A.U. after   15 cycles
 E2 =    -0.2091819498D+01 EUMP2 =    -0.67162807356783D+03

 The electronic state is 1-A.
 Alpha  occ. eigenvalues --  -20.60991 -20.60982 -15.86010 -11.31338 -11.27901
 Alpha  occ. eigenvalues --  -11.27884 -11.27622 -11.26896 -11.26884 -11.21494
 Alpha  occ. eigenvalues --  -11.21089 -11.21081 -11.20838 -11.20603 -11.20066
 Alpha  occ. eigenvalues --   -1.60047  -1.39603  -1.19499  -1.08902  -1.07984
 Alpha  occ. eigenvalues --   -1.04892  -1.03007  -0.95744  -0.95487  -0.86514
 Alpha  occ. eigenvalues --   -0.86291  -0.82576  -0.79130  -0.77739  -0.77628
 Alpha  occ. eigenvalues --   -0.72231  -0.71366  -0.70601  -0.65153  -0.64891
 Alpha  occ. eigenvalues --   -0.64618  -0.62238  -0.60395  -0.58907  -0.57065
 Alpha  occ. eigenvalues --   -0.55392  -0.54790  -0.53222  -0.52981  -0.52175
 Alpha  occ. eigenvalues --   -0.51914  -0.49461  -0.49002  -0.48989  -0.47436
 Alpha  occ. eigenvalues --   -0.46209  -0.45447  -0.45269  -0.44663  -0.43280
 Alpha  occ. eigenvalues --   -0.37473  -0.36490
 Alpha virt. eigenvalues --    0.04872   0.11144   0.16345   0.21250   0.23127
 Alpha virt. eigenvalues --    0.24823   0.26749   0.27292   0.27819   0.28305
 Alpha virt. eigenvalues --    0.28454   0.30850   0.31837   0.32103   0.32507

 Mulliken charges:
               1
     1  C   -0.297574
     2  C   -0.304525
     3  C   -0.472763
     4  H    0.146096
     5  H    0.147241
     6  H    0.165768
     7  H    0.148251
     8  H    0.148223
     9  H    0.155755
    10  H    0.165417
    11  C   -0.297599
    12  C   -0.298370
    13  C   -0.475349
    14  H    0.146054
    15  H    0.150098
    16  H    0.148285
    17  H    0.152519
    18  H    0.155980
    19  H    0.152532
    20  H    0.158336
    21  C   -0.170587
    22  C   -0.218583
    23  C   -0.171366
    24  C    0.158211
    25  C   -0.170654
    26  C   -0.218473
    27  H    0.226331
    28  H    0.224118
    29  H    0.275785
    30  H    0.276114
    31  H    0.224135
    32  N    0.487136
    33  O   -0.458021
    34  O   -0.458521
 Sum of Mulliken charges =  -0.00000

 Dipole moment (field-independent basis, Debye):
    X=              2.2281    Y=              4.5917    Z=              0.8786  Tot=              5.1788
 Quadrupole moment (field-independent basis, Debye-Ang):
   XX=            -85.3424   YY=           -100.8666   ZZ=            -90.7245
   XY=              9.5310   XZ=              0.4439   YZ=              0.2698

 Normal termination of Gaussian 16 at Wed May  5 21:50:13 2021.
