 Gaussian 16, Revision A.03,
 Gaussian 16:  EM64L-G16RevA.03 25-Dec-2016

 -------------
 #p 6-31g* mp2
 -------------

 ------------------------------------------------------
 Input file generated by CHIRIPA (05-May-2021 14:55:24)
 ------------------------------------------------------
 Symbolic Z-matrix:
 Charge =  0 Multiplicity = 1

                         Standard orientation:
 ---------------------------------------------------------------------
 Center     Atomic      Atomic             Coordinates (Angstroms)
 Number     Number       Type             X           Y           Z
 ---------------------------------------------------------------------
      1          6           0       -0.923459    1.307273   -1.189515
      2          6           0       -2.259169    1.687436   -1.356474
      3          6           0       -3.289842    0.921023   -0.804323
      4          6           0       -2.947270   -0.224714   -0.087927
      5          6           0       -1.626071   -0.629648    0.095789
      6          6           0       -0.611723    0.151981   -0.465193
      7          1           0       -0.129148    1.908551   -1.621869
      8          1           0       -2.504225    2.584160   -1.918504
      9          1           0       -4.332377    1.192242   -0.918249
     10          1           0       -1.412955   -1.528722    0.661179
     11          1           0        0.424719   -0.145679   -0.333924
     12          7           0       -4.029757   -1.044135    0.501285
     13          8           0       -3.701636   -2.049161    1.128099
     14          8           0       -5.185834   -0.665856    0.325137
     15          6           0        3.872437   -0.317336   -0.300686
     16          6           0        4.240556   -1.718379    0.188753
     17          6           0        4.896409   -2.570849   -0.897959
     18          1           0        3.194349   -0.402734   -1.160831
     19          1           0        4.778526    0.185802   -0.665722
     20          1           0        3.334274   -2.218216    0.554038
     21          1           0        4.917694   -1.629635    1.047953
     22          1           0        5.815897   -2.097084   -1.256694
     23          1           0        4.223480   -2.689009   -1.753415
     24          1           0        5.151316   -3.568304   -0.526521
     25          6           0        3.215853    0.546873    0.774380
     26          6           0        2.847734    1.947916    0.284940
     27          6           0        2.191880    2.800387    1.371653
     28          1           0        2.309764    0.043735    1.139414
     29          1           0        3.893940    0.632272    1.634525
     30          1           0        2.170596    1.859171   -0.574260
     31          1           0        3.754016    2.447753   -0.080344
     32          1           0        2.864809    2.918547    2.227109
     33          1           0        1.272393    2.326621    1.730387
     34          1           0        1.936974    3.797842    1.000214
 ---------------------------------------------------------------------

 SCF Done:  E(RHF) =  -669.534895151     A.U. after   15 cycles
 E2 =    -0.2093077014D+01 EUMP2 =    -0.67162797216592D+03

 The electronic state is 1-A.
 Alpha  occ. eigenvalues --  -20.60761 -20.60756 -15.85815 -11.31184 -11.27758
 Alpha  occ. eigenvalues --  -11.27754 -11.27486 -11.26762 -11.26731 -11.22771
 Alpha  occ. eigenvalues --  -11.22484 -11.22415 -11.22356 -11.21934 -11.21701
 Alpha  occ. eigenvalues --   -1.59837  -1.39390  -1.19358  -1.09461  -1.08747
 Alpha  occ. eigenvalues --   -1.04768  -1.04434  -0.96863  -0.95586  -0.87872
 Alpha  occ. eigenvalues --   -0.86163  -0.82423  -0.80519  -0.79253  -0.77473
 Alpha  occ. eigenvalues --   -0.72034  -0.71160  -0.70489  -0.66349  -0.65009
 Alpha  occ. eigenvalues --   -0.64613  -0.62187  -0.61704  -0.60236  -0.58474
 Alpha  occ. eigenvalues --   -0.56199  -0.55235  -0.53522  -0.53275  -0.53078
 Alpha  occ. eigenvalues --   -0.52834  -0.50789  -0.48816  -0.48792  -0.48780
 Alpha  occ. eigenvalues --   -0.47579  -0.46767  -0.46725  -0.44795  -0.44717
 Alpha  occ. eigenvalues --   -0.37326  -0.36361
 Alpha virt. eigenvalues --    0.05063   0.11180   0.16517   0.18439   0.22521
 Alpha virt. eigenvalues --    0.23828   0.25087   0.25295   0.26734   0.28443
 Alpha virt. eigenvalues --    0.29119   0.30773   0.31010   0.31301   0.31943

 Mulliken charges:
               1
     1  C   -0.174389
     2  C   -0.218571
     3  C   -0.170797
     4  C    0.158667
     5  C   -0.173218
     6  C   -0.225704
     7  H    0.228580
     8  H    0.223583
     9  H    0.275636
    10  H    0.275589
    11  H    0.234493
    12  N    0.488081
    13  O   -0.460460
    14  O   -0.460428
    15  C   -0.300975
    16  C   -0.299677
    17  C   -0.476326
    18  H    0.144317
    19  H    0.154069
    20  H    0.150248
    21  H    0.155449
    22  H    0.156702
    23  H    0.155397
    24  H    0.163726
    25  C   -0.304148
    26  C   -0.302126
    27  C   -0.477850
    28  H    0.144901
    29  H    0.157743
    30  H    0.140161
    31  H    0.157370
    32  H    0.159639
    33  H    0.159668
    34  H    0.160651
 Sum of Mulliken charges =  -0.00000

 Dipole moment (field-independent basis, Debye):
    X=              4.0259    Y=              2.9006    Z=             -1.9899  Tot=              5.3462
 Quadrupole moment (field-independent basis, Debye-Ang):
   XX=           -113.5747   YY=            -94.6086   ZZ=            -94.6878
   XY=            -11.3482   XZ=              8.1511   YZ=             -1.4174

 Normal termination of Gaussian 16 at Wed May  5 17:35:39 2021.
