 Gaussian 16, Revision A.03,
 Gaussian 16:  EM64L-G16RevA.03 25-Dec-2016

 -------------
 #p 6-31g* mp2
 -------------

 ------------------------------------------------------
 Input file generated by CHIRIPA (05-May-2021 14:57:26)
 ------------------------------------------------------
 Symbolic Z-matrix:
 Charge =  0 Multiplicity = 1

                         Standard orientation:
 ---------------------------------------------------------------------
 Center     Atomic      Atomic             Coordinates (Angstroms)
 Number     Number       Type             X           Y           Z
 ---------------------------------------------------------------------
      1          6           0       -5.984726    0.211481    0.696608
      2          6           0       -5.717712   -0.908694   -0.097389
      3          6           0       -4.423692   -1.154719   -0.565930
      4          6           0       -3.416019   -0.255814   -0.219728
      5          6           0       -3.650461    0.869055    0.569574
      6          6           0       -4.952068    1.095223    1.026973
      7          1           0       -6.992899    0.394886    1.056255
      8          1           0       -6.517728   -1.596722   -0.355532
      9          1           0       -4.189105   -2.014147   -1.182185
     10          1           0       -2.832315    1.536972    0.810286
     11          1           0       -5.156512    1.965980    1.643438
     12          7           0       -2.042082   -0.505758   -0.709854
     13          8           0       -1.171756    0.301328   -0.390821
     14          8           0       -1.861531   -1.504018   -1.403768
     15          6           0        5.142981   -1.766551    0.574066
     16          6           0        4.022961   -1.545847    1.382377
     17          6           0        3.184572   -0.451370    1.150491
     18          6           0        3.497397    0.406152    0.096884
     19          6           0        4.605953    0.213050   -0.725978
     20          6           0        5.430396   -0.887947   -0.475681
     21          1           0        5.788846   -2.619299    0.761352
     22          1           0        3.797304   -2.226531    2.198338
     23          1           0        2.311008   -0.256869    1.760797
     24          1           0        4.805107    0.908988   -1.531848
     25          1           0        6.299539   -1.056870   -1.105046
     26          7           0        2.617213    1.568277   -0.158349
     27          8           0        2.914587    2.309065   -1.092928
     28          8           0        1.646618    1.716357    0.581013
 ---------------------------------------------------------------------

 SCF Done:  E(RHF) =  -868.336952591     A.U. after   16 cycles
 E2 =    -0.2599774273D+01 EUMP2 =    -0.87093672686365D+03

 The electronic state is 1-A.
 Alpha  occ. eigenvalues --  -20.60198 -20.60106 -20.59673 -20.59568 -15.85190
 Alpha  occ. eigenvalues --  -15.84670 -11.30705 -11.30220 -11.27331 -11.27239
 Alpha  occ. eigenvalues --  -11.27091 -11.26844 -11.26806 -11.26647 -11.26374
 Alpha  occ. eigenvalues --  -11.26324 -11.25918 -11.25898  -1.59243  -1.58670
 Alpha  occ. eigenvalues --   -1.38782  -1.38223  -1.18901  -1.18420  -1.08278
 Alpha  occ. eigenvalues --   -1.07788  -1.04321  -1.03865  -0.95082  -0.94593
 Alpha  occ. eigenvalues --   -0.85713  -0.85256  -0.81903  -0.81430  -0.76922
 Alpha  occ. eigenvalues --   -0.76436  -0.71444  -0.70878  -0.70578  -0.70020
 Alpha  occ. eigenvalues --   -0.69929  -0.69557  -0.64545  -0.64328  -0.64085
 Alpha  occ. eigenvalues --   -0.63893  -0.61656  -0.61218  -0.54833  -0.54390
 Alpha  occ. eigenvalues --   -0.52654  -0.52412  -0.52168  -0.51977  -0.48219
 Alpha  occ. eigenvalues --   -0.48163  -0.47681  -0.47645  -0.44161  -0.43551
 Alpha  occ. eigenvalues --   -0.36905  -0.36415  -0.35934  -0.35469
 Alpha virt. eigenvalues --    0.05597   0.06133   0.11717   0.12185   0.17055
 Alpha virt. eigenvalues --    0.17565   0.21842   0.22210   0.27749   0.28093
 Alpha virt. eigenvalues --    0.28768   0.29135   0.31379   0.31720   0.33073

 Mulliken charges:
               1
     1  C   -0.171373
     2  C   -0.218913
     3  C   -0.171756
     4  C    0.157337
     5  C   -0.172081
     6  C   -0.219090
     7  H    0.223916
     8  H    0.221405
     9  H    0.273854
    10  H    0.282914
    11  H    0.223277
    12  N    0.487139
    13  O   -0.449719
    14  O   -0.467434
    15  C   -0.171356
    16  C   -0.218527
    17  C   -0.166485
    18  C    0.161787
    19  C   -0.170816
    20  C   -0.218630
    21  H    0.222175
    22  H    0.220226
    23  H    0.276162
    24  H    0.273887
    25  H    0.220297
    26  N    0.490365
    27  O   -0.465881
    28  O   -0.452680
 Sum of Mulliken charges =  -0.00000

 Dipole moment (field-independent basis, Debye):
    X=             -1.8105    Y=             -3.0332    Z=              2.6796  Tot=              4.4338
 Quadrupole moment (field-independent basis, Debye-Ang):
   XX=            -50.9720   YY=           -106.0587   ZZ=           -102.5971
   XY=            -12.8694   XZ=             -3.3700   YZ=              0.3892

 Normal termination of Gaussian 16 at Thu May  6 21:21:30 2021.
