 Gaussian 16, Revision A.03,
 Gaussian 16:  EM64L-G16RevA.03 25-Dec-2016

 -------------
 #p 6-31g* mp2
 -------------

 ------------------------------------------------------
 Input file generated by CHIRIPA (05-May-2021 14:53:16)
 ------------------------------------------------------
 Symbolic Z-matrix:
 Charge =  0 Multiplicity = 1

                         Standard orientation:
 ---------------------------------------------------------------------
 Center     Atomic      Atomic             Coordinates (Angstroms)
 Number     Number       Type             X           Y           Z
 ---------------------------------------------------------------------
      1          6           0       -3.705397   -0.485196   -0.160117
      2          6           0       -3.669164   -1.650576    0.829105
      3          6           0       -3.990126   -2.993560    0.172468
      4          1           0       -4.699189   -0.438900   -0.626141
      5          1           0       -2.988904   -0.678750   -0.970408
      6          1           0       -4.384513   -1.454230    1.638018
      7          1           0       -2.675403   -1.693985    1.292969
      8          1           0       -3.270330   -3.215745   -0.621968
      9          1           0       -4.989151   -2.974628   -0.274958
     10          1           0       -3.958635   -3.812712    0.897629
     11          6           0       -3.386608    0.864099    0.481371
     12          6           0       -3.422841    2.029479   -0.507851
     13          6           0       -3.101879    3.372463    0.148785
     14          1           0       -4.103101    1.057653    1.291662
     15          1           0       -2.392816    0.817803    0.947395
     16          1           0       -4.416602    2.072888   -0.971715
     17          1           0       -2.707492    1.833133   -1.316764
     18          1           0       -2.102854    3.353531    0.596212
     19          1           0       -3.821675    3.594648    0.943221
     20          1           0       -3.133370    4.191615   -0.576376
     21          6           0        0.406499   -0.735745   -0.783414
     22          6           0        1.359671   -1.746441   -0.620701
     23          6           0        2.672373   -1.432417   -0.256352
     24          6           0        2.998840   -0.091189   -0.061884
     25          6           0        2.071764    0.938360   -0.216317
     26          6           0        0.764954    0.601073   -0.581059
     27          1           0       -0.610951   -0.988721   -1.066602
     28          1           0        1.084127   -2.785494   -0.777193
     29          1           0        3.430223   -2.194952   -0.123606
     30          1           0        2.376333    1.965053   -0.053357
     31          1           0        0.026798    1.388081   -0.706713
     32          7           0        4.385419    0.253568    0.324044
     33          8           0        4.647798    1.442863    0.489493
     34          8           0        5.183584   -0.672033    0.453779
 ---------------------------------------------------------------------

 SCF Done:  E(RHF) =  -669.535424158     A.U. after   15 cycles
 E2 =    -0.2092604241D+01 EUMP2 =    -0.67162802839919D+03

 The electronic state is 1-A.
 Alpha  occ. eigenvalues --  -20.60767 -20.60762 -15.85821 -11.31196 -11.27766
 Alpha  occ. eigenvalues --  -11.27762 -11.27486 -11.26778 -11.26768 -11.22705
 Alpha  occ. eigenvalues --  -11.22621 -11.22563 -11.22437 -11.22029 -11.22017
 Alpha  occ. eigenvalues --   -1.59842  -1.39395  -1.19368  -1.09543  -1.08757
 Alpha  occ. eigenvalues --   -1.04774  -1.04566  -0.97007  -0.95594  -0.88015
 Alpha  occ. eigenvalues --   -0.86168  -0.82428  -0.80615  -0.79343  -0.77474
 Alpha  occ. eigenvalues --   -0.72039  -0.71165  -0.70522  -0.66250  -0.65015
 Alpha  occ. eigenvalues --   -0.64715  -0.62222  -0.61876  -0.60360  -0.58604
 Alpha  occ. eigenvalues --   -0.56368  -0.55229  -0.53661  -0.53407  -0.53097
 Alpha  occ. eigenvalues --   -0.52858  -0.50952  -0.48928  -0.48793  -0.48786
 Alpha  occ. eigenvalues --   -0.47674  -0.46870  -0.46814  -0.44829  -0.44799
 Alpha  occ. eigenvalues --   -0.37340  -0.36374
 Alpha virt. eigenvalues --    0.05047   0.11191   0.16468   0.17569   0.21556
 Alpha virt. eigenvalues --    0.23644   0.25102   0.26084   0.26826   0.27658
 Alpha virt. eigenvalues --    0.29541   0.30457   0.30830   0.31515   0.32161

 Mulliken charges:
               1
     1  C   -0.301283
     2  C   -0.302923
     3  C   -0.475162
     4  H    0.155616
     5  H    0.139605
     6  H    0.157145
     7  H    0.153036
     8  H    0.148867
     9  H    0.158695
    10  H    0.164267
    11  C   -0.302980
    12  C   -0.302184
    13  C   -0.477140
    14  H    0.155520
    15  H    0.150377
    16  H    0.157312
    17  H    0.144441
    18  H    0.152706
    19  H    0.160202
    20  H    0.163874
    21  C   -0.176723
    22  C   -0.220517
    23  C   -0.170656
    24  C    0.158621
    25  C   -0.171382
    26  C   -0.226355
    27  H    0.234872
    28  H    0.224038
    29  H    0.275659
    30  H    0.275946
    31  H    0.229237
    32  N    0.487989
    33  O   -0.460339
    34  O   -0.460379
 Sum of Mulliken charges =  -0.00000

 Dipole moment (field-independent basis, Debye):
    X=             -5.1313    Y=             -1.1812    Z=             -1.2437  Tot=              5.4104
 Quadrupole moment (field-independent basis, Debye-Ang):
   XX=           -122.1919   YY=            -90.4994   ZZ=            -95.5238
   XY=             -5.1085   XZ=             -4.4691   YZ=             -0.0522

 Normal termination of Gaussian 16 at Thu May  6 13:52:54 2021.
