 Gaussian 16, Revision A.03,
 Gaussian 16:  EM64L-G16RevA.03 25-Dec-2016

 -------------
 #p 6-31g* mp2
 -------------

 ------------------------------------------------------
 Input file generated by CHIRIPA (05-May-2021 14:57:21)
 ------------------------------------------------------
 Symbolic Z-matrix:
 Charge =  0 Multiplicity = 1

                         Standard orientation:
 ---------------------------------------------------------------------
 Center     Atomic      Atomic             Coordinates (Angstroms)
 Number     Number       Type             X           Y           Z
 ---------------------------------------------------------------------
      1          6           0        4.369557   -2.032294    0.823762
      2          6           0        4.472630   -0.923129    1.669723
      3          6           0        3.947633    0.314260    1.285281
      4          6           0        3.323240    0.407165    0.042384
      5          6           0        3.204800   -0.679545   -0.822672
      6          6           0        3.737086   -1.907183   -0.417547
      7          1           0        4.780218   -2.989739    1.130440
      8          1           0        4.963283   -1.017355    2.634309
      9          1           0        4.013535    1.189155    1.920603
     10          1           0        2.710086   -0.554677   -1.778226
     11          1           0        3.655582   -2.766875   -1.076585
     12          7           0        2.763591    1.711971   -0.375555
     13          8           0        2.218234    1.767700   -1.475609
     14          8           0        2.880892    2.654243    0.404830
     15          6           0       -1.351972   -0.804547   -1.427625
     16          6           0       -2.241588   -1.802462   -1.016202
     17          6           0       -3.388088   -1.474696   -0.286369
     18          6           0       -3.614969   -0.132910    0.015995
     19          6           0       -2.747564    0.884103   -0.379712
     20          6           0       -1.607348    0.533192   -1.108630
     21          1           0       -0.463785   -1.068152   -1.994221
     22          1           0       -2.045808   -2.842196   -1.262508
     23          1           0       -4.093512   -2.227162    0.044673
     24          1           0       -2.969583    1.911826   -0.119116
     25          1           0       -0.918213    1.310293   -1.426832
     26          7           0       -4.825391    0.226332    0.788151
     27          8           0       -5.002599    1.415823    1.041815
     28          8           0       -5.573990   -0.688387    1.125083
 ---------------------------------------------------------------------

 SCF Done:  E(RHF) =  -868.339248440     A.U. after   16 cycles
 E2 =    -0.2599217791D+01 EUMP2 =    -0.87093846623104D+03

 The electronic state is 1-A.
 Alpha  occ. eigenvalues --  -20.61805 -20.61732 -20.60448 -20.60434 -15.86796
 Alpha  occ. eigenvalues --  -15.85491 -11.32007 -11.30802 -11.28624 -11.28499
 Alpha  occ. eigenvalues --  -11.28231 -11.27562 -11.27476 -11.27393 -11.27259
 Alpha  occ. eigenvalues --  -11.27102 -11.26453 -11.26160  -1.60827  -1.59520
 Alpha  occ. eigenvalues --   -1.40389  -1.39074  -1.20155  -1.18954  -1.09571
 Alpha  occ. eigenvalues --   -1.08368  -1.05541  -1.04326  -0.96437  -0.95218
 Alpha  occ. eigenvalues --   -0.86943  -0.85726  -0.83280  -0.82034  -0.78357
 Alpha  occ. eigenvalues --   -0.77081  -0.73020  -0.72133  -0.71710  -0.71261
 Alpha  occ. eigenvalues --   -0.70842  -0.70093  -0.65813  -0.65539  -0.64599
 Alpha  occ. eigenvalues --   -0.64288  -0.62901  -0.61648  -0.56026  -0.54879
 Alpha  occ. eigenvalues --   -0.53861  -0.53629  -0.52690  -0.52387  -0.49794
 Alpha  occ. eigenvalues --   -0.49753  -0.48471  -0.48463  -0.45818  -0.44492
 Alpha  occ. eigenvalues --   -0.38105  -0.37150  -0.36944  -0.35928
 Alpha virt. eigenvalues --    0.04135   0.05413   0.10495   0.11716   0.15662
 Alpha virt. eigenvalues --    0.16923   0.19980   0.21925   0.25628   0.27079
 Alpha virt. eigenvalues --    0.28038   0.28935   0.30630   0.31049   0.32826

 Mulliken charges:
               1
     1  C   -0.169778
     2  C   -0.217791
     3  C   -0.169601
     4  C    0.159942
     5  C   -0.173391
     6  C   -0.218049
     7  H    0.228362
     8  H    0.226870
     9  H    0.278129
    10  H    0.269568
    11  H    0.223303
    12  N    0.488873
    13  O   -0.469569
    14  O   -0.453680
    15  C   -0.172456
    16  C   -0.218466
    17  C   -0.172627
    18  C    0.158702
    19  C   -0.172083
    20  C   -0.225945
    21  H    0.219859
    22  H    0.218780
    23  H    0.273380
    24  H    0.277657
    25  H    0.244212
    26  N    0.487954
    27  O   -0.459621
    28  O   -0.462535
 Sum of Mulliken charges =  -0.00000

 Dipole moment (field-independent basis, Debye):
    X=              6.5740    Y=             -5.7044    Z=             -1.0749  Tot=              8.7700
 Quadrupole moment (field-independent basis, Debye-Ang):
   XX=           -122.7261   YY=           -103.1300   ZZ=           -102.0381
   XY=             -8.9423   XZ=             17.1246   YZ=              2.4288

 Normal termination of Gaussian 16 at Thu May  6 04:53:01 2021.
