 Gaussian 16, Revision A.03,
 Gaussian 16:  EM64L-G16RevA.03 25-Dec-2016

 -------------
 #p 6-31g* mp2
 -------------

 ------------------------------------------------------
 Input file generated by CHIRIPA (05-May-2021 14:57:25)
 ------------------------------------------------------
 Symbolic Z-matrix:
 Charge =  0 Multiplicity = 1

                         Standard orientation:
 ---------------------------------------------------------------------
 Center     Atomic      Atomic             Coordinates (Angstroms)
 Number     Number       Type             X           Y           Z
 ---------------------------------------------------------------------
      1          6           0        1.103135   -1.444568    0.374328
      2          6           0        2.295686   -2.165926    0.492592
      3          6           0        3.525663   -1.550356    0.242035
      4          6           0        3.526208   -0.205905   -0.126392
      5          6           0        2.355061    0.539584   -0.252693
      6          6           0        1.136570   -0.096492    0.002718
      7          1           0        0.152121   -1.930722    0.570853
      8          1           0        2.272751   -3.212983    0.781021
      9          1           0        4.463915   -2.085176    0.326116
     10          1           0        2.409858    1.582046   -0.541984
     11          1           0        0.211994    0.466202   -0.089910
     12          7           0        4.822250    0.456626   -0.394215
     13          8           0        4.795770    1.642184   -0.717305
     14          8           0        5.840027   -0.222186   -0.275974
     15          6           0       -1.757188    1.933832    1.233903
     16          6           0       -2.231177    2.213148   -0.052113
     17          6           0       -3.093430    1.323449   -0.699803
     18          6           0       -3.462977    0.158605   -0.029085
     19          6           0       -3.007678   -0.147819    1.252358
     20          6           0       -2.146265    0.756316    1.880894
     21          1           0       -1.087696    2.630578    1.729605
     22          1           0       -1.930689    3.126850   -0.556988
     23          1           0       -3.475332    1.514863   -1.695258
     24          1           0       -3.324861   -1.066773    1.730202
     25          1           0       -1.779727    0.536793    2.879645
     26          7           0       -4.375361   -0.790921   -0.704628
     27          8           0       -4.686037   -1.810286   -0.092245
     28          8           0       -4.762535   -0.497815   -1.833708
 ---------------------------------------------------------------------

 SCF Done:  E(RHF) =  -868.337429446     A.U. after   16 cycles
 E2 =    -0.2602113491D+01 EUMP2 =    -0.87093954293660D+03

 The electronic state is 1-A.
 Alpha  occ. eigenvalues --  -20.61735 -20.61722 -20.60992 -20.60981 -15.86792
 Alpha  occ. eigenvalues --  -15.86038 -11.32384 -11.31385 -11.28963 -11.28934
 Alpha  occ. eigenvalues --  -11.28653 -11.27970 -11.27959 -11.27936 -11.27916
 Alpha  occ. eigenvalues --  -11.27609 -11.26931 -11.26773  -1.60805  -1.60064
 Alpha  occ. eigenvalues --   -1.40351  -1.39619  -1.20589  -1.19531  -1.09926
 Alpha  occ. eigenvalues --   -1.08920  -1.05982  -1.04926  -0.96708  -0.95770
 Alpha  occ. eigenvalues --   -0.87342  -0.86318  -0.83513  -0.82602  -0.78534
 Alpha  occ. eigenvalues --   -0.77670  -0.72995  -0.72257  -0.72139  -0.71604
 Alpha  occ. eigenvalues --   -0.71388  -0.70635  -0.66186  -0.65916  -0.65171
 Alpha  occ. eigenvalues --   -0.64961  -0.63279  -0.62322  -0.56412  -0.55427
 Alpha  occ. eigenvalues --   -0.54492  -0.54012  -0.53266  -0.52769  -0.49774
 Alpha  occ. eigenvalues --   -0.49744  -0.49019  -0.49004  -0.45706  -0.45030
 Alpha  occ. eigenvalues --   -0.38587  -0.37743  -0.37387  -0.36492
 Alpha virt. eigenvalues --    0.03936   0.04865   0.09893   0.11192   0.15335
 Alpha virt. eigenvalues --    0.16432   0.20291   0.21524   0.26181   0.27060
 Alpha virt. eigenvalues --    0.27538   0.28264   0.30056   0.31154   0.31607

 Mulliken charges:
               1
     1  C   -0.175800
     2  C   -0.218093
     3  C   -0.171873
     4  C    0.159466
     5  C   -0.176570
     6  C   -0.226387
     7  H    0.226011
     8  H    0.224396
     9  H    0.275893
    10  H    0.271274
    11  H    0.236084
    12  N    0.488094
    13  O   -0.461988
    14  O   -0.459516
    15  C   -0.182510
    16  C   -0.224683
    17  C   -0.169873
    18  C    0.158873
    19  C   -0.177841
    20  C   -0.217822
    21  H    0.232599
    22  H    0.229637
    23  H    0.280582
    24  H    0.277902
    25  H    0.229186
    26  N    0.487963
    27  O   -0.458955
    28  O   -0.456050
 Sum of Mulliken charges =  -0.00000

 Dipole moment (field-independent basis, Debye):
    X=             -1.6925    Y=              1.0622    Z=              3.3377  Tot=              3.8902
 Quadrupole moment (field-independent basis, Debye-Ang):
   XX=           -158.8585   YY=            -97.5472   ZZ=           -102.5843
   XY=            -21.2840   XZ=             -3.6073   YZ=             -3.3010

 Normal termination of Gaussian 16 at Fri May  7 08:05:24 2021.
