 Gaussian 16, Revision A.03,
 Gaussian 16:  EM64L-G16RevA.03 25-Dec-2016

 -------------
 #p 6-31g* mp2
 -------------

 ------------------------------------------------------
 Input file generated by CHIRIPA (05-May-2021 14:51:09)
 ------------------------------------------------------
 Symbolic Z-matrix:
 Charge =  0 Multiplicity = 1

                         Standard orientation:
 ---------------------------------------------------------------------
 Center     Atomic      Atomic             Coordinates (Angstroms)
 Number     Number       Type             X           Y           Z
 ---------------------------------------------------------------------
      1          6           0       -3.122279   -0.266896    0.512513
      2          6           0       -2.463896    0.931584    1.196737
      3          6           0       -1.026352    0.647031    1.632961
      4          1           0       -3.108691   -1.125377    1.197911
      5          1           0       -2.523070   -0.555689   -0.362097
      6          1           0       -3.064919    1.218897    2.068997
      7          1           0       -2.479224    1.787365    0.509701
      8          1           0       -0.407224    0.381737    0.769885
      9          1           0       -0.996246   -0.189961    2.338042
     10          1           0       -0.574843    1.517106    2.119755
     11          6           0       -4.559688    0.002089    0.070664
     12          6           0       -5.218071   -1.196391   -0.613561
     13          6           0       -6.655614   -0.911839   -1.049785
     14          1           0       -5.158897    0.290882    0.945274
     15          1           0       -4.573275    0.860570   -0.614734
     16          1           0       -5.202742   -2.052173    0.073476
     17          1           0       -4.617047   -1.483705   -1.485821
     18          1           0       -6.685720   -0.074847   -1.754865
     19          1           0       -7.274743   -0.646544   -0.186709
     20          1           0       -7.107124   -1.781914   -1.536579
     21          6           0        3.768194    0.878705   -0.437078
     22          6           0        2.313522    1.346326   -0.494046
     23          6           0        2.184253    2.841610   -0.785949
     24          1           0        4.300939    1.451705    0.334155
     25          1           0        4.258206    1.110348   -1.392915
     26          1           0        1.826019    1.112621    0.461118
     27          1           0        1.784130    0.772014   -1.265101
     28          1           0        2.645313    3.087582   -1.747990
     29          1           0        2.687439    3.430124   -0.011963
     30          1           0        1.136068    3.154423   -0.822236
     31          6           0        3.913772   -0.613898   -0.146099
     32          6           0        5.368444   -1.081518   -0.089130
     33          6           0        5.497714   -2.576803    0.202773
     34          1           0        3.423761   -0.845541    0.809739
     35          1           0        3.381026   -1.186897   -0.917332
     36          1           0        5.897836   -0.507206    0.681924
     37          1           0        5.855948   -0.847813   -1.044294
     38          1           0        4.994527   -3.165317   -0.571214
     39          1           0        5.036654   -2.822775    1.164814
     40          1           0        6.545899   -2.889615    0.239060
 ---------------------------------------------------------------------

 SCF Done:  E(RHF) =  -470.732967836     A.U. after   11 cycles
 E2 =    -0.1582680769D+01 EUMP2 =    -0.47231564860513D+03

 The electronic state is 1-A.
 Alpha  occ. eigenvalues --  -11.21600 -11.21590 -11.21581 -11.21526 -11.21400
 Alpha  occ. eigenvalues --  -11.21374 -11.21341 -11.21314 -11.21070 -11.21054
 Alpha  occ. eigenvalues --  -11.21052 -11.21015  -1.08429  -1.08397  -1.03547
 Alpha  occ. eigenvalues --   -1.03479  -0.95994  -0.95934  -0.87016  -0.86951
 Alpha  occ. eigenvalues --   -0.79689  -0.79482  -0.78270  -0.78180  -0.65082
 Alpha  occ. eigenvalues --   -0.65009  -0.61014  -0.60831  -0.59370  -0.59296
 Alpha  occ. eigenvalues --   -0.57604  -0.57554  -0.55305  -0.55190  -0.52694
 Alpha  occ. eigenvalues --   -0.52631  -0.52437  -0.52343  -0.50014  -0.49837
 Alpha  occ. eigenvalues --   -0.48033  -0.47762  -0.46743  -0.46479  -0.45851
 Alpha  occ. eigenvalues --   -0.45743  -0.45708  -0.45498  -0.43779  -0.43742
 Alpha virt. eigenvalues --    0.22096   0.23005   0.23599   0.24994   0.26236
 Alpha virt. eigenvalues --    0.26478   0.26982   0.27518   0.27997   0.29001
 Alpha virt. eigenvalues --    0.30709   0.30992   0.31560   0.31770   0.32243

 Mulliken charges:
               1
     1  C   -0.298535
     2  C   -0.299460
     3  C   -0.481436
     4  H    0.149647
     5  H    0.149687
     6  H    0.151698
     7  H    0.151623
     8  H    0.162712
     9  H    0.154618
    10  H    0.159567
    11  C   -0.298298
    12  C   -0.299639
    13  C   -0.475702
    14  H    0.149536
    15  H    0.149607
    16  H    0.151947
    17  H    0.151887
    18  H    0.155169
    19  H    0.155186
    20  H    0.160240
    21  C   -0.297617
    22  C   -0.306019
    23  C   -0.475702
    24  H    0.149491
    25  H    0.149087
    26  H    0.160814
    27  H    0.150094
    28  H    0.154956
    29  H    0.155052
    30  H    0.160079
    31  C   -0.298509
    32  C   -0.299581
    33  C   -0.475692
    34  H    0.149923
    35  H    0.149287
    36  H    0.151926
    37  H    0.151845
    38  H    0.155097
    39  H    0.155248
    40  H    0.160164
 Sum of Mulliken charges =  -0.00000

 Dipole moment (field-independent basis, Debye):
    X=             -0.0008    Y=             -0.0065    Z=              0.0132  Tot=              0.0148
 Quadrupole moment (field-independent basis, Debye-Ang):
   XX=            -85.9679   YY=            -85.8302   ZZ=            -83.1579
   XY=              0.4590   XZ=             -0.6537   YZ=              0.1465

 Normal termination of Gaussian 16 at Thu May  6 02:09:56 2021.
