 Gaussian 16, Revision A.03,
 Gaussian 16:  EM64L-G16RevA.03 25-Dec-2016

 -------------
 #p 6-31g* mp2
 -------------

 ------------------------------------------------------
 Input file generated by CHIRIPA (05-May-2021 14:51:10)
 ------------------------------------------------------
 Symbolic Z-matrix:
 Charge =  0 Multiplicity = 1

                         Standard orientation:
 ---------------------------------------------------------------------
 Center     Atomic      Atomic             Coordinates (Angstroms)
 Number     Number       Type             X           Y           Z
 ---------------------------------------------------------------------
      1          6           0       -3.964111    0.152321   -0.127488
      2          6           0       -4.005330   -1.186428    0.610102
      3          6           0       -5.179236   -2.064649    0.175976
      4          1           0       -4.907810    0.687791    0.044696
      5          1           0       -3.903415   -0.034351   -1.208628
      6          1           0       -4.064535   -0.997284    1.689609
      7          1           0       -3.061346   -1.718689    0.436298
      8          1           0       -5.121770   -2.282561   -0.895385
      9          1           0       -6.130658   -1.557057    0.365047
     10          1           0       -5.189507   -3.016697    0.715753
     11          6           0       -2.796121    1.041413    0.295646
     12          6           0       -2.754901    2.380161   -0.441944
     13          6           0       -1.580995    3.258383   -0.007818
     14          1           0       -2.856816    1.228085    1.376786
     15          1           0       -1.852421    0.505943    0.123462
     16          1           0       -3.698885    2.912423   -0.268141
     17          1           0       -2.695696    2.191018   -1.521451
     18          1           0       -0.629573    2.750791   -0.196889
     19          1           0       -1.638462    3.476295    1.063542
     20          1           0       -1.570724    4.210431   -0.547596
     21          6           0        2.640652   -0.540816   -0.267067
     22          6           0        1.903303   -1.879780   -0.228620
     23          6           0        0.424944   -1.751320   -0.597054
     24          1           0        2.149481    0.160900    0.420893
     25          1           0        2.548750   -0.108302   -1.272989
     26          1           0        1.997740   -2.310297    0.776543
     27          1           0        2.396402   -2.578451   -0.916608
     28          1           0        0.313657   -1.344984   -1.607553
     29          1           0       -0.087271   -1.075306    0.095219
     30          1           0       -0.082905   -2.720239   -0.563177
     31          6           0        4.119579   -0.652917    0.098909
     32          6           0        4.856927    0.686046    0.060462
     33          6           0        6.335288    0.557586    0.428897
     34          1           0        4.211480   -1.085432    1.104831
     35          1           0        4.610749   -1.354634   -0.589051
     36          1           0        4.363828    1.384718    0.748451
     37          1           0        4.762490    1.116563   -0.944700
     38          1           0        6.847501   -0.118429   -0.263377
     39          1           0        6.446574    0.151250    1.439395
     40          1           0        6.843136    1.526505    0.395019
 ---------------------------------------------------------------------

 SCF Done:  E(RHF) =  -470.733309338     A.U. after   11 cycles
 E2 =    -0.1582964874D+01 EUMP2 =    -0.47231627421184D+03

 The electronic state is 1-A.
 Alpha  occ. eigenvalues --  -11.21664 -11.21619 -11.21555 -11.21529 -11.21449
 Alpha  occ. eigenvalues --  -11.21386 -11.21334 -11.21272 -11.21155 -11.21084
 Alpha  occ. eigenvalues --  -11.21040 -11.21022  -1.08474  -1.08370  -1.03576
 Alpha  occ. eigenvalues --   -1.03476  -0.96035  -0.95925  -0.87053  -0.86943
 Alpha  occ. eigenvalues --   -0.79650  -0.79538  -0.78307  -0.78164  -0.65131
 Alpha  occ. eigenvalues --   -0.64983  -0.60975  -0.60874  -0.59402  -0.59290
 Alpha  occ. eigenvalues --   -0.57680  -0.57511  -0.55378  -0.55168  -0.52730
 Alpha  occ. eigenvalues --   -0.52628  -0.52506  -0.52311  -0.50024  -0.49836
 Alpha  occ. eigenvalues --   -0.48021  -0.47837  -0.46738  -0.46564  -0.45953
 Alpha  occ. eigenvalues --   -0.45763  -0.45693  -0.45367  -0.43827  -0.43727
 Alpha virt. eigenvalues --    0.21298   0.22979   0.24007   0.24303   0.25446
 Alpha virt. eigenvalues --    0.26694   0.27111   0.27299   0.28116   0.29521
 Alpha virt. eigenvalues --    0.30543   0.31546   0.31703   0.31913   0.32101

 Mulliken charges:
               1
     1  C   -0.297274
     2  C   -0.302418
     3  C   -0.475629
     4  H    0.149271
     5  H    0.149521
     6  H    0.151273
     7  H    0.155234
     8  H    0.155178
     9  H    0.154968
    10  H    0.159933
    11  C   -0.307224
    12  C   -0.298836
    13  C   -0.476142
    14  H    0.148585
    15  H    0.158649
    16  H    0.151723
    17  H    0.151859
    18  H    0.155464
    19  H    0.154790
    20  H    0.160154
    21  C   -0.298799
    22  C   -0.299465
    23  C   -0.483127
    24  H    0.149814
    25  H    0.149434
    26  H    0.152397
    27  H    0.152224
    28  H    0.154995
    29  H    0.161886
    30  H    0.160890
    31  C   -0.298310
    32  C   -0.299771
    33  C   -0.475746
    34  H    0.149724
    35  H    0.149758
    36  H    0.152247
    37  H    0.151960
    38  H    0.155168
    39  H    0.155243
    40  H    0.160400
 Sum of Mulliken charges =  -0.00000

 Dipole moment (field-independent basis, Debye):
    X=              0.0454    Y=             -0.0195    Z=             -0.0051  Tot=              0.0496
 Quadrupole moment (field-independent basis, Debye-Ang):
   XX=            -86.3113   YY=            -85.1998   ZZ=            -83.3805
   XY=             -0.9451   XZ=             -1.0470   YZ=              0.2868

 Normal termination of Gaussian 16 at Wed May  5 21:24:59 2021.
