 Gaussian 16, Revision A.03,
 Gaussian 16:  EM64L-G16RevA.03 25-Dec-2016

 -------------
 #p 6-31g* mp2
 -------------

 ------------------------------------------------------
 Input file generated by CHIRIPA (05-May-2021 14:51:07)
 ------------------------------------------------------
 Symbolic Z-matrix:
 Charge =  0 Multiplicity = 1

                         Standard orientation:
 ---------------------------------------------------------------------
 Center     Atomic      Atomic             Coordinates (Angstroms)
 Number     Number       Type             X           Y           Z
 ---------------------------------------------------------------------
      1          6           0        2.819166    0.161710   -0.022574
      2          6           0        4.046734    0.040968   -0.926169
      3          6           0        4.670536   -1.354573   -0.892569
      4          1           0        3.104431   -0.089245    1.008246
      5          1           0        2.071584   -0.582599   -0.330018
      6          1           0        4.791218    0.786212   -0.617994
      7          1           0        3.758555    0.292426   -1.954924
      8          1           0        3.947023   -2.107950   -1.220520
      9          1           0        4.985553   -1.611359    0.124007
     10          1           0        5.546532   -1.418581   -1.545558
     11          6           0        2.184406    1.551057   -0.045423
     12          6           0        0.956838    1.671798    0.858172
     13          6           0        0.333035    3.067339    0.824572
     14          1           0        2.931987    2.295366    0.262021
     15          1           0        1.899140    1.802012   -1.076243
     16          1           0        1.245017    1.420341    1.886927
     17          1           0        0.212354    0.926555    0.549997
     18          1           0        0.018019    3.324125   -0.192004
     19          1           0        1.056549    3.820717    1.152523
     20          1           0       -0.542960    3.131348    1.477561
     21          6           0       -2.093886   -1.144771    0.611824
     22          6           0       -0.841269   -1.893528    0.155429
     23          6           0       -0.035728   -2.464659    1.322781
     24          1           0       -1.800588   -0.331351    1.289520
     25          1           0       -2.727068   -1.826068    1.196896
     26          1           0       -0.211297   -1.211410   -0.429777
     27          1           0       -1.137566   -2.705140   -0.521409
     28          1           0       -0.643385   -3.166227    1.903433
     29          1           0        0.288148   -1.664010    1.995586
     30          1           0        0.855337   -2.995809    0.973863
     31          6           0       -2.909685   -0.567996   -0.543827
     32          6           0       -4.162303    0.180762   -0.087433
     33          6           0       -4.967843    0.751892   -1.254784
     34          1           0       -2.276503    0.113301   -1.128899
     35          1           0       -3.202983   -1.381415   -1.221523
     36          1           0       -3.866006    0.992373    0.589407
     37          1           0       -4.792275   -0.501357    0.497774
     38          1           0       -5.291720   -0.048757   -1.927588
     39          1           0       -4.360186    1.453459   -1.835436
     40          1           0       -5.858909    1.283042   -0.905865
 ---------------------------------------------------------------------

 SCF Done:  E(RHF) =  -470.732048259     A.U. after   11 cycles
 E2 =    -0.1585514072D+01 EUMP2 =    -0.47231756233091D+03

 The electronic state is 1-A.
 Alpha  occ. eigenvalues --  -11.21627 -11.21617 -11.21604 -11.21604 -11.21426
 Alpha  occ. eigenvalues --  -11.21423 -11.21360 -11.21339 -11.21137 -11.21082
 Alpha  occ. eigenvalues --  -11.21077 -11.21029  -1.08534  -1.08387  -1.03588
 Alpha  occ. eigenvalues --   -1.03520  -0.96041  -0.95955  -0.87047  -0.86981
 Alpha  occ. eigenvalues --   -0.79639  -0.79613  -0.78326  -0.78239  -0.65519
 Alpha  occ. eigenvalues --   -0.64756  -0.61101  -0.60812  -0.59416  -0.59307
 Alpha  occ. eigenvalues --   -0.57673  -0.57562  -0.55414  -0.55155  -0.52705
 Alpha  occ. eigenvalues --   -0.52675  -0.52453  -0.52384  -0.50035  -0.49876
 Alpha  occ. eigenvalues --   -0.48042  -0.47865  -0.46767  -0.46670  -0.46080
 Alpha  occ. eigenvalues --   -0.45834  -0.45647  -0.45221  -0.43809  -0.43791
 Alpha virt. eigenvalues --    0.20209   0.22551   0.23872   0.24445   0.25571
 Alpha virt. eigenvalues --    0.26423   0.26512   0.27926   0.28332   0.29950
 Alpha virt. eigenvalues --    0.30723   0.31281   0.31646   0.32004   0.32324

 Mulliken charges:
               1
     1  C   -0.306621
     2  C   -0.299179
     3  C   -0.475764
     4  H    0.149976
     5  H    0.158639
     6  H    0.151893
     7  H    0.151675
     8  H    0.154966
     9  H    0.155359
    10  H    0.160325
    11  C   -0.297561
    12  C   -0.310718
    13  C   -0.475402
    14  H    0.149734
    15  H    0.148861
    16  H    0.151690
    17  H    0.163611
    18  H    0.154890
    19  H    0.155730
    20  H    0.159759
    21  C   -0.301823
    22  C   -0.306882
    23  C   -0.476739
    24  H    0.152258
    25  H    0.150638
    26  H    0.154821
    27  H    0.152854
    28  H    0.155004
    29  H    0.157965
    30  H    0.160326
    31  C   -0.298837
    32  C   -0.299567
    33  C   -0.475726
    34  H    0.148993
    35  H    0.149924
    36  H    0.152184
    37  H    0.152030
    38  H    0.155131
    39  H    0.155205
    40  H    0.160380
 Sum of Mulliken charges =  -0.00000

 Dipole moment (field-independent basis, Debye):
    X=             -0.0004    Y=             -0.0111    Z=              0.0143  Tot=              0.0181
 Quadrupole moment (field-independent basis, Debye-Ang):
   XX=            -84.9368   YY=            -85.1488   ZZ=            -84.7216
   XY=              1.4823   XZ=              0.0477   YZ=              0.5236

 Normal termination of Gaussian 16 at Wed May  5 18:05:05 2021.
