 Gaussian 16, Revision A.03,
 Gaussian 16:  EM64L-G16RevA.03 25-Dec-2016

 -------------
 #p 6-31g* mp2
 -------------

 ------------------------------------------------------
 Input file generated by CHIRIPA (05-May-2021 14:51:10)
 ------------------------------------------------------
 Symbolic Z-matrix:
 Charge =  0 Multiplicity = 1

                         Standard orientation:
 ---------------------------------------------------------------------
 Center     Atomic      Atomic             Coordinates (Angstroms)
 Number     Number       Type             X           Y           Z
 ---------------------------------------------------------------------
      1          6           0        2.765005    0.622249   -0.262085
      2          6           0        2.557525   -0.830427   -0.691817
      3          6           0        3.864704   -1.527339   -1.070485
      4          1           0        3.252955    1.173132   -1.077792
      5          1           0        3.456767    0.649660    0.591208
      6          1           0        1.865278   -0.855194   -1.543167
      7          1           0        2.069838   -1.377870    0.124935
      8          1           0        4.558130   -1.532209   -0.223290
      9          1           0        4.352407   -1.006563   -1.900870
     10          1           0        3.693191   -2.564657   -1.374481
     11          6           0        1.467376    1.332352    0.119545
     12          6           0        1.674857    2.785028    0.549276
     13          6           0        0.367677    3.481940    0.927944
     14          1           0        0.775614    1.304942   -0.733748
     15          1           0        0.979426    0.781469    0.935251
     16          1           0        2.162543    3.332471   -0.267476
     17          1           0        2.367104    2.809795    1.400626
     18          1           0       -0.120025    2.961165    1.758329
     19          1           0       -0.325748    3.486810    0.080749
     20          1           0        0.539191    4.519259    1.231940
     21          6           0       -2.516841   -0.335441    0.175807
     22          6           0       -3.277835    0.114328   -1.071823
     23          6           0       -4.074578    1.399793   -0.846933
     24          1           0       -3.229452   -0.483280    0.998775
     25          1           0       -1.836950    0.467943    0.491587
     26          1           0       -3.955081   -0.690202   -1.385963
     27          1           0       -2.563352    0.260929   -1.891969
     28          1           0       -3.409542    2.219253   -0.555706
     29          1           0       -4.809179    1.262718   -0.046826
     30          1           0       -4.610816    1.703200   -1.751506
     31          6           0       -1.715541   -1.619160   -0.033266
     32          6           0       -0.954547   -2.068930    1.214364
     33          6           0       -0.157804   -3.354394    0.989474
     34          1           0       -2.395432   -2.422544   -0.349047
     35          1           0       -1.002930   -1.471321   -0.856234
     36          1           0       -1.669029   -2.215529    2.034509
     37          1           0       -0.277301   -1.264399    1.528504
     38          1           0        0.576797   -3.217319    0.189366
     39          1           0       -0.822840   -4.173855    0.698246
     40          1           0        0.378434   -3.657801    1.894047
 ---------------------------------------------------------------------

 SCF Done:  E(RHF) =  -470.732452331     A.U. after   11 cycles
 E2 =    -0.1585791149D+01 EUMP2 =    -0.47231824347998D+03

 The electronic state is 1-A.
 Alpha  occ. eigenvalues --  -11.21692 -11.21649 -11.21554 -11.21550 -11.21499
 Alpha  occ. eigenvalues --  -11.21435 -11.21313 -11.21249 -11.21168 -11.21126
 Alpha  occ. eigenvalues --  -11.21030 -11.21008  -1.08552  -1.08339  -1.03633
 Alpha  occ. eigenvalues --   -1.03468  -0.96071  -0.95921  -0.87080  -0.86943
 Alpha  occ. eigenvalues --   -0.79707  -0.79538  -0.78399  -0.78145  -0.65268
 Alpha  occ. eigenvalues --   -0.64912  -0.61120  -0.60825  -0.59416  -0.59294
 Alpha  occ. eigenvalues --   -0.57705  -0.57528  -0.55363  -0.55206  -0.52749
 Alpha  occ. eigenvalues --   -0.52635  -0.52479  -0.52354  -0.50118  -0.49775
 Alpha  occ. eigenvalues --   -0.48110  -0.47813  -0.46781  -0.46524  -0.46273
 Alpha  occ. eigenvalues --   -0.45867  -0.45532  -0.45160  -0.43866  -0.43721
 Alpha virt. eigenvalues --    0.19904   0.21740   0.23537   0.23833   0.25426
 Alpha virt. eigenvalues --    0.25605   0.26613   0.28166   0.28303   0.30174
 Alpha virt. eigenvalues --    0.30910   0.31506   0.31556   0.31871   0.32268

 Mulliken charges:
               1
     1  C   -0.297739
     2  C   -0.308462
     3  C   -0.476017
     4  H    0.149893
     5  H    0.149677
     6  H    0.151816
     7  H    0.161343
     8  H    0.155533
     9  H    0.155449
    10  H    0.160601
    11  C   -0.305784
    12  C   -0.299315
    13  C   -0.477581
    14  H    0.150207
    15  H    0.155761
    16  H    0.152385
    17  H    0.152326
    18  H    0.156072
    19  H    0.155448
    20  H    0.161095
    21  C   -0.302847
    22  C   -0.299450
    23  C   -0.476409
    24  H    0.148866
    25  H    0.154994
    26  H    0.151742
    27  H    0.150958
    28  H    0.155859
    29  H    0.155227
    30  H    0.159869
    31  C   -0.299395
    32  C   -0.305178
    33  C   -0.480128
    34  H    0.149092
    35  H    0.152169
    36  H    0.151979
    37  H    0.155602
    38  H    0.159833
    39  H    0.155381
    40  H    0.159126
 Sum of Mulliken charges =  -0.00000

 Dipole moment (field-independent basis, Debye):
    X=              0.0615    Y=              0.0285    Z=              0.0088  Tot=              0.0683
 Quadrupole moment (field-independent basis, Debye-Ang):
   XX=            -85.2770   YY=            -85.6518   ZZ=            -83.8810
   XY=              1.5152   XZ=              0.1544   YZ=             -0.5795

 Normal termination of Gaussian 16 at Wed May  5 23:02:35 2021.
