 Gaussian 16, Revision A.03,
 Gaussian 16:  EM64L-G16RevA.03 25-Dec-2016

 -------------
 #p 6-31g* mp2
 -------------

 ------------------------------------------------------
 Input file generated by CHIRIPA (05-May-2021 14:51:10)
 ------------------------------------------------------
 Symbolic Z-matrix:
 Charge =  0 Multiplicity = 1

                         Standard orientation:
 ---------------------------------------------------------------------
 Center     Atomic      Atomic             Coordinates (Angstroms)
 Number     Number       Type             X           Y           Z
 ---------------------------------------------------------------------
      1          6           0        4.698525    0.188731    0.385100
      2          6           0        5.817117    0.707105   -0.519348
      3          6           0        7.076724    1.089666    0.258360
      4          1           0        4.451896    0.957690    1.129964
      5          1           0        5.063748   -0.683229    0.945183
      6          1           0        5.449452    1.576987   -1.078584
      7          1           0        6.060980   -0.063103   -1.262266
      8          1           0        7.470177    0.225610    0.803523
      9          1           0        6.855175    1.875019    0.988249
     10          1           0        7.863477    1.457601   -0.407601
     11          6           0        3.432700   -0.197807   -0.377791
     12          6           0        2.314109   -0.716181    0.526657
     13          6           0        1.054501   -1.098741   -0.251051
     14          1           0        3.067478    0.674154   -0.937874
     15          1           0        3.679330   -0.966765   -1.122655
     16          1           0        2.070246    0.054027    1.269575
     17          1           0        2.681773   -1.586063    1.085892
     18          1           0        1.276051   -1.884094   -0.980940
     19          1           0        0.661049   -0.234685   -0.796214
     20          1           0        0.267749   -1.466676    0.414910
     21          6           0       -4.104338   -0.721924    0.229125
     22          6           0       -3.009664   -1.608423   -0.365679
     23          6           0       -3.100413   -3.058883    0.109425
     24          1           0       -4.038819   -0.754991    1.325280
     25          1           0       -5.086745   -1.135414   -0.037896
     26          1           0       -2.029621   -1.192611   -0.098780
     27          1           0       -3.077677   -1.573091   -1.460549
     28          1           0       -4.064240   -3.496322   -0.170373
     29          1           0       -3.010230   -3.113680    1.199134
     30          1           0       -2.308506   -3.674888   -0.327935
     31          6           0       -4.026887    0.730999   -0.236433
     32          6           0       -5.121562    1.617499    0.358370
     33          6           0       -5.030813    3.067959   -0.116733
     34          1           0       -3.044481    1.144489    0.030587
     35          1           0       -4.092407    0.764066   -1.332589
     36          1           0       -5.053549    1.582167    1.453240
     37          1           0       -6.101603    1.201687    0.091471
     38          1           0       -5.120996    3.122756   -1.206442
     39          1           0       -4.066986    3.505397    0.163064
     40          1           0       -5.822719    3.683963    0.320626
 ---------------------------------------------------------------------

 SCF Done:  E(RHF) =  -470.733093725     A.U. after   11 cycles
 E2 =    -0.1582518937D+01 EUMP2 =    -0.47231561266177D+03

 The electronic state is 1-A.
 Alpha  occ. eigenvalues --  -11.21630 -11.21614 -11.21575 -11.21462 -11.21424
 Alpha  occ. eigenvalues --  -11.21365 -11.21356 -11.21291 -11.21097 -11.21082
 Alpha  occ. eigenvalues --  -11.21056 -11.21013  -1.08452  -1.08375  -1.03562
 Alpha  occ. eigenvalues --   -1.03469  -0.96015  -0.95926  -0.87034  -0.86942
 Alpha  occ. eigenvalues --   -0.79672  -0.79489  -0.78270  -0.78177  -0.65085
 Alpha  occ. eigenvalues --   -0.65015  -0.60973  -0.60897  -0.59459  -0.59213
 Alpha  occ. eigenvalues --   -0.57645  -0.57506  -0.55293  -0.55227  -0.52746
 Alpha  occ. eigenvalues --   -0.52604  -0.52427  -0.52355  -0.49965  -0.49857
 Alpha  occ. eigenvalues --   -0.47941  -0.47845  -0.46680  -0.46538  -0.45817
 Alpha  occ. eigenvalues --   -0.45752  -0.45708  -0.45641  -0.43777  -0.43690
 Alpha virt. eigenvalues --    0.21949   0.23034   0.23689   0.24805   0.26282
 Alpha virt. eigenvalues --    0.26668   0.27101   0.27452   0.27882   0.28936
 Alpha virt. eigenvalues --    0.30821   0.31368   0.31618   0.31741   0.32116

 Mulliken charges:
               1
     1  C   -0.298282
     2  C   -0.299645
     3  C   -0.475712
     4  H    0.149609
     5  H    0.149570
     6  H    0.151968
     7  H    0.151985
     8  H    0.155201
     9  H    0.155177
    10  H    0.160310
    11  C   -0.298662
    12  C   -0.299607
    13  C   -0.479149
    14  H    0.149626
    15  H    0.149750
    16  H    0.151700
    17  H    0.152029
    18  H    0.155649
    19  H    0.155784
    20  H    0.163830
    21  C   -0.297645
    22  C   -0.307589
    23  C   -0.475897
    24  H    0.148991
    25  H    0.149133
    26  H    0.161162
    27  H    0.151526
    28  H    0.155003
    29  H    0.154223
    30  H    0.160563
    31  C   -0.298234
    32  C   -0.299575
    33  C   -0.475656
    34  H    0.149283
    35  H    0.149586
    36  H    0.151814
    37  H    0.151928
    38  H    0.155135
    39  H    0.154961
    40  H    0.160159
 Sum of Mulliken charges =  -0.00000

 Dipole moment (field-independent basis, Debye):
    X=              0.0426    Y=             -0.0032    Z=             -0.0100  Tot=              0.0439
 Quadrupole moment (field-independent basis, Debye-Ang):
   XX=            -85.4380   YY=            -85.1417   ZZ=            -84.3956
   XY=             -0.4947   XZ=              0.0340   YZ=              0.4390

 Normal termination of Gaussian 16 at Wed May  5 18:11:36 2021.
