 Gaussian 16, Revision A.03,
 Gaussian 16:  EM64L-G16RevA.03 25-Dec-2016

 -------------
 #p 6-31g* mp2
 -------------

 ------------------------------------------------------
 Input file generated by CHIRIPA (05-May-2021 14:55:22)
 ------------------------------------------------------
 Symbolic Z-matrix:
 Charge =  0 Multiplicity = 1

                         Standard orientation:
 ---------------------------------------------------------------------
 Center     Atomic      Atomic             Coordinates (Angstroms)
 Number     Number       Type             X           Y           Z
 ---------------------------------------------------------------------
      1          6           0       -1.393764   -1.233338   -0.509777
      2          6           0       -1.645220    0.127226   -0.715097
      3          6           0       -2.918561    0.656560   -0.484972
      4          6           0       -3.921642   -0.207245   -0.047984
      5          6           0       -3.702353   -1.567223    0.165702
      6          6           0       -2.421322   -2.074737   -0.070807
      7          1           0       -0.401616   -1.636063   -0.691023
      8          1           0       -0.849120    0.783025   -1.055973
      9          1           0       -3.140796    1.705968   -0.635876
     10          1           0       -4.516118   -2.196107    0.505863
     11          1           0       -2.228928   -3.131777    0.089490
     12          7           0       -5.273742    0.341588    0.199018
     13          8           0       -6.140427   -0.440404    0.583703
     14          8           0       -5.441230    1.543362    0.003257
     15          6           0        5.461579    0.299441   -0.105735
     16          6           0        6.083970   -1.024598    0.338713
     17          6           0        7.538849   -1.173148   -0.107439
     18          1           0        5.520640    0.375979   -1.200082
     19          1           0        6.056605    1.130178    0.298266
     20          1           0        5.487148   -1.852579   -0.064857
     21          1           0        6.023246   -1.098080    1.432115
     22          1           0        8.153050   -0.367086    0.306833
     23          1           0        7.613906   -1.125873   -1.198646
     24          1           0        7.964082   -2.126692    0.220877
     25          6           0        4.007349    0.462667    0.332788
     26          6           0        3.384959    1.786707   -0.111660
     27          6           0        1.930079    1.935258    0.334492
     28          1           0        3.412324   -0.368069   -0.071212
     29          1           0        3.948288    0.386129    1.427137
     30          1           0        3.445682    1.860188   -1.205062
     31          1           0        3.981780    2.614687    0.291912
     32          1           0        1.855021    1.887982    1.425699
     33          1           0        1.315878    1.129195   -0.079780
     34          1           0        1.504845    2.888801    0.006176
 ---------------------------------------------------------------------

 SCF Done:  E(RHF) =  -669.535366430     A.U. after   15 cycles
 E2 =    -0.2090995626D+01 EUMP2 =    -0.67162636205593D+03

 The electronic state is 1-A.
 Alpha  occ. eigenvalues --  -20.60730 -20.60725 -15.85783 -11.31146 -11.27714
 Alpha  occ. eigenvalues --  -11.27700 -11.27461 -11.26735 -11.26688 -11.22420
 Alpha  occ. eigenvalues --  -11.22172 -11.22162 -11.22082 -11.21999 -11.21542
 Alpha  occ. eigenvalues --   -1.59805  -1.39359  -1.19316  -1.09141  -1.08715
 Alpha  occ. eigenvalues --   -1.04718  -1.04244  -0.96707  -0.95550  -0.87729
 Alpha  occ. eigenvalues --   -0.86118  -0.82380  -0.80311  -0.78937  -0.77427
 Alpha  occ. eigenvalues --   -0.72002  -0.71128  -0.70432  -0.65786  -0.64970
 Alpha  occ. eigenvalues --   -0.64744  -0.62123  -0.61596  -0.60075  -0.58298
 Alpha  occ. eigenvalues --   -0.56019  -0.55222  -0.53413  -0.53194  -0.53020
 Alpha  occ. eigenvalues --   -0.52754  -0.50629  -0.48769  -0.48756  -0.48607
 Alpha  occ. eigenvalues --   -0.47335  -0.46481  -0.46397  -0.44765  -0.44493
 Alpha  occ. eigenvalues --   -0.37296  -0.36311
 Alpha virt. eigenvalues --    0.05105   0.11261   0.16596   0.19981   0.22470
 Alpha virt. eigenvalues --    0.23795   0.25559   0.26200   0.26677   0.28114
 Alpha virt. eigenvalues --    0.28717   0.30467   0.31007   0.31213   0.31525

 Mulliken charges:
               1
     1  C   -0.171861
     2  C   -0.220154
     3  C   -0.171856
     4  C    0.158674
     5  C   -0.171215
     6  C   -0.218491
     7  H    0.224781
     8  H    0.228588
     9  H    0.275737
    10  H    0.275451
    11  H    0.223224
    12  N    0.488028
    13  O   -0.460569
    14  O   -0.460425
    15  C   -0.298797
    16  C   -0.299836
    17  C   -0.476054
    18  H    0.150115
    19  H    0.151753
    20  H    0.150341
    21  H    0.152974
    22  H    0.156485
    23  H    0.155622
    24  H    0.161476
    25  C   -0.297430
    26  C   -0.300307
    27  C   -0.478520
    28  H    0.143633
    29  H    0.151948
    30  H    0.152078
    31  H    0.156202
    32  H    0.161273
    33  H    0.145058
    34  H    0.162073
 Sum of Mulliken charges =  -0.00000

 Dipole moment (field-independent basis, Debye):
    X=              4.9559    Y=             -1.8759    Z=             -0.8136  Tot=              5.3611
 Quadrupole moment (field-independent basis, Debye-Ang):
   XX=           -132.4926   YY=            -89.6269   ZZ=            -94.4164
   XY=              8.8869   XZ=              3.3849   YZ=             -0.7386

 Normal termination of Gaussian 16 at Thu May  6 04:38:22 2021.
