 Gaussian 16, Revision A.03,
 Gaussian 16:  EM64L-G16RevA.03 25-Dec-2016

 -------------
 #p 6-31g* mp2
 -------------

 ------------------------------------------------------
 Input file generated by CHIRIPA (05-May-2021 14:55:19)
 ------------------------------------------------------
 Symbolic Z-matrix:
 Charge =  0 Multiplicity = 1

                         Standard orientation:
 ---------------------------------------------------------------------
 Center     Atomic      Atomic             Coordinates (Angstroms)
 Number     Number       Type             X           Y           Z
 ---------------------------------------------------------------------
      1          6           0        4.754844    1.054075    0.011030
      2          6           0        4.019631    0.922002    1.193629
      3          6           0        2.839699    0.172469    1.216154
      4          6           0        2.422301   -0.434237    0.032525
      5          6           0        3.132819   -0.321261   -1.161497
      6          6           0        4.309876    0.433116   -1.160693
      7          1           0        5.670327    1.638212    0.002593
      8          1           0        4.362801    1.403140    2.105104
      9          1           0        2.251117    0.053801    2.117768
     10          1           0        2.765455   -0.812548   -2.054301
     11          1           0        4.878817    0.533964   -2.080574
     12          7           0        1.174682   -1.230299    0.044023
     13          8           0        0.828294   -1.754959   -1.012094
     14          8           0        0.566810   -1.314518    1.108934
     15          6           0       -2.929272    1.013371   -0.097835
     16          6           0       -3.734027    2.313488   -0.090995
     17          6           0       -2.850859    3.556022   -0.208975
     18          1           0       -2.207559    1.031967    0.730253
     19          1           0       -2.340773    0.959452   -1.024203
     20          1           0       -4.321892    2.364285    0.834450
     21          1           0       -4.454038    2.291712   -0.919081
     22          1           0       -2.274797    3.532247   -1.139667
     23          1           0       -2.141900    3.605231    0.623827
     24          1           0       -3.446588    4.474128   -0.202077
     25          6           0       -3.798214   -0.237596    0.019421
     26          6           0       -2.993459   -1.537714    0.012581
     27          6           0       -3.876627   -2.780248    0.130561
     28          1           0       -4.386713   -0.183678    0.945789
     29          1           0       -4.519926   -0.256192   -0.808667
     30          1           0       -2.273447   -1.515939    0.840667
     31          1           0       -2.405594   -1.588510   -0.912864
     32          1           0       -4.585585   -2.829456   -0.702241
     33          1           0       -4.452688   -2.756472    1.061253
     34          1           0       -3.280898   -3.698354    0.123663
 ---------------------------------------------------------------------

 SCF Done:  E(RHF) =  -669.536434533     A.U. after   15 cycles
 E2 =    -0.2091880874D+01 EUMP2 =    -0.67162831540702D+03

 The electronic state is 1-A.
 Alpha  occ. eigenvalues --  -20.61006 -20.61000 -15.86017 -11.31322 -11.27881
 Alpha  occ. eigenvalues --  -11.27877 -11.27613 -11.26882 -11.26873 -11.20882
 Alpha  occ. eigenvalues --  -11.20585 -11.20365 -11.20105 -11.19660 -11.19588
 Alpha  occ. eigenvalues --   -1.60042  -1.39603  -1.19485  -1.08892  -1.07280
 Alpha  occ. eigenvalues --   -1.04879  -1.02358  -0.95738  -0.94900  -0.86280
 Alpha  occ. eigenvalues --   -0.85929  -0.82576  -0.78472  -0.77629  -0.76959
 Alpha  occ. eigenvalues --   -0.72240  -0.71345  -0.70594  -0.65143  -0.64882
 Alpha  occ. eigenvalues --   -0.63924  -0.62227  -0.59762  -0.58310  -0.56448
 Alpha  occ. eigenvalues --   -0.55382  -0.54223  -0.53210  -0.52971  -0.51623
 Alpha  occ. eigenvalues --   -0.51309  -0.49091  -0.49010  -0.48854  -0.46726
 Alpha  occ. eigenvalues --   -0.45516  -0.45112  -0.44480  -0.44226  -0.42623
 Alpha  occ. eigenvalues --   -0.37460  -0.36478
 Alpha virt. eigenvalues --    0.04883   0.11177   0.16376   0.21308   0.23890
 Alpha virt. eigenvalues --    0.25458   0.27229   0.27765   0.28113   0.28756
 Alpha virt. eigenvalues --    0.29024   0.30912   0.32328   0.32547   0.32780

 Mulliken charges:
               1
     1  C   -0.170476
     2  C   -0.218486
     3  C   -0.170649
     4  C    0.158741
     5  C   -0.170665
     6  C   -0.218534
     7  H    0.226126
     8  H    0.223910
     9  H    0.275529
    10  H    0.275765
    11  H    0.223916
    12  N    0.489651
    13  O   -0.458998
    14  O   -0.459535
    15  C   -0.297967
    16  C   -0.298485
    17  C   -0.474665
    18  H    0.151749
    19  H    0.148376
    20  H    0.150301
    21  H    0.150327
    22  H    0.153169
    23  H    0.152588
    24  H    0.157469
    25  C   -0.298001
    26  C   -0.308281
    27  C   -0.475623
    28  H    0.144455
    29  H    0.143978
    30  H    0.174505
    31  H    0.160687
    32  H    0.148098
    33  H    0.148753
    34  H    0.162271
 Sum of Mulliken charges =  -0.00000

 Dipole moment (field-independent basis, Debye):
    X=              4.7791    Y=              2.6730    Z=             -0.0123  Tot=              5.4759
 Quadrupole moment (field-independent basis, Debye-Ang):
   XX=            -75.6614   YY=            -99.3319   ZZ=            -89.0141
   XY=              4.5538   XZ=             -0.6166   YZ=              1.4163

 Normal termination of Gaussian 16 at Wed May  5 15:49:59 2021.
