 Gaussian 16, Revision A.03,
 Gaussian 16:  EM64L-G16RevA.03 25-Dec-2016

 -------------
 #p 6-31g* mp2
 -------------

 ------------------------------------------------------
 Input file generated by CHIRIPA (05-May-2021 14:53:11)
 ------------------------------------------------------
 Symbolic Z-matrix:
 Charge =  0 Multiplicity = 1

                         Standard orientation:
 ---------------------------------------------------------------------
 Center     Atomic      Atomic             Coordinates (Angstroms)
 Number     Number       Type             X           Y           Z
 ---------------------------------------------------------------------
      1          6           0       -3.799596   -0.275487    0.280776
      2          6           0       -4.585805   -1.433827   -0.334131
      3          6           0       -5.319061   -2.272444    0.713176
      4          1           0       -3.076216   -0.675092    1.004642
      5          1           0       -4.488305    0.365453    0.848464
      6          1           0       -3.896048   -2.071626   -0.901636
      7          1           0       -5.307265   -1.031433   -1.056758
      8          1           0       -6.029233   -1.655066    1.272731
      9          1           0       -4.609997   -2.701170    1.428734
     10          1           0       -5.874560   -3.094887    0.251799
     11          6           0       -3.061142    0.572106   -0.753631
     12          6           0       -2.274933    1.730445   -0.138725
     13          6           0       -1.541677    2.569062   -1.186031
     14          1           0       -2.372433   -0.068835   -1.321319
     15          1           0       -3.784522    0.971711   -1.477498
     16          1           0       -1.553473    1.328051    0.583903
     17          1           0       -2.964690    2.368245    0.428781
     18          1           0       -2.250741    2.997788   -1.901589
     19          1           0       -0.831506    1.951684   -1.745587
     20          1           0       -0.986178    3.391505   -0.724655
     21          6           0        1.613275    1.815156    1.409138
     22          6           0        2.007280    0.672148    2.112570
     23          6           0        2.599294   -0.403819    1.444469
     24          6           0        2.783100   -0.302550    0.066336
     25          6           0        2.401231    0.822749   -0.662476
     26          6           0        1.811159    1.886682    0.026299
     27          1           0        1.154139    2.646319    1.936166
     28          1           0        1.854836    0.613825    3.186537
     29          1           0        2.913749   -1.300616    1.964366
     30          1           0        2.566205    0.851645   -1.732694
     31          1           0        1.506159    2.773107   -0.522582
     32          7           0        3.408811   -1.435260   -0.651896
     33          8           0        3.559759   -1.321353   -1.866342
     34          8           0        3.736447   -2.415536    0.013198
 ---------------------------------------------------------------------

 SCF Done:  E(RHF) =  -669.535202399     A.U. after   15 cycles
 E2 =    -0.2092565882D+01 EUMP2 =    -0.67162776828079D+03

 The electronic state is 1-A.
 Alpha  occ. eigenvalues --  -20.60803 -20.60798 -15.85856 -11.31234 -11.27784
 Alpha  occ. eigenvalues --  -11.27770 -11.27528 -11.26826 -11.26766 -11.22133
 Alpha  occ. eigenvalues --  -11.21839 -11.21792 -11.21749 -11.21656 -11.21228
 Alpha  occ. eigenvalues --   -1.59879  -1.39432  -1.19402  -1.08827  -1.08757
 Alpha  occ. eigenvalues --   -1.04805  -1.03924  -0.96399  -0.95627  -0.87431
 Alpha  occ. eigenvalues --   -0.86187  -0.82456  -0.80000  -0.78577  -0.77501
 Alpha  occ. eigenvalues --   -0.72074  -0.71202  -0.70503  -0.65430  -0.65050
 Alpha  occ. eigenvalues --   -0.64809  -0.62188  -0.61297  -0.59787  -0.57996
 Alpha  occ. eigenvalues --   -0.55706  -0.55291  -0.53251  -0.53085  -0.52834
 Alpha  occ. eigenvalues --   -0.52733  -0.50308  -0.48832  -0.48828  -0.48314
 Alpha  occ. eigenvalues --   -0.47005  -0.46128  -0.46025  -0.44834  -0.44179
 Alpha  occ. eigenvalues --   -0.37356  -0.36373
 Alpha virt. eigenvalues --    0.04993   0.11214   0.16425   0.20477   0.22717
 Alpha virt. eigenvalues --    0.24106   0.26194   0.26310   0.26816   0.28023
 Alpha virt. eigenvalues --    0.28788   0.30277   0.30844   0.31385   0.31941

 Mulliken charges:
               1
     1  C   -0.298581
     2  C   -0.300293
     3  C   -0.475917
     4  H    0.149664
     5  H    0.148708
     6  H    0.154361
     7  H    0.152281
     8  H    0.154553
     9  H    0.155416
    10  H    0.161691
    11  C   -0.298982
    12  C   -0.302576
    13  C   -0.475518
    14  H    0.152907
    15  H    0.150453
    16  H    0.153751
    17  H    0.151063
    18  H    0.158736
    19  H    0.156033
    20  H    0.148493
    21  C   -0.172441
    22  C   -0.219157
    23  C   -0.171564
    24  C    0.158888
    25  C   -0.174234
    26  C   -0.214095
    27  H    0.226265
    28  H    0.223761
    29  H    0.275620
    30  H    0.275723
    31  H    0.227602
    32  N    0.487979
    33  O   -0.460270
    34  O   -0.460317
 Sum of Mulliken charges =  -0.00000

 Dipole moment (field-independent basis, Debye):
    X=             -2.2475    Y=              3.9233    Z=              2.5166  Tot=              5.1746
 Quadrupole moment (field-independent basis, Debye-Ang):
   XX=           -107.3418   YY=            -96.7704   ZZ=            -91.2306
   XY=             10.9334   XZ=              7.9171   YZ=             -2.5375

 Normal termination of Gaussian 16 at Thu May  6 04:04:59 2021.
