 Gaussian 16, Revision A.03,
 Gaussian 16:  EM64L-G16RevA.03 25-Dec-2016

 -------------
 #p 6-31g* mp2
 -------------

 ------------------------------------------------------
 Input file generated by CHIRIPA (05-May-2021 14:51:13)
 ------------------------------------------------------
 Symbolic Z-matrix:
 Charge =  0 Multiplicity = 1

                         Standard orientation:
 ---------------------------------------------------------------------
 Center     Atomic      Atomic             Coordinates (Angstroms)
 Number     Number       Type             X           Y           Z
 ---------------------------------------------------------------------
      1          6           0       -3.034814   -0.011345   -0.310575
      2          6           0       -4.515929   -0.349259   -0.484053
      3          6           0       -4.745430   -1.799771   -0.909656
      4          1           0       -2.507897   -0.205669   -1.254790
      5          1           0       -2.596735   -0.687400    0.436708
      6          1           0       -4.951409    0.328141   -1.229775
      7          1           0       -5.039416   -0.153926    0.460629
      8          1           0       -4.337325   -2.489319   -0.163617
      9          1           0       -4.248817   -2.004513   -1.863625
     10          1           0       -5.811044   -2.019675   -1.027847
     11          6           0       -2.789242    1.435214    0.114737
     12          6           0       -1.308126    1.773128    0.288215
     13          6           0       -1.078625    3.223640    0.713818
     14          1           0       -3.227320    2.111269   -0.632546
     15          1           0       -3.316158    1.629538    1.058952
     16          1           0       -0.784639    1.577795   -0.656467
     17          1           0       -0.872646    1.095728    1.033937
     18          1           0       -1.575238    3.428382    1.667787
     19          1           0       -1.486730    3.913188   -0.032221
     20          1           0       -0.013011    3.443544    0.832009
     21          6           0        3.256958   -0.078593   -0.153742
     22          6           0        4.743673   -0.275473   -0.451908
     23          6           0        5.419832    1.000467   -0.954483
     24          1           0        2.750498    0.272675   -1.063168
     25          1           0        3.142575    0.717440    0.595019
     26          1           0        4.855296   -1.071850   -1.198863
     27          1           0        5.246617   -0.626497    0.458282
     28          1           0        5.338011    1.798790   -0.209778
     29          1           0        4.944465    1.350908   -1.876338
     30          1           0        6.482073    0.837125   -1.161425
     31          6           0        2.567097   -1.345276    0.349581
     32          6           0        1.080382   -1.148396    0.647746
     33          6           0        0.404223   -2.424335    1.150320
     34          1           0        2.681480   -2.141309   -0.399181
     35          1           0        3.073557   -1.696544    1.259005
     36          1           0        0.577437   -0.797372   -0.262443
     37          1           0        0.968760   -0.352020    1.394701
     38          1           0        0.879590   -2.774777    2.072176
     39          1           0        0.486044   -3.222659    0.405617
     40          1           0       -0.658017   -2.260995    1.357264
 ---------------------------------------------------------------------

 SCF Done:  E(RHF) =  -470.732226260     A.U. after   11 cycles
 E2 =    -0.1584315411D+01 EUMP2 =    -0.47231654167041D+03

 The electronic state is 1-A.
 Alpha  occ. eigenvalues --  -11.21601 -11.21595 -11.21512 -11.21473 -11.21391
 Alpha  occ. eigenvalues --  -11.21384 -11.21320 -11.21319 -11.21070 -11.21069
 Alpha  occ. eigenvalues --  -11.21057 -11.21020  -1.08451  -1.08366  -1.03550
 Alpha  occ. eigenvalues --   -1.03461  -0.95975  -0.95948  -0.87015  -0.86940
 Alpha  occ. eigenvalues --   -0.79796  -0.79403  -0.78419  -0.77990  -0.65107
 Alpha  occ. eigenvalues --   -0.64988  -0.61004  -0.60810  -0.59440  -0.59236
 Alpha  occ. eigenvalues --   -0.57617  -0.57537  -0.55271  -0.55233  -0.52700
 Alpha  occ. eigenvalues --   -0.52620  -0.52470  -0.52303  -0.49948  -0.49872
 Alpha  occ. eigenvalues --   -0.48300  -0.47567  -0.46808  -0.46449  -0.46056
 Alpha  occ. eigenvalues --   -0.45823  -0.45481  -0.45267  -0.43763  -0.43743
 Alpha virt. eigenvalues --    0.21045   0.22936   0.23888   0.24039   0.24731
 Alpha virt. eigenvalues --    0.26115   0.26608   0.27827   0.28677   0.29408
 Alpha virt. eigenvalues --    0.30246   0.31229   0.31738   0.31918   0.32263

 Mulliken charges:
               1
     1  C   -0.303016
     2  C   -0.299480
     3  C   -0.475639
     4  H    0.149189
     5  H    0.153877
     6  H    0.152037
     7  H    0.151902
     8  H    0.155113
     9  H    0.155100
    10  H    0.160277
    11  C   -0.297801
    12  C   -0.304003
    13  C   -0.475711
    14  H    0.149082
    15  H    0.149063
    16  H    0.151283
    17  H    0.159830
    18  H    0.154519
    19  H    0.154764
    20  H    0.159956
    21  C   -0.298072
    22  C   -0.299580
    23  C   -0.475671
    24  H    0.149340
    25  H    0.149207
    26  H    0.151907
    27  H    0.151949
    28  H    0.155120
    29  H    0.155091
    30  H    0.160243
    31  C   -0.297878
    32  C   -0.302885
    33  C   -0.479138
    34  H    0.149182
    35  H    0.149173
    36  H    0.157006
    37  H    0.152655
    38  H    0.154730
    39  H    0.155533
    40  H    0.161748
 Sum of Mulliken charges =  -0.00000

 Dipole moment (field-independent basis, Debye):
    X=              0.0040    Y=             -0.0075    Z=             -0.0019  Tot=              0.0087
 Quadrupole moment (field-independent basis, Debye-Ang):
   XX=            -85.3813   YY=            -86.5434   ZZ=            -83.1053
   XY=             -0.7300   XZ=              0.2920   YZ=              0.0003

 Normal termination of Gaussian 16 at Thu May  6 02:21:21 2021.
