 Gaussian 16, Revision A.03,
 Gaussian 16:  EM64L-G16RevA.03 25-Dec-2016

 -------------
 #p 6-31g* mp2
 -------------

 ------------------------------------------------------
 Input file generated by CHIRIPA (05-May-2021 14:55:25)
 ------------------------------------------------------
 Symbolic Z-matrix:
 Charge =  0 Multiplicity = 1

                         Standard orientation:
 ---------------------------------------------------------------------
 Center     Atomic      Atomic             Coordinates (Angstroms)
 Number     Number       Type             X           Y           Z
 ---------------------------------------------------------------------
      1          6           0       -2.799665    2.244877    1.364170
      2          6           0       -1.782342    1.292812    1.487240
      3          6           0       -1.783802    0.144950    0.689142
      4          6           0       -2.822621   -0.019597   -0.225773
      5          6           0       -3.850340    0.910856   -0.371861
      6          6           0       -3.828603    2.051202    0.436647
      7          1           0       -2.790655    3.133645    1.988195
      8          1           0       -0.981992    1.440594    2.206715
      9          1           0       -1.008697   -0.608090    0.763709
     10          1           0       -4.634853    0.735846   -1.098035
     11          1           0       -4.619977    2.788914    0.338899
     12          7           0       -2.834900   -1.230808   -1.076194
     13          8           0       -3.761342   -1.352395   -1.874666
     14          8           0       -1.917849   -2.035635   -0.928179
     15          6           0        3.683115    0.281520   -0.452594
     16          6           0        5.051187    0.963957   -0.477951
     17          6           0        5.181397    1.985447   -1.608171
     18          1           0        3.509386   -0.213418   -1.417891
     19          1           0        2.901340    1.046619   -0.348448
     20          1           0        5.830228    0.197688   -0.580627
     21          1           0        5.221762    1.457166    0.487587
     22          1           0        4.425413    2.770797   -1.506622
     23          1           0        5.037337    1.504162   -2.580907
     24          1           0        6.167038    2.461232   -1.607714
     25          6           0        3.537615   -0.742385    0.671763
     26          6           0        2.169542   -1.424821    0.697121
     27          6           0        2.039333   -2.446312    1.827341
     28          1           0        4.319389   -1.507484    0.567619
     29          1           0        3.711345   -0.247446    1.637061
     30          1           0        1.998969   -1.918031   -0.268417
     31          1           0        1.390501   -0.658551    0.799797
     32          1           0        2.183393   -1.965027    2.800077
     33          1           0        2.795317   -3.231663    1.725793
     34          1           0        1.053692   -2.922097    1.826885
 ---------------------------------------------------------------------

 SCF Done:  E(RHF) =  -669.535532806     A.U. after   15 cycles
 E2 =    -0.2091414954D+01 EUMP2 =    -0.67162694776046D+03

 The electronic state is 1-A.
 Alpha  occ. eigenvalues --  -20.60757 -20.60752 -15.85809 -11.31166 -11.27748
 Alpha  occ. eigenvalues --  -11.27708 -11.27497 -11.26766 -11.26756 -11.21806
 Alpha  occ. eigenvalues --  -11.21719 -11.21558 -11.21484 -11.21192 -11.21165
 Alpha  occ. eigenvalues --   -1.59831  -1.39384  -1.19347  -1.08745  -1.08581
 Alpha  occ. eigenvalues --   -1.04753  -1.03673  -0.96109  -0.95578  -0.87122
 Alpha  occ. eigenvalues --   -0.86150  -0.82412  -0.79742  -0.78400  -0.77448
 Alpha  occ. eigenvalues --   -0.72029  -0.71153  -0.70465  -0.65239  -0.64998
 Alpha  occ. eigenvalues --   -0.64754  -0.62145  -0.61049  -0.59461  -0.57713
 Alpha  occ. eigenvalues --   -0.55411  -0.55244  -0.53081  -0.52866  -0.52774
 Alpha  occ. eigenvalues --   -0.52525  -0.50053  -0.48787  -0.48782  -0.48040
 Alpha  occ. eigenvalues --   -0.46775  -0.45928  -0.45853  -0.44790  -0.43918
 Alpha  occ. eigenvalues --   -0.37332  -0.36350
 Alpha virt. eigenvalues --    0.05060   0.11285   0.16541   0.20178   0.22880
 Alpha virt. eigenvalues --    0.23781   0.25838   0.26692   0.27339   0.27939
 Alpha virt. eigenvalues --    0.29176   0.30305   0.31461   0.31576   0.32068

 Mulliken charges:
               1
     1  C   -0.170574
     2  C   -0.221351
     3  C   -0.178395
     4  C    0.158650
     5  C   -0.170334
     6  C   -0.218887
     7  H    0.225484
     8  H    0.223132
     9  H    0.286904
    10  H    0.275548
    11  H    0.223412
    12  N    0.487500
    13  O   -0.460485
    14  O   -0.460565
    15  C   -0.298321
    16  C   -0.299700
    17  C   -0.475704
    18  H    0.153630
    19  H    0.146592
    20  H    0.153068
    21  H    0.150368
    22  H    0.154026
    23  H    0.156927
    24  H    0.160357
    25  C   -0.298090
    26  C   -0.301333
    27  C   -0.479393
    28  H    0.152057
    29  H    0.146657
    30  H    0.164774
    31  H    0.137974
    32  H    0.150808
    33  H    0.158986
    34  H    0.166280
 Sum of Mulliken charges =  -0.00000

 Dipole moment (field-independent basis, Debye):
    X=              0.1087    Y=              4.1547    Z=              2.9079  Tot=              5.0724
 Quadrupole moment (field-independent basis, Debye-Ang):
   XX=            -91.3911   YY=            -94.7939   ZZ=            -96.1269
   XY=            -14.5318   XZ=             -6.6879   YZ=             -0.6448

 Normal termination of Gaussian 16 at Thu May  6 04:49:56 2021.
