 Gaussian 16, Revision A.03,
 Gaussian 16:  EM64L-G16RevA.03 25-Dec-2016

 -------------
 #p 6-31g* mp2
 -------------

 ------------------------------------------------------
 Input file generated by CHIRIPA (05-May-2021 14:55:23)
 ------------------------------------------------------
 Symbolic Z-matrix:
 Charge =  0 Multiplicity = 1

                         Standard orientation:
 ---------------------------------------------------------------------
 Center     Atomic      Atomic             Coordinates (Angstroms)
 Number     Number       Type             X           Y           Z
 ---------------------------------------------------------------------
      1          6           0       -1.314979    1.071700    2.248101
      2          6           0       -2.485595    1.490867    1.607415
      3          6           0       -2.977937    0.793200    0.500433
      4          6           0       -2.271236   -0.324309    0.058803
      5          6           0       -1.102130   -0.766769    0.675822
      6          6           0       -0.628194   -0.053796    1.781082
      7          1           0       -0.939665    1.619609    3.107362
      8          1           0       -3.021037    2.364585    1.967918
      9          1           0       -3.881726    1.095793   -0.014370
     10          1           0       -0.590245   -1.641488    0.293384
     11          1           0        0.281180   -0.381624    2.276676
     12          7           0       -2.782714   -1.070999   -1.112198
     13          8           0       -2.141645   -2.052357   -1.481798
     14          8           0       -3.814994   -0.660758   -1.638256
     15          6           0        3.162061   -0.405857   -0.430265
     16          6           0        3.067195   -1.350839    0.768065
     17          6           0        3.797849   -2.673899    0.536864
     18          1           0        2.747542   -0.905256   -1.316672
     19          1           0        4.220456   -0.207880   -0.649355
     20          1           0        2.009266   -1.545875    0.985693
     21          1           0        3.481814   -0.849061    1.651765
     22          1           0        4.860671   -2.498051    0.341705
     23          1           0        3.379757   -3.198825   -0.328152
     24          1           0        3.717219   -3.334245    1.405944
     25          6           0        2.436499    0.921044   -0.214338
     26          6           0        2.531366    1.866026   -1.412669
     27          6           0        1.800712    3.189086   -1.181467
     28          1           0        1.378104    0.723068    0.004752
     29          1           0        2.851019    1.420443    0.672069
     30          1           0        2.116747    1.364248   -2.296368
     31          1           0        3.589296    2.061062   -1.630297
     32          1           0        2.218804    3.714012   -0.316452
     33          1           0        0.737889    3.013238   -0.986308
     34          1           0        1.881342    3.849432   -2.050548
 ---------------------------------------------------------------------

 SCF Done:  E(RHF) =  -669.534055888     A.U. after   15 cycles
 E2 =    -0.2094500099D+01 EUMP2 =    -0.67162855598716D+03

 The electronic state is 1-A.
 Alpha  occ. eigenvalues --  -20.60828 -20.60823 -15.85881 -11.31261 -11.27801
 Alpha  occ. eigenvalues --  -11.27795 -11.27523 -11.26835 -11.26769 -11.22370
 Alpha  occ. eigenvalues --  -11.21800 -11.21789 -11.21598 -11.21551 -11.21285
 Alpha  occ. eigenvalues --   -1.59903  -1.39456  -1.19430  -1.08873  -1.08787
 Alpha  occ. eigenvalues --   -1.04838  -1.03939  -0.96348  -0.95648  -0.87372
 Alpha  occ. eigenvalues --   -0.86219  -0.82500  -0.80053  -0.78692  -0.77501
 Alpha  occ. eigenvalues --   -0.72098  -0.71228  -0.70520  -0.65546  -0.65041
 Alpha  occ. eigenvalues --   -0.64814  -0.62212  -0.61303  -0.59728  -0.57982
 Alpha  occ. eigenvalues --   -0.55644  -0.55309  -0.53271  -0.53088  -0.52883
 Alpha  occ. eigenvalues --   -0.52720  -0.50297  -0.48860  -0.48854  -0.48341
 Alpha  occ. eigenvalues --   -0.47092  -0.46168  -0.46080  -0.44856  -0.44167
 Alpha  occ. eigenvalues --   -0.37391  -0.36303
 Alpha virt. eigenvalues --    0.04976   0.11183   0.16397   0.20030   0.22814
 Alpha virt. eigenvalues --    0.23774   0.25663   0.26062   0.27626   0.28177
 Alpha virt. eigenvalues --    0.29393   0.30283   0.31154   0.31526   0.32423

 Mulliken charges:
               1
     1  C   -0.170881
     2  C   -0.218452
     3  C   -0.171709
     4  C    0.159936
     5  C   -0.175578
     6  C   -0.220162
     7  H    0.226408
     8  H    0.223976
     9  H    0.275815
    10  H    0.276856
    11  H    0.230328
    12  N    0.488370
    13  O   -0.460701
    14  O   -0.460021
    15  C   -0.298750
    16  C   -0.303853
    17  C   -0.475928
    18  H    0.154981
    19  H    0.151756
    20  H    0.141666
    21  H    0.150441
    22  H    0.158160
    23  H    0.160206
    24  H    0.160132
    25  C   -0.309049
    26  C   -0.299319
    27  C   -0.476393
    28  H    0.159711
    29  H    0.143916
    30  H    0.155834
    31  H    0.151857
    32  H    0.152192
    33  H    0.156347
    34  H    0.161910
 Sum of Mulliken charges =  -0.00000

 Dipole moment (field-independent basis, Debye):
    X=              1.8113    Y=              2.6155    Z=              4.0610  Tot=              5.1588
 Quadrupole moment (field-independent basis, Debye-Ang):
   XX=            -99.6348   YY=            -95.6885   ZZ=            -94.6602
   XY=             -8.9373   XZ=             -8.9547   YZ=             -1.1645

 Normal termination of Gaussian 16 at Wed May  5 17:32:34 2021.
