 Gaussian 16, Revision A.03,
 Gaussian 16:  EM64L-G16RevA.03 25-Dec-2016

 -------------
 #p 6-31g* mp2
 -------------

 ------------------------------------------------------
 Input file generated by CHIRIPA (05-May-2021 14:51:07)
 ------------------------------------------------------
 Symbolic Z-matrix:
 Charge =  0 Multiplicity = 1

                         Standard orientation:
 ---------------------------------------------------------------------
 Center     Atomic      Atomic             Coordinates (Angstroms)
 Number     Number       Type             X           Y           Z
 ---------------------------------------------------------------------
      1          6           0        3.033397   -0.516864   -0.025050
      2          6           0        3.428833   -1.893506   -0.560280
      3          6           0        2.348337   -2.950339   -0.329136
      4          1           0        2.819710   -0.595872    1.049679
      5          1           0        2.098669   -0.198433   -0.507005
      6          1           0        4.363272   -2.208636   -0.078478
      7          1           0        3.641789   -1.811173   -1.633819
      8          1           0        1.415342   -2.662060   -0.824126
      9          1           0        2.140924   -3.061781    0.740052
     10          1           0        2.651798   -3.926782   -0.719431
     11          6           0        4.103379    0.550309   -0.248674
     12          6           0        3.707943    1.926952    0.286556
     13          6           0        4.788438    2.983785    0.055412
     14          1           0        5.038106    0.231879    0.233282
     15          1           0        4.317066    0.629318   -1.323402
     16          1           0        3.494987    1.844619    1.360095
     17          1           0        2.773504    2.242082   -0.195245
     18          1           0        4.995851    3.095226   -1.013775
     19          1           0        5.721434    2.695505    0.550403
     20          1           0        4.484977    3.960228    0.445708
     21          6           0       -4.014770    0.531698   -0.151947
     22          6           0       -5.507959    0.228961   -0.022629
     23          6           0       -6.388057    1.335371   -0.604933
     24          1           0       -3.794595    1.481741    0.353905
     25          1           0       -3.767895    0.677810   -1.212654
     26          1           0       -5.751677    0.082097    1.037394
     27          1           0       -5.724571   -0.720568   -0.528683
     28          1           0       -6.173736    1.478197   -1.669014
     29          1           0       -6.200996    2.285422   -0.094039
     30          1           0       -7.451585    1.098413   -0.501891
     31          6           0       -3.122005   -0.565143    0.425671
     32          6           0       -1.628817   -0.262407    0.296352
     33          6           0       -0.748719   -1.368817    0.878656
     34          1           0       -3.368881   -0.711255    1.486377
     35          1           0       -3.342181   -1.515186   -0.080180
     36          1           0       -1.412204    0.687123    0.802406
     37          1           0       -1.385099   -0.115541   -0.763670
     38          1           0       -0.935780   -2.318868    0.367764
     39          1           0       -0.963039   -1.511643    1.942738
     40          1           0        0.314809   -1.131858    0.775616
 ---------------------------------------------------------------------

 SCF Done:  E(RHF) =  -470.731203210     A.U. after   11 cycles
 E2 =    -0.1584224657D+01 EUMP2 =    -0.47231542786779D+03

 The electronic state is 1-A.
 Alpha  occ. eigenvalues --  -11.21620 -11.21604 -11.21573 -11.21522 -11.21444
 Alpha  occ. eigenvalues --  -11.21381 -11.21358 -11.21295 -11.21085 -11.21051
 Alpha  occ. eigenvalues --  -11.20957 -11.20793  -1.08476  -1.08367  -1.03580
 Alpha  occ. eigenvalues --   -1.03426  -0.96015  -0.95881  -0.87049  -0.86893
 Alpha  occ. eigenvalues --   -0.79727  -0.79428  -0.78302  -0.78187  -0.65107
 Alpha  occ. eigenvalues --   -0.64999  -0.60998  -0.60814  -0.59682  -0.59038
 Alpha  occ. eigenvalues --   -0.57618  -0.57506  -0.55345  -0.55126  -0.52783
 Alpha  occ. eigenvalues --   -0.52640  -0.52447  -0.52212  -0.50008  -0.49763
 Alpha  occ. eigenvalues --   -0.47954  -0.47766  -0.46669  -0.46511  -0.45796
 Alpha  occ. eigenvalues --   -0.45734  -0.45721  -0.45654  -0.43804  -0.43563
 Alpha virt. eigenvalues --    0.21921   0.23115   0.23608   0.24914   0.26261
 Alpha virt. eigenvalues --    0.26632   0.26863   0.27184   0.28079   0.29253
 Alpha virt. eigenvalues --    0.30162   0.31151   0.31452   0.31927   0.32281

 Mulliken charges:
               1
     1  C   -0.304978
     2  C   -0.298364
     3  C   -0.479657
     4  H    0.150514
     5  H    0.152113
     6  H    0.151776
     7  H    0.151634
     8  H    0.159904
     9  H    0.156638
    10  H    0.159391
    11  C   -0.296743
    12  C   -0.299884
    13  C   -0.475751
    14  H    0.149698
    15  H    0.149775
    16  H    0.151910
    17  H    0.152176
    18  H    0.155233
    19  H    0.155226
    20  H    0.160354
    21  C   -0.298122
    22  C   -0.299576
    23  C   -0.475655
    24  H    0.149497
    25  H    0.149143
    26  H    0.151892
    27  H    0.151864
    28  H    0.155058
    29  H    0.155113
    30  H    0.160157
    31  C   -0.298301
    32  C   -0.299883
    33  C   -0.486106
    34  H    0.149540
    35  H    0.149481
    36  H    0.151572
    37  H    0.150008
    38  H    0.154509
    39  H    0.153083
    40  H    0.175762
 Sum of Mulliken charges =  -0.00000

 Dipole moment (field-independent basis, Debye):
    X=              0.0618    Y=             -0.0065    Z=             -0.0001  Tot=              0.0622
 Quadrupole moment (field-independent basis, Debye-Ang):
   XX=            -85.8244   YY=            -85.8238   ZZ=            -83.2876
   XY=             -0.1449   XZ=              0.1779   YZ=              0.5773

 Normal termination of Gaussian 16 at Thu May  6 06:50:23 2021.
