 Gaussian 16, Revision A.03,
 Gaussian 16:  EM64L-G16RevA.03 25-Dec-2016

 -------------
 #p 6-31g* mp2
 -------------

 ------------------------------------------------------
 Input file generated by CHIRIPA (05-May-2021 14:55:22)
 ------------------------------------------------------
 Symbolic Z-matrix:
 Charge =  0 Multiplicity = 1

                         Standard orientation:
 ---------------------------------------------------------------------
 Center     Atomic      Atomic             Coordinates (Angstroms)
 Number     Number       Type             X           Y           Z
 ---------------------------------------------------------------------
      1          6           0        1.895723    1.867798    0.979573
      2          6           0        2.976887    1.432332    1.752861
      3          6           0        3.788139    0.382629    1.311791
      4          6           0        3.488094   -0.211609    0.086988
      5          6           0        2.418048    0.199663   -0.706201
      6          6           0        1.620240    1.251161   -0.245330
      7          1           0        1.270745    2.683930    1.329898
      8          1           0        3.193197    1.909358    2.704545
      9          1           0        4.631444    0.025569    1.890378
     10          1           0        2.227344   -0.295481   -1.650596
     11          1           0        0.781255    1.587261   -0.847979
     12          7           0        4.339813   -1.323833   -0.390435
     13          8           0        4.054431   -1.830793   -1.473110
     14          8           0        5.276646   -1.667574    0.327077
     15          6           0       -3.841884    0.210224   -0.809332
     16          6           0       -2.879989    1.366524   -0.534172
     17          6           0       -2.000048    1.702830   -1.738495
     18          1           0       -3.264186   -0.677107   -1.102340
     19          1           0       -4.477058    0.467332   -1.668311
     20          1           0       -2.247755    1.107883    0.324898
     21          1           0       -3.460034    2.251152   -0.241598
     22          1           0       -2.615712    1.986410   -2.598229
     23          1           0       -1.396545    0.836646   -2.028514
     24          1           0       -1.320133    2.532141   -1.519822
     25          6           0       -4.728280   -0.137772    0.385210
     26          6           0       -5.690174   -1.294073    0.110050
     27          6           0       -6.570116   -1.630378    1.314374
     28          1           0       -4.093105   -0.394880    1.244189
     29          1           0       -5.305978    0.749558    0.678219
     30          1           0       -5.110130   -2.178700   -0.182523
     31          1           0       -6.322407   -1.035432   -0.749020
     32          1           0       -7.173617   -0.764194    1.604391
     33          1           0       -5.954452   -1.913958    2.174107
     34          1           0       -7.250031   -2.459690    1.095701
 ---------------------------------------------------------------------

 SCF Done:  E(RHF) =  -669.535333588     A.U. after   15 cycles
 E2 =    -0.2091350271D+01 EUMP2 =    -0.67162668385890D+03

 The electronic state is 1-A.
 Alpha  occ. eigenvalues --  -20.60724 -20.60719 -15.85776 -11.31128 -11.27694
 Alpha  occ. eigenvalues --  -11.27674 -11.27421 -11.26713 -11.26606 -11.22519
 Alpha  occ. eigenvalues --  -11.22273 -11.22041 -11.21988 -11.21878 -11.21387
 Alpha  occ. eigenvalues --   -1.59800  -1.39354  -1.19292  -1.09067  -1.08690
 Alpha  occ. eigenvalues --   -1.04693  -1.04215  -0.96687  -0.95530  -0.87716
 Alpha  occ. eigenvalues --   -0.86084  -0.82361  -0.80291  -0.78826  -0.77412
 Alpha  occ. eigenvalues --   -0.71995  -0.71123  -0.70407  -0.65716  -0.64941
 Alpha  occ. eigenvalues --   -0.64722  -0.62153  -0.61524  -0.60073  -0.58265
 Alpha  occ. eigenvalues --   -0.55977  -0.55183  -0.53490  -0.53115  -0.53022
 Alpha  occ. eigenvalues --   -0.52650  -0.50586  -0.48751  -0.48749  -0.48598
 Alpha  occ. eigenvalues --   -0.47299  -0.46380  -0.46269  -0.44762  -0.44451
 Alpha  occ. eigenvalues --   -0.37276  -0.36290
 Alpha virt. eigenvalues --    0.05114   0.11314   0.16597   0.20056   0.22624
 Alpha virt. eigenvalues --    0.23914   0.25956   0.26441   0.26515   0.27967
 Alpha virt. eigenvalues --    0.29250   0.30419   0.30899   0.31251   0.31928

 Mulliken charges:
               1
     1  C   -0.174067
     2  C   -0.218385
     3  C   -0.171589
     4  C    0.159028
     5  C   -0.174449
     6  C   -0.226712
     7  H    0.225258
     8  H    0.223036
     9  H    0.275284
    10  H    0.275397
    11  H    0.238551
    12  N    0.488023
    13  O   -0.460604
    14  O   -0.460690
    15  C   -0.299259
    16  C   -0.300876
    17  C   -0.483018
    18  H    0.152229
    19  H    0.151579
    20  H    0.151081
    21  H    0.154335
    22  H    0.164076
    23  H    0.154792
    24  H    0.153033
    25  C   -0.298960
    26  C   -0.300348
    27  C   -0.476097
    28  H    0.150220
    29  H    0.149923
    30  H    0.153627
    31  H    0.152682
    32  H    0.155217
    33  H    0.155756
    34  H    0.161927
 Sum of Mulliken charges =  -0.00000

 Dipole moment (field-independent basis, Debye):
    X=             -3.2512    Y=              3.8829    Z=              1.6589  Tot=              5.3291
 Quadrupole moment (field-independent basis, Debye-Ang):
   XX=           -113.9903   YY=            -96.8722   ZZ=            -91.7187
   XY=             13.9573   XZ=              9.2431   YZ=              0.4244

 Normal termination of Gaussian 16 at Thu May  6 14:14:59 2021.
