 Gaussian 16, Revision A.03,
 Gaussian 16:  EM64L-G16RevA.03 25-Dec-2016

 -------------
 #p 6-31g* mp2
 -------------

 ------------------------------------------------------
 Input file generated by CHIRIPA (05-May-2021 14:53:16)
 ------------------------------------------------------
 Symbolic Z-matrix:
 Charge =  0 Multiplicity = 1

                         Standard orientation:
 ---------------------------------------------------------------------
 Center     Atomic      Atomic             Coordinates (Angstroms)
 Number     Number       Type             X           Y           Z
 ---------------------------------------------------------------------
      1          6           0        1.764820    1.182755   -0.388776
      2          6           0        1.482444    2.676075   -0.220717
      3          6           0        0.080250    3.068708   -0.687070
      4          1           0        1.638021    0.908704   -1.445073
      5          1           0        1.015941    0.609374    0.174971
      6          1           0        2.232460    3.246497   -0.783487
      7          1           0        1.610117    2.946641    0.835270
      8          1           0       -0.681165    2.525311   -0.118240
      9          1           0       -0.055286    2.826871   -1.746195
     10          1           0       -0.100355    4.140426   -0.557982
     11          6           0        3.162674    0.774796    0.073070
     12          6           0        3.445050   -0.718524   -0.094989
     13          6           0        4.847244   -1.111157    0.371364
     14          1           0        3.911553    1.348177   -0.490676
     15          1           0        3.289473    1.048847    1.129367
     16          1           0        3.317377   -0.989090   -1.150976
     17          1           0        2.695034   -1.288946    0.467781
     18          1           0        4.982780   -0.869320    1.430489
     19          1           0        5.608659   -0.567760   -0.197465
     20          1           0        5.027849   -2.182875    0.242276
     21          6           0       -0.349126   -2.694798   -0.273876
     22          6           0       -0.265694   -1.955382    0.910532
     23          6           0       -1.133595   -0.883905    1.141259
     24          6           0       -2.077133   -0.578070    0.161723
     25          6           0       -2.185082   -1.295793   -1.028450
     26          6           0       -1.306864   -2.363228   -1.237889
     27          1           0        0.329088   -3.525577   -0.444842
     28          1           0        0.477110   -2.210616    1.660960
     29          1           0       -1.090910   -0.294730    2.049261
     30          1           0       -2.935956   -1.017470   -1.757932
     31          1           0       -1.373954   -2.935714   -2.158651
     32          7           0       -3.001402    0.554115    0.394713
     33          8           0       -3.823870    0.803382   -0.483948
     34          8           0       -2.885873    1.170815    1.451582
 ---------------------------------------------------------------------

 SCF Done:  E(RHF) =  -669.534155076     A.U. after   15 cycles
 E2 =    -0.2095858873D+01 EUMP2 =    -0.67163001394855D+03

 The electronic state is 1-A.
 Alpha  occ. eigenvalues --  -20.60912 -20.60907 -15.85937 -11.31289 -11.27856
 Alpha  occ. eigenvalues --  -11.27847 -11.27589 -11.26863 -11.26853 -11.22068
 Alpha  occ. eigenvalues --  -11.21597 -11.21543 -11.21403 -11.21252 -11.20651
 Alpha  occ. eigenvalues --   -1.59974  -1.39529  -1.19476  -1.08865  -1.08549
 Alpha  occ. eigenvalues --   -1.04885  -1.03624  -0.96045  -0.95700  -0.87063
 Alpha  occ. eigenvalues --   -0.86272  -0.82538  -0.79731  -0.78343  -0.77583
 Alpha  occ. eigenvalues --   -0.72163  -0.71304  -0.70568  -0.65247  -0.65125
 Alpha  occ. eigenvalues --   -0.64865  -0.62224  -0.61024  -0.59466  -0.57658
 Alpha  occ. eigenvalues --   -0.55377  -0.55339  -0.53340  -0.52975  -0.52716
 Alpha  occ. eigenvalues --   -0.52412  -0.49997  -0.48928  -0.48925  -0.48035
 Alpha  occ. eigenvalues --   -0.46802  -0.45834  -0.45806  -0.44853  -0.43849
 Alpha  occ. eigenvalues --   -0.37410  -0.36333
 Alpha virt. eigenvalues --    0.04923   0.10988   0.16360   0.20527   0.23052
 Alpha virt. eigenvalues --    0.24039   0.25916   0.26880   0.27728   0.28136
 Alpha virt. eigenvalues --    0.28814   0.30084   0.31463   0.31633   0.31795

 Mulliken charges:
               1
     1  C   -0.305551
     2  C   -0.299484
     3  C   -0.478365
     4  H    0.147651
     5  H    0.156661
     6  H    0.150295
     7  H    0.151495
     8  H    0.159950
     9  H    0.152940
    10  H    0.163458
    11  C   -0.297726
    12  C   -0.300101
    13  C   -0.475523
    14  H    0.150688
    15  H    0.148168
    16  H    0.151214
    17  H    0.143841
    18  H    0.155244
    19  H    0.157964
    20  H    0.157077
    21  C   -0.168255
    22  C   -0.214114
    23  C   -0.179768
    24  C    0.162416
    25  C   -0.170375
    26  C   -0.218222
    27  H    0.226771
    28  H    0.224248
    29  H    0.276082
    30  H    0.276097
    31  H    0.223968
    32  N    0.488868
    33  O   -0.457763
    34  O   -0.459849
 Sum of Mulliken charges =  -0.00000

 Dipole moment (field-independent basis, Debye):
    X=              3.0740    Y=             -3.9952    Z=             -0.8526  Tot=              5.1125
 Quadrupole moment (field-independent basis, Debye-Ang):
   XX=           -109.0392   YY=            -90.6814   ZZ=            -90.4656
   XY=              7.3715   XZ=              3.8340   YZ=              0.7864

 Normal termination of Gaussian 16 at Thu May  6 01:09:07 2021.
