 Gaussian 16, Revision A.03,
 Gaussian 16:  EM64L-G16RevA.03 25-Dec-2016

 -------------
 #p 6-31g* mp2
 -------------

 ------------------------------------------------------
 Input file generated by CHIRIPA (05-May-2021 14:55:19)
 ------------------------------------------------------
 Symbolic Z-matrix:
 Charge =  0 Multiplicity = 1

                         Standard orientation:
 ---------------------------------------------------------------------
 Center     Atomic      Atomic             Coordinates (Angstroms)
 Number     Number       Type             X           Y           Z
 ---------------------------------------------------------------------
      1          6           0       -1.051603    0.241783    1.145399
      2          6           0       -1.837249    1.306129    0.691034
      3          6           0       -3.097611    1.070925    0.133614
      4          6           0       -3.543134   -0.247046    0.045577
      5          6           0       -2.783862   -1.328641    0.489366
      6          6           0       -1.526579   -1.069893    1.043295
      7          1           0       -0.073720    0.433640    1.577061
      8          1           0       -1.470939    2.325822    0.769064
      9          1           0       -3.726556    1.876235   -0.225999
     10          1           0       -3.176021   -2.334288    0.398239
     11          1           0       -0.918608   -1.898435    1.395337
     12          7           0       -4.875792   -0.508509   -0.542691
     13          8           0       -5.245501   -1.678789   -0.608986
     14          8           0       -5.525387    0.461789   -0.926341
     15          6           0        4.938519    0.033833   -0.434103
     16          6           0        5.372406   -1.320267    0.128161
     17          6           0        6.743695   -1.761287   -0.384536
     18          1           0        4.921310   -0.020364   -1.531241
     19          1           0        5.690365    0.790487   -0.170286
     20          1           0        4.619275   -2.073868   -0.135453
     21          1           0        5.388400   -1.262895    1.224094
     22          1           0        7.511238   -1.030938   -0.108732
     23          1           0        6.737744   -1.846519   -1.476004
     24          1           0        7.034210   -2.731679    0.029954
     25          6           0        3.569629    0.488288    0.069225
     26          6           0        3.135743    1.842388   -0.493040
     27          6           0        1.764453    2.283409    0.019658
     28          1           0        2.817783   -0.268365   -0.194592
     29          1           0        3.586838    0.542485    1.166362
     30          1           0        3.119749    1.785017   -1.588973
     31          1           0        3.888875    2.595990   -0.229426
     32          1           0        1.770406    2.368641    1.111126
     33          1           0        0.996910    1.553060   -0.256147
     34          1           0        1.473939    3.253801   -0.394832
 ---------------------------------------------------------------------

 SCF Done:  E(RHF) =  -669.534459386     A.U. after   15 cycles
 E2 =    -0.2092510566D+01 EUMP2 =    -0.67162696995239D+03

 The electronic state is 1-A.
 Alpha  occ. eigenvalues --  -20.60726 -20.60720 -15.85779 -11.31134 -11.27709
 Alpha  occ. eigenvalues --  -11.27694 -11.27358 -11.26701 -11.26667 -11.22505
 Alpha  occ. eigenvalues --  -11.22290 -11.22227 -11.22187 -11.22067 -11.21572
 Alpha  occ. eigenvalues --   -1.59802  -1.39356  -1.19307  -1.09232  -1.08700
 Alpha  occ. eigenvalues --   -1.04709  -1.04329  -0.96821  -0.95532  -0.87849
 Alpha  occ. eigenvalues --   -0.86093  -0.82371  -0.80423  -0.79036  -0.77416
 Alpha  occ. eigenvalues --   -0.71997  -0.71126  -0.70418  -0.65852  -0.64955
 Alpha  occ. eigenvalues --   -0.64706  -0.62060  -0.61712  -0.60188  -0.58427
 Alpha  occ. eigenvalues --   -0.56120  -0.55216  -0.53509  -0.53322  -0.52904
 Alpha  occ. eigenvalues --   -0.52769  -0.50728  -0.48765  -0.48753  -0.48685
 Alpha  occ. eigenvalues --   -0.47425  -0.46571  -0.46476  -0.44764  -0.44578
 Alpha  occ. eigenvalues --   -0.37222  -0.36309
 Alpha virt. eigenvalues --    0.05084   0.11261   0.16519   0.20552   0.22278
 Alpha virt. eigenvalues --    0.23740   0.25625   0.26309   0.26387   0.27702
 Alpha virt. eigenvalues --    0.29406   0.30137   0.31019   0.31175   0.31547

 Mulliken charges:
               1
     1  C   -0.174216
     2  C   -0.219652
     3  C   -0.171522
     4  C    0.158198
     5  C   -0.171037
     6  C   -0.220816
     7  H    0.232457
     8  H    0.227064
     9  H    0.275417
    10  H    0.275297
    11  H    0.223369
    12  N    0.488101
    13  O   -0.460669
    14  O   -0.460572
    15  C   -0.298598
    16  C   -0.300184
    17  C   -0.476150
    18  H    0.152241
    19  H    0.151486
    20  H    0.151456
    21  H    0.151439
    22  H    0.156233
    23  H    0.156619
    24  H    0.161641
    25  C   -0.300492
    26  C   -0.298680
    27  C   -0.489011
    28  H    0.147826
    29  H    0.146884
    30  H    0.156561
    31  H    0.154932
    32  H    0.148745
    33  H    0.162189
    34  H    0.163445
 Sum of Mulliken charges =  -0.00000

 Dipole moment (field-independent basis, Debye):
    X=              4.8858    Y=              0.9328    Z=              1.9951  Tot=              5.3593
 Quadrupole moment (field-independent basis, Debye-Ang):
   XX=           -128.7605   YY=            -90.3510   ZZ=            -94.7322
   XY=             -4.5991   XZ=             -6.7159   YZ=             -1.1656

 Normal termination of Gaussian 16 at Thu May  6 17:22:40 2021.
