 Gaussian 16, Revision A.03,
 Gaussian 16:  EM64L-G16RevA.03 25-Dec-2016

 -------------
 #p 6-31g* mp2
 -------------

 ------------------------------------------------------
 Input file generated by CHIRIPA (05-May-2021 14:57:26)
 ------------------------------------------------------
 Symbolic Z-matrix:
 Charge =  0 Multiplicity = 1

                         Standard orientation:
 ---------------------------------------------------------------------
 Center     Atomic      Atomic             Coordinates (Angstroms)
 Number     Number       Type             X           Y           Z
 ---------------------------------------------------------------------
      1          6           0       -1.140221    0.381425    0.676984
      2          6           0       -1.966016   -0.292503    1.582746
      3          6           0       -3.318895   -0.495628    1.294635
      4          6           0       -3.814990   -0.009331    0.086042
      5          6           0       -3.017684    0.665918   -0.836797
      6          6           0       -1.667760    0.857645   -0.527772
      7          1           0       -0.090420    0.534790    0.908918
      8          1           0       -1.559051   -0.663436    2.519139
      9          1           0       -3.980657   -1.014009    1.977839
     10          1           0       -3.452122    1.024156   -1.762187
     11          1           0       -1.028791    1.381378   -1.233086
     12          7           0       -5.245657   -0.218337   -0.230038
     13          8           0       -5.658440    0.219821   -1.301609
     14          8           0       -5.927141   -0.816357    0.599775
     15          6           0        3.273265    2.465626    0.123654
     16          6           0        2.295124    1.704554   -0.524829
     17          6           0        2.454103    0.323777   -0.675589
     18          6           0        3.608775   -0.265911   -0.163445
     19          6           0        4.601208    0.465252    0.487527
     20          6           0        4.421161    1.844641    0.626876
     21          1           0        3.141583    3.537708    0.236335
     22          1           0        1.402636    2.184136   -0.916634
     23          1           0        1.712643   -0.289342   -1.173323
     24          1           0        5.480171   -0.041095    0.867600
     25          1           0        5.182453    2.433192    1.130947
     26          7           0        3.788231   -1.726943   -0.317007
     27          8           0        4.814543   -2.222586    0.143056
     28          8           0        2.899178   -2.348792   -0.894525
 ---------------------------------------------------------------------

 SCF Done:  E(RHF) =  -868.336431298     A.U. after   16 cycles
 E2 =    -0.2601541089D+01 EUMP2 =    -0.87093797238619D+03

 The electronic state is 1-A.
 Alpha  occ. eigenvalues --  -20.61592 -20.61587 -20.60952 -20.60943 -15.86656
 Alpha  occ. eigenvalues --  -15.86010 -11.32234 -11.31454 -11.28888 -11.28789
 Alpha  occ. eigenvalues --  -11.28590 -11.28114 -11.28016 -11.27985 -11.27796
 Alpha  occ. eigenvalues --  -11.27764 -11.27228 -11.27003  -1.60667  -1.60024
 Alpha  occ. eigenvalues --   -1.40213  -1.39576  -1.20449  -1.19653  -1.09780
 Alpha  occ. eigenvalues --   -1.09039  -1.05900  -1.05083  -0.96577  -0.95849
 Alpha  occ. eigenvalues --   -0.87256  -0.86496  -0.83425  -0.82688  -0.78448
 Alpha  occ. eigenvalues --   -0.77718  -0.72864  -0.72228  -0.72004  -0.71515
 Alpha  occ. eigenvalues --   -0.71348  -0.70750  -0.66094  -0.65936  -0.65315
 Alpha  occ. eigenvalues --   -0.65127  -0.63203  -0.62401  -0.56318  -0.55697
 Alpha  occ. eigenvalues --   -0.54076  -0.53992  -0.53373  -0.53174  -0.49642
 Alpha  occ. eigenvalues --   -0.49608  -0.48994  -0.48975  -0.45572  -0.44963
 Alpha  occ. eigenvalues --   -0.38412  -0.37668  -0.37452  -0.36684
 Alpha virt. eigenvalues --    0.04068   0.04840   0.10116   0.10908   0.15395
 Alpha virt. eigenvalues --    0.16297   0.18471   0.22011   0.24507   0.27334
 Alpha virt. eigenvalues --    0.27942   0.28950   0.29739   0.31350   0.31853

 Mulliken charges:
               1
     1  C   -0.175455
     2  C   -0.218315
     3  C   -0.169091
     4  C    0.158612
     5  C   -0.168993
     6  C   -0.225587
     7  H    0.231090
     8  H    0.226531
     9  H    0.277428
    10  H    0.276323
    11  H    0.213525
    12  N    0.488073
    13  O   -0.460175
    14  O   -0.458902
    15  C   -0.170514
    16  C   -0.227686
    17  C   -0.179297
    18  C    0.159385
    19  C   -0.169363
    20  C   -0.218432
    21  H    0.229924
    22  H    0.222460
    23  H    0.278806
    24  H    0.279366
    25  H    0.227786
    26  N    0.487790
    27  O   -0.457308
    28  O   -0.457981
 Sum of Mulliken charges =  -0.00000

 Dipole moment (field-independent basis, Debye):
    X=              4.6306    Y=              5.7795    Z=              1.7851  Tot=              7.6178
 Quadrupole moment (field-independent basis, Debye-Ang):
   XX=           -142.7681   YY=           -107.4709   ZZ=           -100.5920
   XY=             16.9995   XZ=              0.0316   YZ=             -3.1008

 Normal termination of Gaussian 16 at Thu May  6 11:27:08 2021.
