 Gaussian 16, Revision A.03,
 Gaussian 16:  EM64L-G16RevA.03 25-Dec-2016

 -------------
 #p 6-31g* mp2
 -------------

 ------------------------------------------------------
 Input file generated by CHIRIPA (05-May-2021 14:53:16)
 ------------------------------------------------------
 Symbolic Z-matrix:
 Charge =  0 Multiplicity = 1

                         Standard orientation:
 ---------------------------------------------------------------------
 Center     Atomic      Atomic             Coordinates (Angstroms)
 Number     Number       Type             X           Y           Z
 ---------------------------------------------------------------------
      1          6           0        2.621365   -0.111138    0.463942
      2          6           0        3.476894   -1.348070    0.188162
      3          6           0        3.289010   -2.443001    1.238695
      4          1           0        2.870996    0.285400    1.457616
      5          1           0        1.563671   -0.406493    0.501945
      6          1           0        4.532547   -1.050240    0.149317
      7          1           0        3.225333   -1.741598   -0.805050
      8          1           0        2.244258   -2.768413    1.273367
      9          1           0        3.558899   -2.073127    2.233157
     10          1           0        3.909855   -3.317935    1.022127
     11          6           0        2.798219    0.992292   -0.577640
     12          6           0        1.942691    2.229224   -0.301859
     13          6           0        2.130575    3.324155   -1.352392
     14          1           0        3.855913    1.287647   -0.615642
     15          1           0        2.548588    0.595753   -1.571313
     16          1           0        2.194251    2.622751    0.691352
     17          1           0        0.887038    1.931393   -0.263015
     18          1           0        1.860685    2.954281   -2.346854
     19          1           0        3.175326    3.649567   -1.387065
     20          1           0        1.509729    4.199089   -1.135825
     21          6           0       -2.745785    1.470040    1.681213
     22          6           0       -1.719700    0.571690    1.992082
     23          6           0       -1.362876   -0.437469    1.092736
     24          6           0       -2.056239   -0.519594   -0.113827
     25          6           0       -3.083037    0.360379   -0.452386
     26          6           0       -3.422984    1.361709    0.462122
     27          1           0       -3.016420    2.250937    2.385737
     28          1           0       -1.192053    0.653434    2.938101
     29          1           0       -0.572473   -1.146244    1.307957
     30          1           0       -3.590843    0.253742   -1.403270
     31          1           0       -4.220269    2.057985    0.218030
     32          7           0       -1.687418   -1.583801   -1.073950
     33          8           0       -2.313621   -1.634920   -2.130309
     34          8           0       -0.779118   -2.346656   -0.751955
 ---------------------------------------------------------------------

 SCF Done:  E(RHF) =  -669.535691095     A.U. after   15 cycles
 E2 =    -0.2093184913D+01 EUMP2 =    -0.67162887600888D+03

 The electronic state is 1-A.
 Alpha  occ. eigenvalues --  -20.60913 -20.60908 -15.85953 -11.31289 -11.27844
 Alpha  occ. eigenvalues --  -11.27840 -11.27576 -11.26854 -11.26844 -11.21580
 Alpha  occ. eigenvalues --  -11.21294 -11.21246 -11.21207 -11.21071 -11.20762
 Alpha  occ. eigenvalues --   -1.59978  -1.39534  -1.19459  -1.08854  -1.08283
 Alpha  occ. eigenvalues --   -1.04853  -1.03362  -0.95829  -0.95694  -0.86848
 Alpha  occ. eigenvalues --   -0.86253  -0.82524  -0.79437  -0.78159  -0.77555
 Alpha  occ. eigenvalues --   -0.72172  -0.71299  -0.70567  -0.65111  -0.65012
 Alpha  occ. eigenvalues --   -0.64747  -0.62211  -0.60731  -0.59207  -0.57446
 Alpha  occ. eigenvalues --   -0.55366  -0.55095  -0.53202  -0.52955  -0.52510
 Alpha  occ. eigenvalues --   -0.52257  -0.49762  -0.48935  -0.48925  -0.47756
 Alpha  occ. eigenvalues --   -0.46448  -0.45671  -0.45570  -0.44889  -0.43630
 Alpha  occ. eigenvalues --   -0.37426  -0.36408
 Alpha virt. eigenvalues --    0.04913   0.11105   0.16444   0.20665   0.23041
 Alpha virt. eigenvalues --    0.23826   0.25921   0.27130   0.27729   0.28038
 Alpha virt. eigenvalues --    0.28982   0.30414   0.31471   0.31937   0.32051

 Mulliken charges:
               1
     1  C   -0.303628
     2  C   -0.298244
     3  C   -0.479148
     4  H    0.143426
     5  H    0.151296
     6  H    0.149659
     7  H    0.161295
     8  H    0.160891
     9  H    0.149310
    10  H    0.162144
    11  C   -0.298556
    12  C   -0.301681
    13  C   -0.475505
    14  H    0.149150
    15  H    0.154809
    16  H    0.147707
    17  H    0.152854
    18  H    0.157393
    19  H    0.155301
    20  H    0.157458
    21  C   -0.170621
    22  C   -0.218667
    23  C   -0.171121
    24  C    0.157754
    25  C   -0.171044
    26  C   -0.218248
    27  H    0.226182
    28  H    0.224978
    29  H    0.278227
    30  H    0.275802
    31  H    0.223886
    32  N    0.488674
    33  O   -0.459247
    34  O   -0.462485
 Sum of Mulliken charges =  -0.00000

 Dipole moment (field-independent basis, Debye):
    X=             -1.3929    Y=              3.6604    Z=              3.2846  Tot=              5.1115
 Quadrupole moment (field-independent basis, Debye-Ang):
   XX=            -86.7851   YY=            -99.4454   ZZ=            -94.0924
   XY=             -8.5306   XZ=             -4.3185   YZ=             -2.3754

 Normal termination of Gaussian 16 at Thu May  6 17:14:42 2021.
