 Gaussian 16, Revision A.03,
 Gaussian 16:  EM64L-G16RevA.03 25-Dec-2016

 -------------
 #p 6-31g* mp2
 -------------

 ------------------------------------------------------
 Input file generated by CHIRIPA (05-May-2021 14:55:19)
 ------------------------------------------------------
 Symbolic Z-matrix:
 Charge =  0 Multiplicity = 1

                         Standard orientation:
 ---------------------------------------------------------------------
 Center     Atomic      Atomic             Coordinates (Angstroms)
 Number     Number       Type             X           Y           Z
 ---------------------------------------------------------------------
      1          6           0       -0.253872   -1.756357    1.037081
      2          6           0       -0.670756   -1.966801   -0.281418
      3          6           0       -1.784591   -1.292181   -0.790149
      4          6           0       -2.461213   -0.410305    0.051140
      5          6           0       -2.070461   -0.179321    1.369187
      6          6           0       -0.953821   -0.864860    1.856731
      7          1           0        0.612471   -2.284659    1.424047
      8          1           0       -0.129086   -2.658563   -0.920249
      9          1           0       -2.129035   -1.436294   -1.807011
     10          1           0       -2.630652    0.516444    1.981981
     11          1           0       -0.632339   -0.699455    2.881102
     12          7           0       -3.641865    0.309665   -0.476216
     13          8           0       -4.220892    1.081378    0.285245
     14          8           0       -3.965877    0.088630   -1.641032
     15          6           0        2.972943    1.431042   -0.077560
     16          6           0        1.638396    2.176591   -0.111127
     17          6           0        1.798194    3.684022    0.088654
     18          1           0        3.469659    1.624426    0.883075
     19          1           0        3.631729    1.837414   -0.857469
     20          1           0        0.981822    1.767997    0.667704
     21          1           0        1.144710    1.981255   -1.071718
     22          1           0        2.431994    4.111445   -0.695062
     23          1           0        2.268181    3.896974    1.054244
     24          1           0        0.831945    4.197309    0.061100
     25          6           0        2.829623   -0.076892   -0.275859
     26          6           0        4.164170   -0.822441   -0.242293
     27          6           0        4.004371   -2.329872   -0.442073
     28          1           0        2.170836   -0.483263    0.504049
     29          1           0        2.332906   -0.270276   -1.236494
     30          1           0        4.657855   -0.627106    0.718298
     31          1           0        4.820742   -0.413847   -1.021124
     32          1           0        3.534384   -2.542824   -1.407663
     33          1           0        3.370572   -2.757294    0.341642
     34          1           0        4.970620   -2.843158   -0.414520
 ---------------------------------------------------------------------

 SCF Done:  E(RHF) =  -669.534686010     A.U. after   15 cycles
 E2 =    -0.2093873382D+01 EUMP2 =    -0.67162855939181D+03

 The electronic state is 1-A.
 Alpha  occ. eigenvalues --  -20.60779 -20.60774 -15.85835 -11.31206 -11.27812
 Alpha  occ. eigenvalues --  -11.27782 -11.27532 -11.26822 -11.26770 -11.22270
 Alpha  occ. eigenvalues --  -11.22019 -11.21901 -11.21810 -11.21743 -11.21212
 Alpha  occ. eigenvalues --   -1.59855  -1.39408  -1.19395  -1.08948  -1.08762
 Alpha  occ. eigenvalues --   -1.04799  -1.04017  -0.96487  -0.95625  -0.87504
 Alpha  occ. eigenvalues --   -0.86196  -0.82458  -0.80088  -0.78710  -0.77489
 Alpha  occ. eigenvalues --   -0.72054  -0.71178  -0.70535  -0.65564  -0.65050
 Alpha  occ. eigenvalues --   -0.64797  -0.62145  -0.61424  -0.59866  -0.58085
 Alpha  occ. eigenvalues --   -0.55813  -0.55320  -0.53323  -0.53057  -0.52897
 Alpha  occ. eigenvalues --   -0.52865  -0.50455  -0.48813  -0.48807  -0.48409
 Alpha  occ. eigenvalues --   -0.47129  -0.46220  -0.46155  -0.44813  -0.44248
 Alpha  occ. eigenvalues --   -0.37248  -0.36386
 Alpha virt. eigenvalues --    0.05009   0.11197   0.16389   0.19497   0.22858
 Alpha virt. eigenvalues --    0.23779   0.25301   0.26334   0.27232   0.27859
 Alpha virt. eigenvalues --    0.28904   0.30026   0.31216   0.31707   0.32235

 Mulliken charges:
               1
     1  C   -0.170593
     2  C   -0.215632
     3  C   -0.171314
     4  C    0.159116
     5  C   -0.170319
     6  C   -0.220054
     7  H    0.227489
     8  H    0.224539
     9  H    0.275624
    10  H    0.275827
    11  H    0.223574
    12  N    0.488066
    13  O   -0.460505
    14  O   -0.460489
    15  C   -0.298420
    16  C   -0.301331
    17  C   -0.476441
    18  H    0.148198
    19  H    0.150790
    20  H    0.152284
    21  H    0.153885
    22  H    0.155772
    23  H    0.153578
    24  H    0.163736
    25  C   -0.300706
    26  C   -0.299817
    27  C   -0.475585
    28  H    0.148014
    29  H    0.149136
    30  H    0.152306
    31  H    0.155236
    32  H    0.154462
    33  H    0.144760
    34  H    0.164814
 Sum of Mulliken charges =  -0.00000

 Dipole moment (field-independent basis, Debye):
    X=              4.1505    Y=             -2.4934    Z=              1.8090  Tot=              5.1688
 Quadrupole moment (field-independent basis, Debye-Ang):
   XX=           -115.9110   YY=            -93.4435   ZZ=            -89.7985
   XY=              4.3597   XZ=             -5.2280   YZ=              1.1313

 Normal termination of Gaussian 16 at Wed May  5 23:46:00 2021.
