 Gaussian 16, Revision A.03,
 Gaussian 16:  EM64L-G16RevA.03 25-Dec-2016

 -------------
 #p 6-31g* mp2
 -------------

 ------------------------------------------------------
 Input file generated by CHIRIPA (05-May-2021 14:57:22)
 ------------------------------------------------------
 Symbolic Z-matrix:
 Charge =  0 Multiplicity = 1

                         Standard orientation:
 ---------------------------------------------------------------------
 Center     Atomic      Atomic             Coordinates (Angstroms)
 Number     Number       Type             X           Y           Z
 ---------------------------------------------------------------------
      1          6           0       -4.962942    1.684461   -0.110017
      2          6           0       -3.589031    1.907111    0.028963
      3          6           0       -2.694968    0.832691    0.057663
      4          6           0       -3.211621   -0.457082   -0.055668
      5          6           0       -4.575135   -0.711300   -0.195280
      6          6           0       -5.450749    0.378269   -0.221499
      7          1           0       -5.650305    2.524980   -0.131349
      8          1           0       -3.207359    2.920442    0.115749
      9          1           0       -1.626614    0.976483    0.164249
     10          1           0       -4.925746   -1.732760   -0.279591
     11          1           0       -6.517253    0.202361   -0.329538
     12          7           0       -2.274882   -1.602541   -0.026598
     13          8           0       -2.755262   -2.729275   -0.128302
     14          8           0       -1.078024   -1.351929    0.097341
     15          6           0        4.199365   -2.110766   -0.046760
     16          6           0        3.027548   -1.810517    0.655535
     17          6           0        2.556476   -0.495879    0.721608
     18          6           0        3.285441    0.498297    0.070824
     19          6           0        4.456338    0.230842   -0.636817
     20          6           0        4.908770   -1.090926   -0.689561
     21          1           0        4.558065   -3.134778   -0.092910
     22          1           0        2.474566   -2.600511    1.155699
     23          1           0        1.652285   -0.235471    1.258304
     24          1           0        4.985976    1.039707   -1.125325
     25          1           0        5.819131   -1.321173   -1.235705
     26          7           0        2.796604    1.893819    0.133717
     27          8           0        3.457062    2.751655   -0.448134
     28          8           0        1.762254    2.103370    0.763674
 ---------------------------------------------------------------------

 SCF Done:  E(RHF) =  -868.341123935     A.U. after   16 cycles
 E2 =    -0.2598331918D+01 EUMP2 =    -0.87093945585356D+03

 The electronic state is 1-A.
 Alpha  occ. eigenvalues --  -20.60979 -20.60945 -20.60492 -20.60456 -15.86002
 Alpha  occ. eigenvalues --  -15.85508 -11.31039 -11.30484 -11.27625 -11.27479
 Alpha  occ. eigenvalues --  -11.27293 -11.27094 -11.26909 -11.26739 -11.26583
 Alpha  occ. eigenvalues --  -11.26458 -11.26053 -11.25855  -1.60033  -1.59545
 Alpha  occ. eigenvalues --   -1.39596  -1.39110  -1.19193  -1.18637  -1.08657
 Alpha  occ. eigenvalues --   -1.08118  -1.04535  -1.03964  -0.95540  -0.95008
 Alpha  occ. eigenvalues --   -0.85955  -0.85399  -0.82382  -0.81846  -0.77456
 Alpha  occ. eigenvalues --   -0.76917  -0.72252  -0.71746  -0.71336  -0.70848
 Alpha  occ. eigenvalues --   -0.70300  -0.69757  -0.64849  -0.64531  -0.64293
 Alpha  occ. eigenvalues --   -0.63969  -0.61867  -0.61304  -0.55073  -0.54531
 Alpha  occ. eigenvalues --   -0.52904  -0.52612  -0.52335  -0.52053  -0.48992
 Alpha  occ. eigenvalues --   -0.48962  -0.48504  -0.48461  -0.45072  -0.44600
 Alpha  occ. eigenvalues --   -0.37181  -0.36633  -0.36128  -0.35532
 Alpha virt. eigenvalues --    0.05039   0.05549   0.11522   0.12098   0.16585
 Alpha virt. eigenvalues --    0.17110   0.21494   0.22297   0.27079   0.27900
 Alpha virt. eigenvalues --    0.28463   0.29408   0.31036   0.31728   0.32275

 Mulliken charges:
               1
     1  C   -0.170266
     2  C   -0.220022
     3  C   -0.173791
     4  C    0.156676
     5  C   -0.171379
     6  C   -0.219147
     7  H    0.226006
     8  H    0.229833
     9  H    0.285774
    10  H    0.273742
    11  H    0.222546
    12  N    0.491180
    13  O   -0.460897
    14  O   -0.470168
    15  C   -0.170817
    16  C   -0.216556
    17  C   -0.164155
    18  C    0.155110
    19  C   -0.172155
    20  C   -0.219423
    21  H    0.224454
    22  H    0.230754
    23  H    0.281555
    24  H    0.272050
    25  H    0.220445
    26  N    0.489343
    27  O   -0.462029
    28  O   -0.468664
 Sum of Mulliken charges =  -0.00000

 Dipole moment (field-independent basis, Debye):
    X=             -1.7384    Y=             -0.9299    Z=             -0.2692  Tot=              1.9897
 Quadrupole moment (field-independent basis, Debye-Ang):
   XX=            -67.6194   YY=           -111.8134   ZZ=           -104.7646
   XY=            -23.8190   XZ=             -1.9684   YZ=             -1.3405

 Normal termination of Gaussian 16 at Thu May  6 03:22:08 2021.
