 Gaussian 16, Revision A.03,
 Gaussian 16:  EM64L-G16RevA.03 25-Dec-2016

 -------------
 #p 6-31g* mp2
 -------------

 ------------------------------------------------------
 Input file generated by CHIRIPA (05-May-2021 14:51:10)
 ------------------------------------------------------
 Symbolic Z-matrix:
 Charge =  0 Multiplicity = 1

                         Standard orientation:
 ---------------------------------------------------------------------
 Center     Atomic      Atomic             Coordinates (Angstroms)
 Number     Number       Type             X           Y           Z
 ---------------------------------------------------------------------
      1          6           0       -3.600358    0.109218    0.161347
      2          6           0       -3.216022   -1.290706   -0.318741
      3          6           0       -4.272347   -2.342761    0.020601
      4          1           0       -3.761027    0.086052    1.247899
      5          1           0       -4.560726    0.393464   -0.290640
      6          1           0       -2.255986   -1.571667    0.132932
      7          1           0       -3.056062   -1.264163   -1.404247
      8          1           0       -5.231280   -2.089305   -0.442872
      9          1           0       -4.426658   -2.398556    1.103041
     10          1           0       -3.977301   -3.336093   -0.331676
     11          6           0       -2.554285    1.171911   -0.170530
     12          6           0       -2.938621    2.571835    0.309557
     13          6           0       -1.882297    3.623890   -0.029785
     14          1           0       -1.593917    0.887665    0.281457
     15          1           0       -2.393616    1.195077   -1.257082
     16          1           0       -3.098581    2.545292    1.395064
     17          1           0       -3.898657    2.852796   -0.142115
     18          1           0       -1.727985    3.679685   -1.112224
     19          1           0       -0.923363    3.370434    0.433688
     20          1           0       -2.177342    4.617222    0.322492
     21          6           0        3.725264   -0.315949    0.245893
     22          6           0        4.003981    1.038914   -0.405758
     23          6           0        5.303691    1.675772    0.087152
     24          1           0        3.682706   -0.189364    1.336356
     25          1           0        4.566559   -0.992860    0.042401
     26          1           0        3.161778    1.712636   -0.202266
     27          1           0        4.045691    0.909124   -1.494809
     28          1           0        6.157635    1.025981   -0.129996
     29          1           0        5.268699    1.834058    1.169890
     30          1           0        5.483355    2.643462   -0.391550
     31          6           0        2.429379   -0.965181   -0.236710
     32          6           0        2.150662   -2.320043    0.414942
     33          6           0        0.850952   -2.956901   -0.077969
     34          1           0        1.588084   -0.288269   -0.033218
     35          1           0        2.471938   -1.091764   -1.327173
     36          1           0        2.108952   -2.190252    1.503992
     37          1           0        2.992865   -2.993765    0.211450
     38          1           0        0.885944   -3.115187   -1.160707
     39          1           0       -0.002991   -2.307110    0.139179
     40          1           0        0.671288   -3.924591    0.400734
 ---------------------------------------------------------------------

 SCF Done:  E(RHF) =  -470.733336170     A.U. after   11 cycles
 E2 =    -0.1582834927D+01 EUMP2 =    -0.47231617109731D+03

 The electronic state is 1-A.
 Alpha  occ. eigenvalues --  -11.21626 -11.21603 -11.21596 -11.21577 -11.21427
 Alpha  occ. eigenvalues --  -11.21406 -11.21362 -11.21347 -11.21095 -11.21066
 Alpha  occ. eigenvalues --  -11.21050 -11.21047  -1.08448  -1.08426  -1.03547
 Alpha  occ. eigenvalues --   -1.03515  -0.95992  -0.95969  -0.87019  -0.86976
 Alpha  occ. eigenvalues --   -0.79656  -0.79537  -0.78296  -0.78201  -0.65132
 Alpha  occ. eigenvalues --   -0.65012  -0.61029  -0.60846  -0.59365  -0.59334
 Alpha  occ. eigenvalues --   -0.57637  -0.57544  -0.55326  -0.55221  -0.52683
 Alpha  occ. eigenvalues --   -0.52665  -0.52457  -0.52358  -0.50038  -0.49840
 Alpha  occ. eigenvalues --   -0.48052  -0.47791  -0.46781  -0.46496  -0.45955
 Alpha  occ. eigenvalues --   -0.45760  -0.45748  -0.45433  -0.43791  -0.43782
 Alpha virt. eigenvalues --    0.20899   0.23195   0.23649   0.24355   0.25315
 Alpha virt. eigenvalues --    0.26993   0.27027   0.27484   0.27973   0.29326
 Alpha virt. eigenvalues --    0.30424   0.31629   0.31705   0.31872   0.32028

 Mulliken charges:
               1
     1  C   -0.297751
     2  C   -0.307473
     3  C   -0.475224
     4  H    0.149367
     5  H    0.149708
     6  H    0.159412
     7  H    0.152240
     8  H    0.155034
     9  H    0.154855
    10  H    0.160855
    11  C   -0.298966
    12  C   -0.299688
    13  C   -0.475550
    14  H    0.148723
    15  H    0.150221
    16  H    0.151904
    17  H    0.152231
    18  H    0.155473
    19  H    0.154603
    20  H    0.160376
    21  C   -0.298329
    22  C   -0.299610
    23  C   -0.475713
    24  H    0.149428
    25  H    0.149605
    26  H    0.151982
    27  H    0.152055
    28  H    0.155152
    29  H    0.155087
    30  H    0.160366
    31  C   -0.298964
    32  C   -0.299282
    33  C   -0.482533
    34  H    0.149827
    35  H    0.149958
    36  H    0.151479
    37  H    0.151983
    38  H    0.155535
    39  H    0.161556
    40  H    0.160070
 Sum of Mulliken charges =  -0.00000

 Dipole moment (field-independent basis, Debye):
    X=             -0.0127    Y=             -0.0033    Z=             -0.0184  Tot=              0.0226
 Quadrupole moment (field-independent basis, Debye-Ang):
   XX=            -85.5762   YY=            -85.6432   ZZ=            -83.4866
   XY=             -1.4324   XZ=             -0.0885   YZ=              0.2033

 Normal termination of Gaussian 16 at Thu May  6 05:21:20 2021.
