 Gaussian 16, Revision A.03,
 Gaussian 16:  EM64L-G16RevA.03 25-Dec-2016

 -------------
 #p 6-31g* mp2
 -------------

 ------------------------------------------------------
 Input file generated by CHIRIPA (05-May-2021 14:51:11)
 ------------------------------------------------------
 Symbolic Z-matrix:
 Charge =  0 Multiplicity = 1

                         Standard orientation:
 ---------------------------------------------------------------------
 Center     Atomic      Atomic             Coordinates (Angstroms)
 Number     Number       Type             X           Y           Z
 ---------------------------------------------------------------------
      1          6           0        2.862100    0.584390    0.070959
      2          6           0        2.779812   -0.788062   -0.598063
      3          6           0        4.016647   -1.648169   -0.336816
      4          1           0        3.757697    1.108207   -0.290241
      5          1           0        2.994113    0.449564    1.153452
      6          1           0        2.646607   -0.650685   -1.678803
      7          1           0        1.884204   -1.308596   -0.235372
      8          1           0        4.150282   -1.814674    0.736972
      9          1           0        4.917017   -1.153025   -0.714661
     10          1           0        3.936695   -2.624853   -0.824214
     11          6           0        1.632969    1.455861   -0.181040
     12          6           0        1.715257    2.828312    0.487982
     13          6           0        0.478423    3.688420    0.226735
     14          1           0        1.500957    1.590686   -1.263532
     15          1           0        0.737372    0.932043    0.180161
     16          1           0        2.610866    3.348847    0.125291
     17          1           0        1.848463    2.690936    1.568723
     18          1           0       -0.421947    3.193275    0.604581
     19          1           0        0.344788    3.854924   -0.847052
     20          1           0        0.558375    4.665103    0.714134
     21          6           0       -1.858864   -1.622639   -0.208293
     22          6           0       -0.948580   -2.262514    0.840481
     23          6           0       -0.177682   -3.466620    0.298597
     24          1           0       -2.566848   -2.376457   -0.579053
     25          1           0       -1.252089   -1.312942   -1.070445
     26          1           0       -1.556693   -2.569661    1.700989
     27          1           0       -0.242805   -1.507035    1.208926
     28          1           0        0.452902   -3.171800   -0.546416
     29          1           0       -0.868450   -4.240463   -0.051557
     30          1           0        0.466780   -3.908642    1.064850
     31          6           0       -2.636206   -0.417611    0.318373
     32          6           0       -3.546491    0.222264   -0.730401
     33          6           0       -4.317388    1.426370   -0.188516
     34          1           0       -3.242981   -0.727309    1.180526
     35          1           0       -1.928222    0.336206    0.689132
     36          1           0       -4.252264   -0.533215   -1.098845
     37          1           0       -2.938376    0.529411   -1.590909
     38          1           0       -3.626620    2.200213    0.161637
     39          1           0       -4.947972    1.131550    0.656496
     40          1           0       -4.961849    1.868392   -0.954770
 ---------------------------------------------------------------------

 SCF Done:  E(RHF) =  -470.732796607     A.U. after   11 cycles
 E2 =    -0.1585007500D+01 EUMP2 =    -0.47231780410654D+03

 The electronic state is 1-A.
 Alpha  occ. eigenvalues --  -11.21661 -11.21655 -11.21600 -11.21580 -11.21460
 Alpha  occ. eigenvalues --  -11.21429 -11.21392 -11.21369 -11.21142 -11.21083
 Alpha  occ. eigenvalues --  -11.21075 -11.21067  -1.08519  -1.08420  -1.03617
 Alpha  occ. eigenvalues --   -1.03511  -0.96047  -0.95975  -0.87037  -0.87014
 Alpha  occ. eigenvalues --   -0.79647  -0.79611  -0.78334  -0.78245  -0.65441
 Alpha  occ. eigenvalues --   -0.64798  -0.61285  -0.60685  -0.59373  -0.59365
 Alpha  occ. eigenvalues --   -0.57655  -0.57603  -0.55454  -0.55144  -0.52711
 Alpha  occ. eigenvalues --   -0.52689  -0.52454  -0.52407  -0.50006  -0.49906
 Alpha  occ. eigenvalues --   -0.48074  -0.47820  -0.46660  -0.46644  -0.46197
 Alpha  occ. eigenvalues --   -0.45825  -0.45693  -0.45330  -0.43825  -0.43800
 Alpha virt. eigenvalues --    0.19023   0.21600   0.23717   0.24858   0.25570
 Alpha virt. eigenvalues --    0.26262   0.26471   0.27667   0.28631   0.29942
 Alpha virt. eigenvalues --    0.30832   0.31154   0.31720   0.32153   0.32344

 Mulliken charges:
               1
     1  C   -0.297192
     2  C   -0.310909
     3  C   -0.475279
     4  H    0.149926
     5  H    0.149283
     6  H    0.151042
     7  H    0.164371
     8  H    0.155123
     9  H    0.155170
    10  H    0.160545
    11  C   -0.305439
    12  C   -0.299396
    13  C   -0.477230
    14  H    0.149520
    15  H    0.155075
    16  H    0.152494
    17  H    0.152144
    18  H    0.155362
    19  H    0.155475
    20  H    0.160876
    21  C   -0.298885
    22  C   -0.304331
    23  C   -0.479399
    24  H    0.150132
    25  H    0.151212
    26  H    0.152919
    27  H    0.153122
    28  H    0.158441
    29  H    0.156011
    30  H    0.160387
    31  C   -0.302059
    32  C   -0.299454
    33  C   -0.476502
    34  H    0.149613
    35  H    0.151822
    36  H    0.151928
    37  H    0.152684
    38  H    0.155903
    39  H    0.155033
    40  H    0.160462
 Sum of Mulliken charges =  -0.00000

 Dipole moment (field-independent basis, Debye):
    X=             -0.0019    Y=             -0.0129    Z=             -0.0110  Tot=              0.0171
 Quadrupole moment (field-independent basis, Debye-Ang):
   XX=            -85.0763   YY=            -85.5153   ZZ=            -84.0715
   XY=              1.8237   XZ=             -0.4767   YZ=             -0.6311

 Normal termination of Gaussian 16 at Thu May  6 00:41:12 2021.
