 Gaussian 16, Revision A.03,
 Gaussian 16:  EM64L-G16RevA.03 25-Dec-2016

 -------------
 #p 6-31g* mp2
 -------------

 ------------------------------------------------------
 Input file generated by CHIRIPA (05-May-2021 14:57:21)
 ------------------------------------------------------
 Symbolic Z-matrix:
 Charge =  0 Multiplicity = 1

                         Standard orientation:
 ---------------------------------------------------------------------
 Center     Atomic      Atomic             Coordinates (Angstroms)
 Number     Number       Type             X           Y           Z
 ---------------------------------------------------------------------
      1          6           0       -2.830561   -2.368202    0.872766
      2          6           0       -1.880922   -1.654519    0.134279
      3          6           0       -2.155967   -0.358328   -0.311574
      4          6           0       -3.396379    0.196019    0.000465
      5          6           0       -4.363186   -0.489579    0.734311
      6          6           0       -4.066483   -1.784483    1.169901
      7          1           0       -2.608487   -3.374614    1.215130
      8          1           0       -0.920253   -2.105325   -0.097960
      9          1           0       -1.439016    0.216648   -0.884987
     10          1           0       -5.312026   -0.013659    0.950228
     11          1           0       -4.805896   -2.336383    1.743242
     12          7           0       -3.699020    1.567558   -0.466108
     13          8           0       -4.799256    2.033536   -0.178040
     14          8           0       -2.830265    2.150621   -1.111041
     15          6           0        4.035938    2.209944    0.989670
     16          6           0        2.881914    2.150529    0.201497
     17          6           0        2.490365    0.948074   -0.394606
     18          6           0        3.279847   -0.180720   -0.180518
     19          6           0        4.434942   -0.153493    0.599421
     20          6           0        4.807409    1.059772    1.185770
     21          1           0        4.332692    3.148239    1.448949
     22          1           0        2.280851    3.042183    0.047473
     23          1           0        1.601643    0.873868   -1.009491
     24          1           0        5.013795   -1.059052    0.734728
     25          1           0        5.704132    1.102957    1.797382
     26          7           0        2.875433   -1.459427   -0.806423
     27          8           0        3.588119   -2.439782   -0.602419
     28          8           0        1.853423   -1.457109   -1.489159
 ---------------------------------------------------------------------

 SCF Done:  E(RHF) =  -868.340425491     A.U. after   16 cycles
 E2 =    -0.2598733402D+01 EUMP2 =    -0.87093915889355D+03

 The electronic state is 1-A.
 Alpha  occ. eigenvalues --  -20.61573 -20.61515 -20.60653 -20.60632 -15.86561
 Alpha  occ. eigenvalues --  -15.85688 -11.31624 -11.30848 -11.28152 -11.28145
 Alpha  occ. eigenvalues --  -11.27803 -11.27391 -11.27333 -11.27098 -11.27038
 Alpha  occ. eigenvalues --  -11.27019 -11.26385 -11.26155  -1.60604  -1.59722
 Alpha  occ. eigenvalues --   -1.40169  -1.39283  -1.19758  -1.18973  -1.09205
 Alpha  occ. eigenvalues --   -1.08403  -1.05107  -1.04321  -0.96093  -0.95283
 Alpha  occ. eigenvalues --   -0.86522  -0.85732  -0.82933  -0.82104  -0.78025
 Alpha  occ. eigenvalues --   -0.77184  -0.72786  -0.71914  -0.71908  -0.71039
 Alpha  occ. eigenvalues --   -0.70860  -0.70083  -0.65408  -0.65094  -0.64611
 Alpha  occ. eigenvalues --   -0.64282  -0.62463  -0.61653  -0.55610  -0.54830
 Alpha  occ. eigenvalues --   -0.53459  -0.53188  -0.52691  -0.52376  -0.49564
 Alpha  occ. eigenvalues --   -0.49509  -0.48682  -0.48644  -0.45627  -0.44735
 Alpha  occ. eigenvalues --   -0.37715  -0.36948  -0.36696  -0.35923
 Alpha virt. eigenvalues --    0.04440   0.05304   0.10946   0.11721   0.15991
 Alpha virt. eigenvalues --    0.16867   0.20140   0.22113   0.25086   0.27470
 Alpha virt. eigenvalues --    0.28424   0.29294   0.31056   0.31386   0.31824

 Mulliken charges:
               1
     1  C   -0.171605
     2  C   -0.224833
     3  C   -0.174542
     4  C    0.158807
     5  C   -0.172469
     6  C   -0.218427
     7  H    0.226755
     8  H    0.242326
     9  H    0.273024
    10  H    0.273560
    11  H    0.221937
    12  N    0.488225
    13  O   -0.460898
    14  O   -0.465316
    15  C   -0.169972
    16  C   -0.218901
    17  C   -0.173290
    18  C    0.157568
    19  C   -0.170912
    20  C   -0.218456
    21  H    0.228397
    22  H    0.230793
    23  H    0.275490
    24  H    0.275482
    25  H    0.224820
    26  N    0.488290
    27  O   -0.456493
    28  O   -0.469361
 Sum of Mulliken charges =  -0.00000

 Dipole moment (field-independent basis, Debye):
    X=              2.8179    Y=             -0.3367    Z=              3.9166  Tot=              4.8367
 Quadrupole moment (field-independent basis, Debye-Ang):
   XX=            -95.7320   YY=           -107.9415   ZZ=           -105.3384
   XY=             30.2199   XZ=              1.3348   YZ=             -1.9656

 Normal termination of Gaussian 16 at Thu May  6 06:30:12 2021.
