 Gaussian 16, Revision A.03,
 Gaussian 16:  EM64L-G16RevA.03 25-Dec-2016

 -------------
 #p 6-31g* mp2
 -------------

 ------------------------------------------------------
 Input file generated by CHIRIPA (05-May-2021 14:57:22)
 ------------------------------------------------------
 Symbolic Z-matrix:
 Charge =  0 Multiplicity = 1

                         Standard orientation:
 ---------------------------------------------------------------------
 Center     Atomic      Atomic             Coordinates (Angstroms)
 Number     Number       Type             X           Y           Z
 ---------------------------------------------------------------------
      1          6           0       -1.883366    2.223384    0.774625
      2          6           0       -1.802952    1.874602   -0.577560
      3          6           0       -2.301764    0.647680   -1.025217
      4          6           0       -2.877151   -0.210243   -0.089167
      5          6           0       -2.971988    0.108630    1.264574
      6          6           0       -2.466600    1.340841    1.689763
      7          1           0       -1.493323    3.178541    1.113649
      8          1           0       -1.350532    2.558019   -1.290513
      9          1           0       -2.252496    0.352403   -2.066275
     10          1           0       -3.428539   -0.593468    1.951624
     11          1           0       -2.530412    1.609062    2.740492
     12          7           0       -3.408702   -1.511930   -0.551189
     13          8           0       -3.910928   -2.250172    0.293444
     14          8           0       -3.313042   -1.769303   -1.749206
     15          6           0        3.676305   -2.276893    0.657117
     16          6           0        3.950200   -1.752044   -0.610178
     17          6           0        3.464013   -0.493875   -0.977848
     18          6           0        2.703817    0.215416   -0.049248
     19          6           0        2.413874   -0.280464    1.220920
     20          6           0        2.910365   -1.540726    1.567017
     21          1           0        4.057989   -3.255082    0.934353
     22          1           0        4.544767   -2.321524   -1.318856
     23          1           0        3.661006   -0.063694   -1.952300
     24          1           0        1.818325    0.310779    1.905881
     25          1           0        2.696077   -1.945831    2.551911
     26          7           0        2.183657    1.548490   -0.427066
     27          8           0        1.516333    2.153491    0.409171
     28          8           0        2.453129    1.963114   -1.552281
 ---------------------------------------------------------------------

 SCF Done:  E(RHF) =  -868.340020599     A.U. after   16 cycles
 E2 =    -0.2599987806D+01 EUMP2 =    -0.87094000840432D+03

 The electronic state is 1-A.
 Alpha  occ. eigenvalues --  -20.61467 -20.61453 -20.60344 -20.60330 -15.86471
 Alpha  occ. eigenvalues --  -15.85386 -11.31542 -11.30504 -11.28088 -11.28070
 Alpha  occ. eigenvalues --  -11.27757 -11.27120 -11.27026 -11.27011 -11.26996
 Alpha  occ. eigenvalues --  -11.26602 -11.26026 -11.25805  -1.60523  -1.59424
 Alpha  occ. eigenvalues --   -1.40086  -1.38984  -1.19686  -1.18644  -1.09137
 Alpha  occ. eigenvalues --   -1.08038  -1.05047  -1.04015  -0.96028  -0.94923
 Alpha  occ. eigenvalues --   -0.86459  -0.85393  -0.82878  -0.81777  -0.77956
 Alpha  occ. eigenvalues --   -0.76890  -0.72744  -0.71828  -0.71604  -0.70794
 Alpha  occ. eigenvalues --   -0.70750  -0.69657  -0.65347  -0.65051  -0.64270
 Alpha  occ. eigenvalues --   -0.63971  -0.62404  -0.61368  -0.55556  -0.54396
 Alpha  occ. eigenvalues --   -0.53386  -0.53139  -0.52364  -0.52074  -0.49501
 Alpha  occ. eigenvalues --   -0.49452  -0.48378  -0.48339  -0.45563  -0.44447
 Alpha  occ. eigenvalues --   -0.37649  -0.36635  -0.36468  -0.35630
 Alpha virt. eigenvalues --    0.04506   0.05684   0.11028   0.12047   0.16097
 Alpha virt. eigenvalues --    0.17267   0.21171   0.22309   0.27088   0.28022
 Alpha virt. eigenvalues --    0.28155   0.29202   0.30760   0.31886   0.32213

 Mulliken charges:
               1
     1  C   -0.156822
     2  C   -0.216800
     3  C   -0.176924
     4  C    0.156565
     5  C   -0.174218
     6  C   -0.225079
     7  H    0.233075
     8  H    0.233620
     9  H    0.273532
    10  H    0.270959
    11  H    0.219217
    12  N    0.488186
    13  O   -0.464444
    14  O   -0.462481
    15  C   -0.169098
    16  C   -0.218009
    17  C   -0.170335
    18  C    0.158192
    19  C   -0.168904
    20  C   -0.217944
    21  H    0.228001
    22  H    0.225399
    23  H    0.275628
    24  H    0.273192
    25  H    0.224676
    26  N    0.489659
    27  O   -0.467353
    28  O   -0.461491
 Sum of Mulliken charges =  -0.00000

 Dipole moment (field-independent basis, Debye):
    X=              4.0496    Y=              0.0548    Z=              2.9135  Tot=              4.9890
 Quadrupole moment (field-independent basis, Debye-Ang):
   XX=           -106.3668   YY=           -109.1408   ZZ=            -97.1676
   XY=            -27.0067   XZ=             -4.9133   YZ=             -1.0825

 Normal termination of Gaussian 16 at Thu May  6 12:52:18 2021.
