 Gaussian 16, Revision A.03,
 Gaussian 16:  EM64L-G16RevA.03 25-Dec-2016

 -------------
 #p 6-31g* mp2
 -------------

 ------------------------------------------------------
 Input file generated by CHIRIPA (05-May-2021 14:57:21)
 ------------------------------------------------------
 Symbolic Z-matrix:
 Charge =  0 Multiplicity = 1

                         Standard orientation:
 ---------------------------------------------------------------------
 Center     Atomic      Atomic             Coordinates (Angstroms)
 Number     Number       Type             X           Y           Z
 ---------------------------------------------------------------------
      1          6           0       -1.421652    0.355932    1.199926
      2          6           0       -2.557759    0.963587    1.744479
      3          6           0       -3.820728    0.732353    1.191318
      4          6           0       -3.911463   -0.115999    0.088886
      5          6           0       -2.798234   -0.736145   -0.476296
      6          6           0       -1.545297   -0.490502    0.093228
      7          1           0       -0.444444    0.541157    1.635991
      8          1           0       -2.464736    1.621404    2.603937
      9          1           0       -4.716766    1.189786    1.592924
     10          1           0       -2.922595   -1.386990   -1.333240
     11          1           0       -0.664712   -0.963777   -0.331772
     12          7           0       -5.243201   -0.368423   -0.505383
     13          8           0       -5.296434   -1.119959   -1.476463
     14          8           0       -6.208568    0.190042    0.011163
     15          6           0        2.568209    2.232408   -0.854704
     16          6           0        3.921722    2.228024   -0.501853
     17          6           0        4.554707    1.038191   -0.130132
     18          6           0        3.800617   -0.134233   -0.122261
     19          6           0        2.450589   -0.162252   -0.468566
     20          6           0        1.838248    1.039359   -0.836965
     21          1           0        2.084510    3.161273   -1.142174
     22          1           0        4.491098    3.153059   -0.514722
     23          1           0        5.601237    1.006219    0.147663
     24          1           0        1.909138   -1.100201   -0.446184
     25          1           0        0.786955    1.039768   -1.110508
     26          7           0        4.459803   -1.400090    0.269505
     27          8           0        3.773388   -2.419633    0.268376
     28          8           0        5.650406   -1.348756    0.570282
 ---------------------------------------------------------------------

 SCF Done:  E(RHF) =  -868.336786596     A.U. after   16 cycles
 E2 =    -0.2601310119D+01 EUMP2 =    -0.87093809671567D+03

 The electronic state is 1-A.
 Alpha  occ. eigenvalues --  -20.61516 -20.61505 -20.61212 -20.61207 -15.86570
 Alpha  occ. eigenvalues --  -15.86274 -11.32078 -11.31767 -11.28744 -11.28587
 Alpha  occ. eigenvalues --  -11.28413 -11.28358 -11.28336 -11.28130 -11.27662
 Alpha  occ. eigenvalues --  -11.27605 -11.27497 -11.27350  -1.60585  -1.60286
 Alpha  occ. eigenvalues --   -1.40136  -1.39836  -1.20246  -1.19979  -1.09593
 Alpha  occ. eigenvalues --   -1.09346  -1.05696  -1.05398  -0.96416  -0.96147
 Alpha  occ. eigenvalues --   -0.87054  -0.86808  -0.83259  -0.82980  -0.78342
 Alpha  occ. eigenvalues --   -0.77973  -0.72782  -0.72488  -0.71913  -0.71613
 Alpha  occ. eigenvalues --   -0.71337  -0.71046  -0.65941  -0.65734  -0.65591
 Alpha  occ. eigenvalues --   -0.65412  -0.63154  -0.62553  -0.56112  -0.55880
 Alpha  occ. eigenvalues --   -0.53994  -0.53926  -0.53521  -0.53493  -0.49551
 Alpha  occ. eigenvalues --   -0.49533  -0.49258  -0.49233  -0.45512  -0.45212
 Alpha  occ. eigenvalues --   -0.38223  -0.37957  -0.37267  -0.37010
 Alpha virt. eigenvalues --    0.04222   0.04548   0.10250   0.10563   0.15599
 Alpha virt. eigenvalues --    0.16027   0.18824   0.21782   0.24496   0.27235
 Alpha virt. eigenvalues --    0.27740   0.28839   0.30126   0.30694   0.31551

 Mulliken charges:
               1
     1  C   -0.174008
     2  C   -0.219128
     3  C   -0.169352
     4  C    0.158501
     5  C   -0.171025
     6  C   -0.227926
     7  H    0.230681
     8  H    0.225779
     9  H    0.277779
    10  H    0.278553
    11  H    0.221228
    12  N    0.488008
    13  O   -0.458794
    14  O   -0.458868
    15  C   -0.172108
    16  C   -0.218006
    17  C   -0.170048
    18  C    0.161388
    19  C   -0.182434
    20  C   -0.225916
    21  H    0.229443
    22  H    0.226853
    23  H    0.278461
    24  H    0.272179
    25  H    0.228122
    26  N    0.488401
    27  O   -0.460630
    28  O   -0.457133
 Sum of Mulliken charges =  -0.00000

 Dipole moment (field-independent basis, Debye):
    X=              2.3947    Y=              5.4707    Z=              0.7674  Tot=              6.0210
 Quadrupole moment (field-independent basis, Debye-Ang):
   XX=           -153.4777   YY=           -103.8786   ZZ=           -102.7308
   XY=             14.6423   XZ=            -13.9277   YZ=              2.2080

 Normal termination of Gaussian 16 at Thu May  6 17:51:00 2021.
