 Gaussian 16, Revision A.03,
 Gaussian 16:  EM64L-G16RevA.03 25-Dec-2016

 -------------
 #p 6-31g* mp2
 -------------

 ------------------------------------------------------
 Input file generated by CHIRIPA (05-May-2021 14:53:16)
 ------------------------------------------------------
 Symbolic Z-matrix:
 Charge =  0 Multiplicity = 1

                         Standard orientation:
 ---------------------------------------------------------------------
 Center     Atomic      Atomic             Coordinates (Angstroms)
 Number     Number       Type             X           Y           Z
 ---------------------------------------------------------------------
      1          6           0       -3.793498   -0.439783    0.351384
      2          6           0       -2.649214    0.498883    0.735446
      3          6           0       -1.373169   -0.250829    1.119421
      4          1           0       -4.002508   -1.115802    1.191776
      5          1           0       -3.472970   -1.073390   -0.487186
      6          1           0       -2.972285    1.131483    1.572141
      7          1           0       -2.443032    1.172873   -0.105887
      8          1           0       -1.024032   -0.869061    0.286058
      9          1           0       -1.556292   -0.910685    1.973621
     10          1           0       -0.568138    0.439374    1.390354
     11          6           0       -5.075971    0.294864   -0.034990
     12          6           0       -6.220255   -0.643802   -0.419052
     13          6           0       -7.496300    0.105910   -0.803027
     14          1           0       -5.396498    0.928471    0.803581
     15          1           0       -4.866961    0.970883   -0.875381
     16          1           0       -6.426437   -1.317792    0.422282
     17          1           0       -5.897184   -1.276402   -1.255746
     18          1           0       -7.313177    0.765766   -1.657226
     19          1           0       -7.845437    0.724142    0.030336
     20          1           0       -8.301331   -0.584293   -1.073959
     21          6           0        4.046629   -2.398249   -0.153216
     22          6           0        2.718532   -1.995773    0.021976
     23          6           0        2.384498   -0.638334    0.040045
     24          6           0        3.408371    0.293936   -0.120728
     25          6           0        4.740878   -0.075618   -0.297210
     26          6           0        5.051791   -1.438579   -0.311970
     27          1           0        4.297134   -3.454886   -0.165967
     28          1           0        1.935838   -2.738858    0.145507
     29          1           0        1.364528   -0.299006    0.173966
     30          1           0        5.499272    0.688393   -0.417817
     31          1           0        6.084068   -1.748239   -0.448205
     32          7           0        3.066983    1.733918   -0.103351
     33          8           0        3.987451    2.535606   -0.247132
     34          8           0        1.885399    2.033624    0.053723
 ---------------------------------------------------------------------

 SCF Done:  E(RHF) =  -669.535553520     A.U. after   15 cycles
 E2 =    -0.2091696239D+01 EUMP2 =    -0.67162724975896D+03

 The electronic state is 1-A.
 Alpha  occ. eigenvalues --  -20.60766 -20.60759 -15.85807 -11.31097 -11.27693
 Alpha  occ. eigenvalues --  -11.27578 -11.27434 -11.26700 -11.26667 -11.21595
 Alpha  occ. eigenvalues --  -11.21586 -11.21419 -11.21346 -11.21331 -11.21038
 Alpha  occ. eigenvalues --   -1.59834  -1.39390  -1.19281  -1.08695  -1.08440
 Alpha  occ. eigenvalues --   -1.04677  -1.03571  -0.96069  -0.95531  -0.87108
 Alpha  occ. eigenvalues --   -0.86073  -0.82370  -0.79652  -0.78244  -0.77415
 Alpha  occ. eigenvalues --   -0.72031  -0.71152  -0.70405  -0.65080  -0.64936
 Alpha  occ. eigenvalues --   -0.64691  -0.62093  -0.60943  -0.59376  -0.57633
 Alpha  occ. eigenvalues --   -0.55434  -0.55137  -0.53040  -0.52997  -0.52481
 Alpha  occ. eigenvalues --   -0.52459  -0.49995  -0.48789  -0.48779  -0.47943
 Alpha  occ. eigenvalues --   -0.46647  -0.45792  -0.45703  -0.44809  -0.43803
 Alpha  occ. eigenvalues --   -0.37275  -0.36276
 Alpha virt. eigenvalues --    0.05090   0.11354   0.16593   0.20945   0.22927
 Alpha virt. eigenvalues --    0.24181   0.26076   0.26828   0.27509   0.27984
 Alpha virt. eigenvalues --    0.29381   0.30424   0.31555   0.31721   0.32090

 Mulliken charges:
               1
     1  C   -0.298977
     2  C   -0.298296
     3  C   -0.490321
     4  H    0.148207
     5  H    0.147595
     6  H    0.155394
     7  H    0.159873
     8  H    0.144181
     9  H    0.154529
    10  H    0.177866
    11  C   -0.298675
    12  C   -0.299557
    13  C   -0.475778
    14  H    0.150605
    15  H    0.151538
    16  H    0.151237
    17  H    0.151130
    18  H    0.155919
    19  H    0.155661
    20  H    0.159842
    21  C   -0.170359
    22  C   -0.223957
    23  C   -0.179625
    24  C    0.156184
    25  C   -0.169861
    26  C   -0.219429
    27  H    0.225243
    28  H    0.223678
    29  H    0.293132
    30  H    0.275183
    31  H    0.223063
    32  N    0.487932
    33  O   -0.460076
    34  O   -0.463083
 Sum of Mulliken charges =  -0.00000

 Dipole moment (field-independent basis, Debye):
    X=              1.1050    Y=             -4.9475    Z=             -0.0280  Tot=              5.0695
 Quadrupole moment (field-independent basis, Debye-Ang):
   XX=            -82.8241   YY=            -98.2940   ZZ=            -94.6411
   XY=            -15.7758   XZ=             -1.7730   YZ=              0.5856

 Normal termination of Gaussian 16 at Wed May  5 15:40:22 2021.
