 Gaussian 16, Revision A.03,
 Gaussian 16:  EM64L-G16RevA.03 25-Dec-2016

 -------------
 #p 6-31g* mp2
 -------------

 ------------------------------------------------------
 Input file generated by CHIRIPA (05-May-2021 14:53:18)
 ------------------------------------------------------
 Symbolic Z-matrix:
 Charge =  0 Multiplicity = 1

                         Standard orientation:
 ---------------------------------------------------------------------
 Center     Atomic      Atomic             Coordinates (Angstroms)
 Number     Number       Type             X           Y           Z
 ---------------------------------------------------------------------
      1          6           0        4.182763   -0.514143    0.074161
      2          6           0        5.547673   -0.966156   -0.446118
      3          6           0        5.949479   -2.347795    0.071009
      4          1           0        4.200791   -0.505120    1.172587
      5          1           0        3.423370   -1.251858   -0.219937
      6          1           0        6.304045   -0.227105   -0.152314
      7          1           0        5.526453   -0.973920   -1.543435
      8          1           0        5.216519   -3.101551   -0.234313
      9          1           0        5.998528   -2.350493    1.164713
     10          1           0        6.928327   -2.651226   -0.313240
     11          6           0        3.767183    0.865252   -0.434062
     12          6           0        2.402273    1.317266    0.086217
     13          6           0        2.000467    2.698904   -0.430910
     14          1           0        4.526576    1.602967   -0.139964
     15          1           0        3.749155    0.856229   -1.532488
     16          1           0        2.423493    1.325029    1.183534
     17          1           0        1.645902    0.578215   -0.207588
     18          1           0        1.951418    2.701603   -1.524614
     19          1           0        2.733427    3.452660   -0.125588
     20          1           0        1.021619    3.002335   -0.046661
     21          6           0       -5.127737   -1.434747   -0.629164
     22          6           0       -4.054043   -2.102099   -0.030545
     23          6           0       -2.928443   -1.393301    0.399778
     24          6           0       -2.909940   -0.011705    0.215003
     25          6           0       -3.963867    0.681769   -0.377974
     26          6           0       -5.079307   -0.047389   -0.800665
     27          1           0       -5.998184   -1.993267   -0.960485
     28          1           0       -4.088902   -3.179478    0.103931
     29          1           0       -2.083265   -1.884728    0.866246
     30          1           0       -3.900124    1.756401   -0.498476
     31          1           0       -5.911689    0.473528   -1.265243
     32          7           0       -1.723695    0.749445    0.666527
     33          8           0       -1.731872    1.966085    0.492301
     34          8           0       -0.808203    0.114980    1.186108
 ---------------------------------------------------------------------

 SCF Done:  E(RHF) =  -669.536403895     A.U. after   15 cycles
 E2 =    -0.2092015720D+01 EUMP2 =    -0.67162841961484D+03

 The electronic state is 1-A.
 Alpha  occ. eigenvalues --  -20.61073 -20.61066 -15.86069 -11.31364 -11.27918
 Alpha  occ. eigenvalues --  -11.27914 -11.27649 -11.26915 -11.26906 -11.20853
 Alpha  occ. eigenvalues --  -11.20487 -11.20389 -11.20115 -11.19768 -11.19255
 Alpha  occ. eigenvalues --   -1.60109  -1.39667  -1.19524  -1.08935  -1.07280
 Alpha  occ. eigenvalues --   -1.04914  -1.02294  -0.95783  -0.94787  -0.86316
 Alpha  occ. eigenvalues --   -0.85822  -0.82617  -0.78425  -0.77675  -0.76980
 Alpha  occ. eigenvalues --   -0.72278  -0.71418  -0.70632  -0.65179  -0.64916
 Alpha  occ. eigenvalues --   -0.63937  -0.62260  -0.59719  -0.58216  -0.56338
 Alpha  occ. eigenvalues --   -0.55408  -0.54128  -0.53246  -0.53005  -0.51475
 Alpha  occ. eigenvalues --   -0.51218  -0.49071  -0.48980  -0.48803  -0.46719
 Alpha  occ. eigenvalues --   -0.45550  -0.45145  -0.44501  -0.44282  -0.42527
 Alpha  occ. eigenvalues --   -0.37500  -0.36513
 Alpha virt. eigenvalues --    0.04814   0.11143   0.16306   0.21277   0.23877
 Alpha virt. eigenvalues --    0.25578   0.27206   0.27732   0.28123   0.28692
 Alpha virt. eigenvalues --    0.29199   0.30853   0.32330   0.32545   0.32806

 Mulliken charges:
               1
     1  C   -0.296243
     2  C   -0.298544
     3  C   -0.474776
     4  H    0.149761
     5  H    0.147647
     6  H    0.150676
     7  H    0.149610
     8  H    0.153092
     9  H    0.154629
    10  H    0.157466
    11  C   -0.298467
    12  C   -0.294555
    13  C   -0.485427
    14  H    0.145117
    15  H    0.143946
    16  H    0.154796
    17  H    0.159167
    18  H    0.144757
    19  H    0.145987
    20  H    0.183205
    21  C   -0.170428
    22  C   -0.218593
    23  C   -0.170811
    24  C    0.158307
    25  C   -0.170607
    26  C   -0.218590
    27  H    0.226264
    28  H    0.224094
    29  H    0.276018
    30  H    0.276072
    31  H    0.224093
    32  N    0.488331
    33  O   -0.459157
    34  O   -0.456836
 Sum of Mulliken charges =  -0.00000

 Dipole moment (field-independent basis, Debye):
    X=             -4.6548    Y=             -2.6949    Z=             -1.4450  Tot=              5.5693
 Quadrupole moment (field-independent basis, Debye-Ang):
   XX=            -71.4669   YY=            -92.3684   ZZ=            -95.2944
   XY=              6.5022   XZ=              5.3481   YZ=             -1.2502

 Normal termination of Gaussian 16 at Thu May  6 12:20:51 2021.
