 Gaussian 16, Revision A.03,
 Gaussian 16:  EM64L-G16RevA.03 25-Dec-2016

 -------------
 #p 6-31g* mp2
 -------------

 ------------------------------------------------------
 Input file generated by CHIRIPA (05-May-2021 14:51:12)
 ------------------------------------------------------
 Symbolic Z-matrix:
 Charge =  0 Multiplicity = 1

                         Standard orientation:
 ---------------------------------------------------------------------
 Center     Atomic      Atomic             Coordinates (Angstroms)
 Number     Number       Type             X           Y           Z
 ---------------------------------------------------------------------
      1          6           0        4.615582   -0.345449   -0.010596
      2          6           0        4.433163   -1.857639   -0.144728
      3          6           0        5.705667   -2.638204    0.185796
      4          1           0        5.429327   -0.020486   -0.673290
      5          1           0        4.934756   -0.111137    1.014402
      6          1           0        4.113091   -2.088901   -1.168782
      7          1           0        3.619630   -2.179011    0.518220
      8          1           0        6.025267   -2.436684    1.213340
      9          1           0        6.521531   -2.346061   -0.483247
     10          1           0        5.552824   -3.717104    0.083459
     11          6           0        3.352147    0.448547   -0.337749
     12          6           0        3.534567    1.960737   -0.203618
     13          6           0        2.262063    2.741302   -0.534141
     14          1           0        3.032973    0.214235   -1.362747
     15          1           0        2.538402    0.123584    0.324945
     16          1           0        4.348100    2.282109   -0.866565
     17          1           0        3.854639    2.191999    0.820437
     18          1           0        1.446198    2.449159    0.134902
     19          1           0        1.942463    2.539782   -1.561685
     20          1           0        2.414906    3.820202   -0.431805
     21          6           0       -3.320440    0.275656   -0.016188
     22          6           0       -2.386030    0.489631    1.175063
     23          6           0       -1.062898    1.145112    0.778248
     24          1           0       -2.811980   -0.345941   -0.765874
     25          1           0       -3.519260    1.244025   -0.495903
     26          1           0       -2.190138   -0.478669    1.653222
     27          1           0       -2.896845    1.110632    1.922085
     28          1           0       -1.239817    2.123889    0.320760
     29          1           0       -0.529095    0.525558    0.050370
     30          1           0       -0.410187    1.288726    1.644968
     31          6           0       -4.647289   -0.378754    0.364533
     32          6           0       -5.581700   -0.592729   -0.826718
     33          6           0       -6.904832   -1.248210   -0.429903
     34          1           0       -4.448469   -1.347123    0.844247
     35          1           0       -5.155750    0.242842    1.114219
     36          1           0       -5.070884   -1.213729   -1.573739
     37          1           0       -5.777591    0.375572   -1.304877
     38          1           0       -7.438634   -0.628656    0.297976
     39          1           0       -6.727912   -2.226987    0.027585
     40          1           0       -7.557543   -1.391825   -1.296623
 ---------------------------------------------------------------------

 SCF Done:  E(RHF) =  -470.733133017     A.U. after   11 cycles
 E2 =    -0.1582693611D+01 EUMP2 =    -0.47231582662787D+03

 The electronic state is 1-A.
 Alpha  occ. eigenvalues --  -11.21616 -11.21606 -11.21580 -11.21509 -11.21414
 Alpha  occ. eigenvalues --  -11.21356 -11.21354 -11.21291 -11.21106 -11.21075
 Alpha  occ. eigenvalues --  -11.21055 -11.20871  -1.08443  -1.08372  -1.03558
 Alpha  occ. eigenvalues --   -1.03451  -0.96029  -0.95883  -0.87077  -0.86876
 Alpha  occ. eigenvalues --   -0.79690  -0.79459  -0.78267  -0.78168  -0.65072
 Alpha  occ. eigenvalues --   -0.65004  -0.60942  -0.60869  -0.59388  -0.59265
 Alpha  occ. eigenvalues --   -0.57632  -0.57501  -0.55306  -0.55188  -0.52796
 Alpha  occ. eigenvalues --   -0.52600  -0.52489  -0.52195  -0.49964  -0.49805
 Alpha  occ. eigenvalues --   -0.48031  -0.47733  -0.46643  -0.46560  -0.45857
 Alpha  occ. eigenvalues --   -0.45719  -0.45681  -0.45597  -0.43774  -0.43717
 Alpha virt. eigenvalues --    0.22018   0.22993   0.23620   0.24764   0.26135
 Alpha virt. eigenvalues --    0.26551   0.27027   0.27538   0.27873   0.29188
 Alpha virt. eigenvalues --    0.30297   0.31084   0.31449   0.31817   0.32248

 Mulliken charges:
               1
     1  C   -0.298175
     2  C   -0.299591
     3  C   -0.475651
     4  H    0.149623
     5  H    0.149374
     6  H    0.151726
     7  H    0.151714
     8  H    0.155153
     9  H    0.155183
    10  H    0.160074
    11  C   -0.299908
    12  C   -0.299083
    13  C   -0.484831
    14  H    0.148945
    15  H    0.151339
    16  H    0.151294
    17  H    0.151150
    18  H    0.169274
    19  H    0.153966
    20  H    0.158819
    21  C   -0.298546
    22  C   -0.300751
    23  C   -0.478735
    24  H    0.149838
    25  H    0.149743
    26  H    0.151797
    27  H    0.151981
    28  H    0.156911
    29  H    0.158449
    30  H    0.158812
    31  C   -0.298341
    32  C   -0.299634
    33  C   -0.475712
    34  H    0.149516
    35  H    0.149665
    36  H    0.151978
    37  H    0.151985
    38  H    0.155184
    39  H    0.155177
    40  H    0.160287
 Sum of Mulliken charges =  -0.00000

 Dipole moment (field-independent basis, Debye):
    X=             -0.0514    Y=              0.0010    Z=              0.0076  Tot=              0.0520
 Quadrupole moment (field-independent basis, Debye-Ang):
   XX=            -86.4421   YY=            -84.7126   ZZ=            -83.8900
   XY=             -0.3390   XZ=             -0.3406   YZ=              0.3452

 Normal termination of Gaussian 16 at Wed May  5 18:18:30 2021.
