 Gaussian 16, Revision A.03,
 Gaussian 16:  EM64L-G16RevA.03 25-Dec-2016

 -------------
 #p 6-31g* mp2
 -------------

 ------------------------------------------------------
 Input file generated by CHIRIPA (05-May-2021 14:55:24)
 ------------------------------------------------------
 Symbolic Z-matrix:
 Charge =  0 Multiplicity = 1

                         Standard orientation:
 ---------------------------------------------------------------------
 Center     Atomic      Atomic             Coordinates (Angstroms)
 Number     Number       Type             X           Y           Z
 ---------------------------------------------------------------------
      1          6           0        1.617568    1.814149    0.586260
      2          6           0        1.747426    1.347952   -0.726111
      3          6           0        2.643718    0.318492   -1.028473
      4          6           0        3.397845   -0.224387    0.010693
      5          6           0        3.291108    0.218481    1.328177
      6          6           0        2.388465    1.248922    1.607416
      7          1           0        0.918841    2.614239    0.812161
      8          1           0        1.150027    1.785040   -1.521167
      9          1           0        2.764230   -0.061495   -2.035699
     10          1           0        3.900207   -0.236985    2.099519
     11          1           0        2.289710    1.608977    2.627539
     12          7           0        4.350070   -1.314749   -0.297164
     13          8           0        5.002991   -1.776348    0.636248
     14          8           0        4.425474   -1.687131   -1.466045
     15          6           0       -4.817047   -0.274421   -0.240876
     16          6           0       -5.072411   -1.549607    0.563286
     17          6           0       -6.414109   -2.201473    0.227563
     18          1           0       -5.630537    0.439458   -0.052319
     19          1           0       -4.852126   -0.512217   -1.313078
     20          1           0       -5.035488   -1.309740    1.633668
     21          1           0       -4.258118   -2.260459    0.372941
     22          1           0       -6.457776   -2.468884   -0.833184
     23          1           0       -7.239563   -1.512764    0.434706
     24          1           0       -6.576215   -3.111384    0.813775
     25          6           0       -3.479674    0.388807    0.083612
     26          6           0       -3.224309    1.663992   -0.720550
     27          6           0       -1.882611    2.315859   -0.384827
     28          1           0       -3.444594    0.626602    1.155814
     29          1           0       -2.666182   -0.325072   -0.104945
     30          1           0       -4.038602    2.374844   -0.530205
     31          1           0       -3.261232    1.424126   -1.790932
     32          1           0       -1.057157    1.627150   -0.591970
     33          1           0       -1.838944    2.583270    0.675920
     34          1           0       -1.720504    3.225770   -0.971039
 ---------------------------------------------------------------------

 SCF Done:  E(RHF) =  -669.534309511     A.U. after   15 cycles
 E2 =    -0.2092401229D+01 EUMP2 =    -0.67162671073962D+03

 The electronic state is 1-A.
 Alpha  occ. eigenvalues --  -20.60736 -20.60731 -15.85790 -11.31142 -11.27727
 Alpha  occ. eigenvalues --  -11.27721 -11.27398 -11.26707 -11.26678 -11.22408
 Alpha  occ. eigenvalues --  -11.22179 -11.21990 -11.21956 -11.21828 -11.21352
 Alpha  occ. eigenvalues --   -1.59813  -1.39366  -1.19322  -1.09013  -1.08710
 Alpha  occ. eigenvalues --   -1.04732  -1.04156  -0.96653  -0.95540  -0.87693
 Alpha  occ. eigenvalues --   -0.86117  -0.82381  -0.80253  -0.78777  -0.77436
 Alpha  occ. eigenvalues --   -0.72009  -0.71137  -0.70409  -0.65659  -0.64972
 Alpha  occ. eigenvalues --   -0.64751  -0.62133  -0.61505  -0.60026  -0.58224
 Alpha  occ. eigenvalues --   -0.55956  -0.55216  -0.53368  -0.53263  -0.52854
 Alpha  occ. eigenvalues --   -0.52760  -0.50557  -0.48766  -0.48764  -0.48529
 Alpha  occ. eigenvalues --   -0.47240  -0.46329  -0.46222  -0.44776  -0.44393
 Alpha  occ. eigenvalues --   -0.37240  -0.36323
 Alpha virt. eigenvalues --    0.05100   0.11165   0.16578   0.20785   0.22395
 Alpha virt. eigenvalues --    0.23886   0.25829   0.26290   0.27063   0.27531
 Alpha virt. eigenvalues --    0.29070   0.30121   0.30966   0.31504   0.31992

 Mulliken charges:
               1
     1  C   -0.169161
     2  C   -0.222795
     3  C   -0.172249
     4  C    0.157853
     5  C   -0.170560
     6  C   -0.219924
     7  H    0.232480
     8  H    0.225620
     9  H    0.275337
    10  H    0.275449
    11  H    0.223220
    12  N    0.488153
    13  O   -0.460602
    14  O   -0.460703
    15  C   -0.298875
    16  C   -0.300216
    17  C   -0.476059
    18  H    0.150179
    19  H    0.150572
    20  H    0.151983
    21  H    0.153527
    22  H    0.155954
    23  H    0.155286
    24  H    0.161746
    25  C   -0.299265
    26  C   -0.299173
    27  C   -0.488090
    28  H    0.149306
    29  H    0.152124
    30  H    0.154428
    31  H    0.153730
    32  H    0.159515
    33  H    0.152442
    34  H    0.158768
 Sum of Mulliken charges =  -0.00000

 Dipole moment (field-independent basis, Debye):
    X=             -3.5022    Y=              3.7923    Z=              1.0985  Tot=              5.2777
 Quadrupole moment (field-independent basis, Debye-Ang):
   XX=           -118.2301   YY=            -97.3796   ZZ=            -89.6067
   XY=             13.2357   XZ=              4.7492   YZ=             -0.0381

 Normal termination of Gaussian 16 at Thu May  6 17:41:49 2021.
