 Gaussian 16, Revision A.03,
 Gaussian 16:  EM64L-G16RevA.03 25-Dec-2016

 -------------
 #p 6-31g* mp2
 -------------

 ------------------------------------------------------
 Input file generated by CHIRIPA (05-May-2021 14:57:22)
 ------------------------------------------------------
 Symbolic Z-matrix:
 Charge =  0 Multiplicity = 1

                         Standard orientation:
 ---------------------------------------------------------------------
 Center     Atomic      Atomic             Coordinates (Angstroms)
 Number     Number       Type             X           Y           Z
 ---------------------------------------------------------------------
      1          6           0        3.115700    2.402291   -0.048980
      2          6           0        4.264433    1.801742   -0.574597
      3          6           0        4.404211    0.410706   -0.569231
      4          6           0        3.371093   -0.352817   -0.027946
      5          6           0        2.214478    0.215909    0.503168
      6          6           0        2.096186    1.608857    0.487280
      7          1           0        3.015462    3.483624   -0.057236
      8          1           0        5.057806    2.415437   -0.991711
      9          1           0        5.282842   -0.080351   -0.969592
     10          1           0        1.440515   -0.422161    0.912149
     11          1           0        1.202945    2.072512    0.896168
     12          7           0        3.507697   -1.826457   -0.016695
     13          8           0        2.583242   -2.476910    0.465934
     14          8           0        4.536634   -2.303138   -0.490720
     15          6           0       -2.330131    2.398782    0.329646
     16          6           0       -3.331825    2.198023   -0.625773
     17          6           0       -3.903258    0.934115   -0.800557
     18          6           0       -3.447039   -0.111333    0.000812
     19          6           0       -2.450732    0.057001    0.961191
     20          6           0       -1.893552    1.329514    1.118688
     21          1           0       -1.891764    3.383958    0.458707
     22          1           0       -3.672843    3.026591   -1.239962
     23          1           0       -4.680241    0.750736   -1.532736
     24          1           0       -2.131492   -0.788340    1.558604
     25          1           0       -1.115780    1.482495    1.861463
     26          7           0       -4.044445   -1.453931   -0.175073
     27          8           0       -3.625037   -2.358607    0.543463
     28          8           0       -4.920790   -1.576160   -1.028137
 ---------------------------------------------------------------------

 SCF Done:  E(RHF) =  -868.336029221     A.U. after   16 cycles
 E2 =    -0.2600652469D+01 EUMP2 =    -0.87093668168969D+03

 The electronic state is 1-A.
 Alpha  occ. eigenvalues --  -20.61008 -20.61007 -20.60999 -20.60991 -15.86067
 Alpha  occ. eigenvalues --  -15.86066 -11.31676 -11.31591 -11.28325 -11.28270
 Alpha  occ. eigenvalues --  -11.28234 -11.28168 -11.28156 -11.27989 -11.27487
 Alpha  occ. eigenvalues --  -11.27328 -11.27324 -11.27201  -1.60078  -1.60073
 Alpha  occ. eigenvalues --   -1.39628  -1.39619  -1.19901  -1.19788  -1.09265
 Alpha  occ. eigenvalues --   -1.09158  -1.05362  -1.05217  -0.96046  -0.95963
 Alpha  occ. eigenvalues --   -0.86773  -0.86602  -0.82897  -0.82786  -0.77923
 Alpha  occ. eigenvalues --   -0.77767  -0.72285  -0.72277  -0.71404  -0.71399
 Alpha  occ. eigenvalues --   -0.71031  -0.70908  -0.65613  -0.65532  -0.65437
 Alpha  occ. eigenvalues --   -0.65113  -0.62828  -0.62433  -0.55885  -0.55735
 Alpha  occ. eigenvalues --   -0.53683  -0.53547  -0.53507  -0.53230  -0.49069
 Alpha  occ. eigenvalues --   -0.49046  -0.49027  -0.49018  -0.44997  -0.44970
 Alpha  occ. eigenvalues --   -0.37920  -0.37768  -0.37008  -0.36757
 Alpha virt. eigenvalues --    0.04659   0.04749   0.10506   0.10872   0.16028
 Alpha virt. eigenvalues --    0.16190   0.18508   0.22107   0.24981   0.26142
 Alpha virt. eigenvalues --    0.28178   0.29434   0.29682   0.30969   0.32045

 Mulliken charges:
               1
     1  C   -0.171231
     2  C   -0.218183
     3  C   -0.169961
     4  C    0.159211
     5  C   -0.169602
     6  C   -0.216889
     7  H    0.224187
     8  H    0.224726
     9  H    0.277496
    10  H    0.272572
    11  H    0.213624
    12  N    0.488009
    13  O   -0.458120
    14  O   -0.458941
    15  C   -0.170502
    16  C   -0.217992
    17  C   -0.168867
    18  C    0.159724
    19  C   -0.170611
    20  C   -0.223744
    21  H    0.221990
    22  H    0.225044
    23  H    0.278285
    24  H    0.279948
    25  H    0.216910
    26  N    0.487959
    27  O   -0.455987
    28  O   -0.459054
 Sum of Mulliken charges =  -0.00000

 Dipole moment (field-independent basis, Debye):
    X=              1.5160    Y=              9.7107    Z=              0.4304  Tot=              9.8378
 Quadrupole moment (field-independent basis, Debye-Ang):
   XX=           -116.0182   YY=           -110.1044   ZZ=           -102.4387
   XY=              0.4003   XZ=             -2.0668   YZ=             -2.1962

 Normal termination of Gaussian 16 at Fri May  7 03:16:55 2021.
