 Gaussian 16, Revision A.03,
 Gaussian 16:  EM64L-G16RevA.03 25-Dec-2016

 -------------
 #p 6-31g* mp2
 -------------

 ------------------------------------------------------
 Input file generated by CHIRIPA (05-May-2021 14:57:27)
 ------------------------------------------------------
 Symbolic Z-matrix:
 Charge =  0 Multiplicity = 1

                         Standard orientation:
 ---------------------------------------------------------------------
 Center     Atomic      Atomic             Coordinates (Angstroms)
 Number     Number       Type             X           Y           Z
 ---------------------------------------------------------------------
      1          6           0       -3.348294    2.481853    0.210620
      2          6           0       -2.193888    1.704079    0.073011
      3          6           0       -2.287513    0.323427   -0.125938
      4          6           0       -3.557279   -0.249108   -0.182401
      5          6           0       -4.725989    0.498931   -0.048817
      6          6           0       -4.608438    1.877862    0.149375
      7          1           0       -3.266271    3.553709    0.364874
      8          1           0       -1.213925    2.170443    0.120153
      9          1           0       -1.410176   -0.302415   -0.235575
     10          1           0       -5.688974    0.005542   -0.100251
     11          1           0       -5.506680    2.479405    0.255918
     12          7           0       -3.669060   -1.709831   -0.392619
     13          8           0       -4.799453   -2.190179   -0.438614
     14          8           0       -2.624165   -2.346740   -0.507411
     15          6           0        2.226541   -0.222326    2.290308
     16          6           0        1.628112    0.345168    1.160550
     17          6           0        2.345708    0.477978   -0.031912
     18          6           0        3.665726    0.030665   -0.059379
     19          6           0        4.289818   -0.538983    1.049359
     20          6           0        3.553145   -0.661815    2.231211
     21          1           0        1.661686   -0.321621    3.212521
     22          1           0        0.598012    0.687353    1.203540
     23          1           0        1.907008    0.913570   -0.921416
     24          1           0        5.318339   -0.870892    0.975891
     25          1           0        4.020470   -1.102930    3.107037
     26          7           0        4.435511    0.165984   -1.316170
     27          8           0        5.597040   -0.235866   -1.314522
     28          8           0        3.862761    0.671333   -2.279090
 ---------------------------------------------------------------------

 SCF Done:  E(RHF) =  -868.336640523     A.U. after   16 cycles
 E2 =    -0.2600497759D+01 EUMP2 =    -0.87093713828239D+03

 The electronic state is 1-A.
 Alpha  occ. eigenvalues --  -20.61263 -20.61258 -20.61022 -20.61014 -15.86325
 Alpha  occ. eigenvalues --  -15.86082 -11.31836 -11.31544 -11.28495 -11.28394
 Alpha  occ. eigenvalues --  -11.28228 -11.28184 -11.28107 -11.27893 -11.27568
 Alpha  occ. eigenvalues --  -11.27404 -11.27277 -11.27101  -1.60338  -1.60094
 Alpha  occ. eigenvalues --   -1.39887  -1.39646  -1.20034  -1.19740  -1.09387
 Alpha  occ. eigenvalues --   -1.09104  -1.05494  -1.05178  -0.96198  -0.95922
 Alpha  occ. eigenvalues --   -0.86853  -0.86572  -0.83075  -0.82761  -0.78123
 Alpha  occ. eigenvalues --   -0.77771  -0.72537  -0.72299  -0.71665  -0.71417
 Alpha  occ. eigenvalues --   -0.71123  -0.70831  -0.65719  -0.65510  -0.65401
 Alpha  occ. eigenvalues --   -0.65211  -0.63000  -0.62341  -0.55935  -0.55633
 Alpha  occ. eigenvalues --   -0.53792  -0.53624  -0.53426  -0.53255  -0.49309
 Alpha  occ. eigenvalues --   -0.49284  -0.49065  -0.49047  -0.45261  -0.45031
 Alpha  occ. eigenvalues --   -0.37989  -0.37688  -0.37086  -0.36784
 Alpha virt. eigenvalues --    0.04456   0.04748   0.10541   0.10883   0.15790
 Alpha virt. eigenvalues --    0.16136   0.18523   0.22075   0.24773   0.27529
 Alpha virt. eigenvalues --    0.27948   0.29232   0.29969   0.31723   0.32107

 Mulliken charges:
               1
     1  C   -0.169919
     2  C   -0.223215
     3  C   -0.174387
     4  C    0.158812
     5  C   -0.169313
     6  C   -0.218400
     7  H    0.228381
     8  H    0.218676
     9  H    0.274975
    10  H    0.278137
    11  H    0.226358
    12  N    0.487971
    13  O   -0.458257
    14  O   -0.459155
    15  C   -0.169521
    16  C   -0.224259
    17  C   -0.171598
    18  C    0.159477
    19  C   -0.169014
    20  C   -0.218007
    21  H    0.228636
    22  H    0.218727
    23  H    0.272150
    24  H    0.277657
    25  H    0.225850
    26  N    0.488293
    27  O   -0.458633
    28  O   -0.460420
 Sum of Mulliken charges =  -0.00000

 Dipole moment (field-independent basis, Debye):
    X=             -2.3720    Y=              4.5777    Z=              5.2074  Tot=              7.3280
 Quadrupole moment (field-independent basis, Debye-Ang):
   XX=           -117.5200   YY=           -107.6596   ZZ=           -105.7795
   XY=            -23.1605   XZ=             15.9202   YZ=             -2.1337

 Normal termination of Gaussian 16 at Thu May  6 00:29:50 2021.
