 Gaussian 16, Revision A.03,
 Gaussian 16:  EM64L-G16RevA.03 25-Dec-2016

 -------------
 #p 6-31g* mp2
 -------------

 ------------------------------------------------------
 Input file generated by CHIRIPA (05-May-2021 14:51:08)
 ------------------------------------------------------
 Symbolic Z-matrix:
 Charge =  0 Multiplicity = 1

                         Standard orientation:
 ---------------------------------------------------------------------
 Center     Atomic      Atomic             Coordinates (Angstroms)
 Number     Number       Type             X           Y           Z
 ---------------------------------------------------------------------
      1          6           0        3.559714    0.304733   -0.025623
      2          6           0        2.948608    1.703576   -0.113792
      3          6           0        1.437199    1.704041    0.117371
      4          1           0        3.074190   -0.347793   -0.764149
      5          1           0        3.338808   -0.122713    0.962246
      6          1           0        3.171786    2.128805   -1.100701
      7          1           0        3.435777    2.352898    0.624898
      8          1           0        1.198929    1.304355    1.108370
      9          1           0        0.933438    1.078989   -0.627033
     10          1           0        1.021052    2.714053    0.049871
     11          6           0        5.070033    0.287912   -0.254495
     12          6           0        5.681138   -1.110931   -0.166326
     13          6           0        7.192548   -1.111396   -0.397489
     14          1           0        5.290939    0.715358   -1.242364
     15          1           0        5.555557    0.940438    0.484031
     16          1           0        5.193970   -1.760253   -0.905017
     17          1           0        5.457961   -1.536160    0.820582
     18          1           0        7.696308   -0.486344    0.346915
     19          1           0        7.430817   -0.711711   -1.388489
     20          1           0        7.608695   -2.121408   -0.329989
     21          6           0       -4.890927   -0.523191   -0.307294
     22          6           0       -6.163087    0.305184   -0.124572
     23          6           0       -7.306547   -0.160782   -1.026330
     24          1           0       -4.575253   -0.471679   -1.358314
     25          1           0       -5.115965   -1.578528   -0.099886
     26          1           0       -5.935395    1.358841   -0.330918
     27          1           0       -6.475661    0.251850    0.926175
     28          1           0       -7.562179   -1.204365   -0.816120
     29          1           0       -7.018842   -0.091083   -2.080355
     30          1           0       -8.206112    0.445075   -0.879424
     31          6           0       -3.738820   -0.069454    0.587413
     32          6           0       -2.466660   -0.897829    0.404690
     33          6           0       -1.323200   -0.431863    1.306448
     34          1           0       -3.513782    0.985883    0.380005
     35          1           0       -4.054494   -0.120966    1.638432
     36          1           0       -2.154086   -0.844494   -0.646056
     37          1           0       -2.694352   -1.951486    0.611035
     38          1           0       -1.610904   -0.501562    2.360474
     39          1           0       -1.067568    0.611720    1.096239
     40          1           0       -0.423635   -1.037720    1.159543
 ---------------------------------------------------------------------

 SCF Done:  E(RHF) =  -470.732207716     A.U. after   11 cycles
 E2 =    -0.1582824107D+01 EUMP2 =    -0.47231503182247D+03

 The electronic state is 1-A.
 Alpha  occ. eigenvalues --  -11.21594 -11.21573 -11.21560 -11.21523 -11.21391
 Alpha  occ. eigenvalues --  -11.21360 -11.21332 -11.21298 -11.21065 -11.21050
 Alpha  occ. eigenvalues --  -11.20985 -11.20880  -1.08416  -1.08375  -1.03539
 Alpha  occ. eigenvalues --   -1.03440  -0.96042  -0.95844  -0.87116  -0.86814
 Alpha  occ. eigenvalues --   -0.79700  -0.79425  -0.78242  -0.78174  -0.65043
 Alpha  occ. eigenvalues --   -0.65012  -0.60921  -0.60873  -0.59383  -0.59243
 Alpha  occ. eigenvalues --   -0.57596  -0.57526  -0.55308  -0.55186  -0.52777
 Alpha  occ. eigenvalues --   -0.52672  -0.52397  -0.52166  -0.49968  -0.49778
 Alpha  occ. eigenvalues --   -0.47956  -0.47746  -0.46647  -0.46493  -0.45802
 Alpha  occ. eigenvalues --   -0.45714  -0.45696  -0.45569  -0.43768  -0.43706
 Alpha virt. eigenvalues --    0.22352   0.22940   0.23673   0.24738   0.26440
 Alpha virt. eigenvalues --    0.26553   0.27143   0.27406   0.27736   0.29277
 Alpha virt. eigenvalues --    0.30564   0.30733   0.31635   0.31767   0.32083

 Mulliken charges:
               1
     1  C   -0.298323
     2  C   -0.300531
     3  C   -0.478163
     4  H    0.149340
     5  H    0.149589
     6  H    0.151346
     7  H    0.151683
     8  H    0.160356
     9  H    0.155975
    10  H    0.158669
    11  C   -0.298198
    12  C   -0.299638
    13  C   -0.475695
    14  H    0.149493
    15  H    0.149671
    16  H    0.151861
    17  H    0.151927
    18  H    0.155186
    19  H    0.155157
    20  H    0.160221
    21  C   -0.298206
    22  C   -0.299607
    23  C   -0.475668
    24  H    0.149460
    25  H    0.149420
    26  H    0.151877
    27  H    0.151876
    28  H    0.155129
    29  H    0.155102
    30  H    0.160149
    31  C   -0.298425
    32  C   -0.300006
    33  C   -0.479906
    34  H    0.149690
    35  H    0.149491
    36  H    0.151143
    37  H    0.151291
    38  H    0.153208
    39  H    0.164288
    40  H    0.159767
 Sum of Mulliken charges =  -0.00000

 Dipole moment (field-independent basis, Debye):
    X=              0.0156    Y=              0.0195    Z=              0.0130  Tot=              0.0282
 Quadrupole moment (field-independent basis, Debye-Ang):
   XX=            -86.9381   YY=            -84.5094   ZZ=            -83.6162
   XY=              0.1301   XZ=             -0.4128   YZ=             -0.4464

 Normal termination of Gaussian 16 at Thu May  6 14:52:09 2021.
