 Gaussian 16, Revision A.03,
 Gaussian 16:  EM64L-G16RevA.03 25-Dec-2016

 -------------
 #p 6-31g* mp2
 -------------

 ------------------------------------------------------
 Input file generated by CHIRIPA (05-May-2021 14:53:16)
 ------------------------------------------------------
 Symbolic Z-matrix:
 Charge =  0 Multiplicity = 1

                         Standard orientation:
 ---------------------------------------------------------------------
 Center     Atomic      Atomic             Coordinates (Angstroms)
 Number     Number       Type             X           Y           Z
 ---------------------------------------------------------------------
      1          6           0        3.417611    0.921045   -0.249255
      2          6           0        3.705125    2.057362    0.732632
      3          6           0        3.438921    3.438399    0.132910
      4          1           0        4.034216    1.057013   -1.148286
      5          1           0        2.370399    0.984279   -0.575971
      6          1           0        4.751104    1.991179    1.058462
      7          1           0        3.087904    1.918567    1.629510
      8          1           0        2.392463    3.529141   -0.175784
      9          1           0        4.065112    3.602166   -0.750077
     10          1           0        3.650938    4.235934    0.851830
     11          6           0        3.679001   -0.465755    0.335715
     12          6           0        3.391487   -1.602072   -0.646173
     13          6           0        3.657691   -2.983109   -0.046451
     14          1           0        4.726213   -0.528989    0.662431
     15          1           0        3.062396   -0.601723    1.234745
     16          1           0        4.008707   -1.463277   -1.543051
     17          1           0        2.345508   -1.535890   -0.972003
     18          1           0        3.031500   -3.146876    0.836536
     19          1           0        4.704149   -3.073851    0.262244
     20          1           0        3.445674   -3.780645   -0.765371
     21          6           0       -4.886496    1.198745   -0.016298
     22          6           0       -4.895481   -0.104494    0.491647
     23          6           0       -3.729835   -0.876372    0.487046
     24          6           0       -2.567704   -0.310931   -0.035463
     25          6           0       -2.526837    0.984524   -0.548704
     26          6           0       -3.704287    1.738143   -0.533940
     27          1           0       -5.796581    1.791268   -0.008776
     28          1           0       -5.812145   -0.525989    0.894282
     29          1           0       -3.708632   -1.887939    0.873960
     30          1           0       -1.597731    1.377379   -0.943473
     31          1           0       -3.694357    2.749979   -0.929079
     32          7           0       -1.327439   -1.118420   -0.045713
     33          8           0       -0.316543   -0.597207   -0.511614
     34          8           0       -1.389699   -2.257254    0.412347
 ---------------------------------------------------------------------

 SCF Done:  E(RHF) =  -669.536595485     A.U. after   15 cycles
 E2 =    -0.2091658885D+01 EUMP2 =    -0.67162825437018D+03

 The electronic state is 1-A.
 Alpha  occ. eigenvalues --  -20.61123 -20.61112 -15.86139 -11.31396 -11.27951
 Alpha  occ. eigenvalues --  -11.27946 -11.27675 -11.26942 -11.26932 -11.20789
 Alpha  occ. eigenvalues --  -11.20541 -11.20185 -11.20012 -11.19842 -11.19604
 Alpha  occ. eigenvalues --   -1.60169  -1.39728  -1.19557  -1.08973  -1.07194
 Alpha  occ. eigenvalues --   -1.04943  -1.02350  -0.95825  -0.94848  -0.86347
 Alpha  occ. eigenvalues --   -0.85878  -0.82663  -0.78454  -0.77726  -0.76940
 Alpha  occ. eigenvalues --   -0.72364  -0.71475  -0.70665  -0.65217  -0.64946
 Alpha  occ. eigenvalues --   -0.63794  -0.62291  -0.59731  -0.58271  -0.56439
 Alpha  occ. eigenvalues --   -0.55449  -0.54135  -0.53278  -0.53034  -0.51596
 Alpha  occ. eigenvalues --   -0.51281  -0.49206  -0.49110  -0.48756  -0.46767
 Alpha  occ. eigenvalues --   -0.45462  -0.45132  -0.44524  -0.44261  -0.42589
 Alpha  occ. eigenvalues --   -0.37532  -0.36541
 Alpha virt. eigenvalues --    0.04799   0.11115   0.16304   0.21158   0.23927
 Alpha virt. eigenvalues --    0.25462   0.26977   0.27444   0.28189   0.28860
 Alpha virt. eigenvalues --    0.29176   0.30968   0.32289   0.32554   0.32774

 Mulliken charges:
               1
     1  C   -0.302722
     2  C   -0.298650
     3  C   -0.473895
     4  H    0.144393
     5  H    0.162109
     6  H    0.149485
     7  H    0.150627
     8  H    0.150420
     9  H    0.154003
    10  H    0.156711
    11  C   -0.294175
    12  C   -0.310648
    13  C   -0.474372
    14  H    0.142025
    15  H    0.151374
    16  H    0.142262
    17  H    0.181947
    18  H    0.158826
    19  H    0.147059
    20  H    0.157134
    21  C   -0.170368
    22  C   -0.218595
    23  C   -0.170385
    24  C    0.157265
    25  C   -0.170551
    26  C   -0.218509
    27  H    0.226432
    28  H    0.224195
    29  H    0.276092
    30  H    0.275523
    31  H    0.224342
    32  N    0.492921
    33  O   -0.464454
    34  O   -0.457824
 Sum of Mulliken charges =  -0.00000

 Dipole moment (field-independent basis, Debye):
    X=             -4.8382    Y=              2.7447    Z=              0.0143  Tot=              5.5625
 Quadrupole moment (field-independent basis, Debye-Ang):
   XX=            -72.1524   YY=            -95.6824   ZZ=            -94.7049
   XY=             -3.7802   XZ=             -1.5858   YZ=             -1.8219

 Normal termination of Gaussian 16 at Wed May  5 21:57:25 2021.
