 Gaussian 16, Revision A.03,
 Gaussian 16:  EM64L-G16RevA.03 25-Dec-2016

 -------------
 #p 6-31g* mp2
 -------------

 ------------------------------------------------------
 Input file generated by CHIRIPA (05-May-2021 14:51:11)
 ------------------------------------------------------
 Symbolic Z-matrix:
 Charge =  0 Multiplicity = 1

                         Standard orientation:
 ---------------------------------------------------------------------
 Center     Atomic      Atomic             Coordinates (Angstroms)
 Number     Number       Type             X           Y           Z
 ---------------------------------------------------------------------
      1          6           0       -4.719976   -0.703903    0.036221
      2          6           0       -6.234639   -0.692024   -0.172680
      3          6           0       -6.820990   -2.095541   -0.328003
      4          1           0       -4.242913   -1.210094   -0.814147
      5          1           0       -4.484491   -1.301403    0.927813
      6          1           0       -6.467296   -0.093578   -1.062820
      7          1           0       -6.708138   -0.185633    0.678192
      8          1           0       -6.617910   -2.698645    0.562853
      9          1           0       -6.375700   -2.606067   -1.188050
     10          1           0       -7.904902   -2.063660   -0.476259
     11          6           0       -4.119106    0.691826    0.193141
     12          6           0       -2.604443    0.679947    0.402042
     13          6           0       -2.018092    2.083465    0.557365
     14          1           0       -4.354591    1.289326   -0.698451
     15          1           0       -4.596170    1.198017    1.043509
     16          1           0       -2.130945    0.173556   -0.448830
     17          1           0       -2.371786    0.081501    1.292182
     18          1           0       -2.463383    2.593990    1.417412
     19          1           0       -2.221173    2.686568   -0.333491
     20          1           0       -0.934181    2.051583    0.705621
     21          6           0        5.170157   -0.135391   -0.117062
     22          6           0        5.515753   -1.581997    0.237732
     23          6           0        7.021148   -1.849395    0.228771
     24          1           0        5.579948    0.100140   -1.108798
     25          1           0        5.667385    0.538166    0.594613
     26          1           0        5.016904   -2.252686   -0.473564
     27          1           0        5.104928   -1.814171    1.228657
     28          1           0        7.531343   -1.204095    0.951191
     29          1           0        7.442820   -1.645101   -0.760702
     30          1           0        7.245687   -2.889462    0.485096
     31          6           0        3.668926    0.147468   -0.112300
     32          6           0        3.323329    1.594073   -0.467094
     33          6           0        1.817934    1.861472   -0.458134
     34          1           0        3.171698   -0.526089   -0.823975
     35          1           0        3.259135   -0.088063    0.879437
     36          1           0        3.734155    1.826248   -1.458019
     37          1           0        3.822178    2.264762    0.244203
     38          1           0        1.396263    1.657178    0.531340
     39          1           0        1.307739    1.216171   -1.180553
     40          1           0        1.593396    2.901539   -0.714458
 ---------------------------------------------------------------------

 SCF Done:  E(RHF) =  -470.733029799     A.U. after   11 cycles
 E2 =    -0.1582407713D+01 EUMP2 =    -0.47231543751202D+03

 The electronic state is 1-A.
 Alpha  occ. eigenvalues --  -11.21615 -11.21609 -11.21568 -11.21514 -11.21417
 Alpha  occ. eigenvalues --  -11.21358 -11.21351 -11.21289 -11.21103 -11.21077
 Alpha  occ. eigenvalues --  -11.21046 -11.20888  -1.08445  -1.08369  -1.03555
 Alpha  occ. eigenvalues --   -1.03452  -0.96032  -0.95878  -0.87079  -0.86868
 Alpha  occ. eigenvalues --   -0.79644  -0.79495  -0.78256  -0.78185  -0.65076
 Alpha  occ. eigenvalues --   -0.65001  -0.60959  -0.60855  -0.59384  -0.59285
 Alpha  occ. eigenvalues --   -0.57704  -0.57438  -0.55297  -0.55191  -0.52919
 Alpha  occ. eigenvalues --   -0.52583  -0.52417  -0.52125  -0.49932  -0.49847
 Alpha  occ. eigenvalues --   -0.47993  -0.47758  -0.46637  -0.46561  -0.45796
 Alpha  occ. eigenvalues --   -0.45733  -0.45712  -0.45654  -0.43853  -0.43625
 Alpha virt. eigenvalues --    0.22355   0.22960   0.23549   0.24735   0.26416
 Alpha virt. eigenvalues --    0.26602   0.26943   0.27532   0.27641   0.29058
 Alpha virt. eigenvalues --    0.30125   0.31317   0.31505   0.31791   0.32226

 Mulliken charges:
               1
     1  C   -0.298155
     2  C   -0.299589
     3  C   -0.475658
     4  H    0.149443
     5  H    0.149358
     6  H    0.151852
     7  H    0.151870
     8  H    0.155112
     9  H    0.155087
    10  H    0.160130
    11  C   -0.298207
    12  C   -0.298989
    13  C   -0.483432
    14  H    0.149357
    15  H    0.149458
    16  H    0.151697
    17  H    0.151098
    18  H    0.153693
    19  H    0.154391
    20  H    0.170828
    21  C   -0.298292
    22  C   -0.299649
    23  C   -0.475716
    24  H    0.149678
    25  H    0.149563
    26  H    0.151949
    27  H    0.151966
    28  H    0.155198
    29  H    0.155185
    30  H    0.160287
    31  C   -0.298429
    32  C   -0.300229
    33  C   -0.477157
    34  H    0.149556
    35  H    0.149714
    36  H    0.151977
    37  H    0.152064
    38  H    0.155621
    39  H    0.155944
    40  H    0.161428
 Sum of Mulliken charges =  -0.00000

 Dipole moment (field-independent basis, Debye):
    X=              0.0520    Y=              0.0099    Z=             -0.0078  Tot=              0.0535
 Quadrupole moment (field-independent basis, Debye-Ang):
   XX=            -86.4166   YY=            -85.7624   ZZ=            -82.7641
   XY=             -0.1050   XZ=             -0.1880   YZ=              0.0754

 Normal termination of Gaussian 16 at Wed May  5 19:49:23 2021.
