 Gaussian 16, Revision A.03,
 Gaussian 16:  EM64L-G16RevA.03 25-Dec-2016

 -------------
 #p 6-31g* mp2
 -------------

 ------------------------------------------------------
 Input file generated by CHIRIPA (05-May-2021 14:57:21)
 ------------------------------------------------------
 Symbolic Z-matrix:
 Charge =  0 Multiplicity = 1

                         Standard orientation:
 ---------------------------------------------------------------------
 Center     Atomic      Atomic             Coordinates (Angstroms)
 Number     Number       Type             X           Y           Z
 ---------------------------------------------------------------------
      1          6           0       -4.727992    0.014036   -2.156016
      2          6           0       -5.469199    0.019301   -0.969801
      3          6           0       -4.824410   -0.005511    0.270433
      4          6           0       -3.430817   -0.035422    0.287584
      5          6           0       -2.664481   -0.041418   -0.876883
      6          6           0       -3.330463   -0.016253   -2.105859
      7          1           0       -5.237111    0.033448   -3.115087
      8          1           0       -6.554649    0.042800   -1.005717
      9          1           0       -5.373650   -0.002096    1.204104
     10          1           0       -1.583620   -0.065102   -0.809093
     11          1           0       -2.752256   -0.020412   -3.025481
     12          7           0       -2.736990   -0.061876    1.594605
     13          8           0       -1.508246   -0.088009    1.582710
     14          8           0       -3.435051   -0.055978    2.606195
     15          6           0        3.754387   -2.482527   -0.135562
     16          6           0        4.830093   -1.680389   -0.530471
     17          6           0        4.725402   -0.286609   -0.499434
     18          6           0        3.524942    0.274067   -0.066043
     19          6           0        2.435431   -0.498226    0.333732
     20          6           0        2.562591   -1.889930    0.294521
     21          1           0        3.844441   -3.564443   -0.162847
     22          1           0        5.756863   -2.137856   -0.864931
     23          1           0        5.542507    0.358113   -0.799586
     24          1           0        1.524292   -0.013212    0.662374
     25          1           0        1.725541   -2.510393    0.601798
     26          7           0        3.402218    1.748501   -0.028859
     27          8           0        2.333877    2.217984    0.356983
     28          8           0        4.376689    2.406762   -0.386260
 ---------------------------------------------------------------------

 SCF Done:  E(RHF) =  -868.339065796     A.U. after   16 cycles
 E2 =    -0.2598864808D+01 EUMP2 =    -0.87093793060342D+03

 The electronic state is 1-A.
 Alpha  occ. eigenvalues --  -20.61120 -20.61088 -20.60337 -20.60316 -15.86156
 Alpha  occ. eigenvalues --  -15.85379 -11.31383 -11.30708 -11.27953 -11.27926
 Alpha  occ. eigenvalues --  -11.27652 -11.27338 -11.27151 -11.27070 -11.26923
 Alpha  occ. eigenvalues --  -11.26913 -11.26359 -11.26241  -1.60163  -1.59411
 Alpha  occ. eigenvalues --   -1.39727  -1.38960  -1.19542  -1.18895  -1.08959
 Alpha  occ. eigenvalues --   -1.08310  -1.04927  -1.04276  -0.95819  -0.95138
 Alpha  occ. eigenvalues --   -0.86333  -0.85683  -0.82662  -0.81956  -0.77729
 Alpha  occ. eigenvalues --   -0.76992  -0.72388  -0.71595  -0.71470  -0.70740
 Alpha  occ. eigenvalues --   -0.70655  -0.69995  -0.65203  -0.64931  -0.64541
 Alpha  occ. eigenvalues --   -0.64271  -0.62283  -0.61586  -0.55433  -0.54811
 Alpha  occ. eigenvalues --   -0.53259  -0.53022  -0.52642  -0.52349  -0.49138
 Alpha  occ. eigenvalues --   -0.49102  -0.48365  -0.48343  -0.45157  -0.44374
 Alpha  occ. eigenvalues --   -0.37512  -0.36913  -0.36522  -0.35894
 Alpha virt. eigenvalues --    0.04813   0.05500   0.11133   0.11740   0.16332
 Alpha virt. eigenvalues --    0.16985   0.20801   0.22010   0.26063   0.27473
 Alpha virt. eigenvalues --    0.28223   0.29179   0.30823   0.31481   0.31940

 Mulliken charges:
               1
     1  C   -0.170319
     2  C   -0.218461
     3  C   -0.170645
     4  C    0.158639
     5  C   -0.169146
     6  C   -0.218448
     7  H    0.226554
     8  H    0.224250
     9  H    0.276074
    10  H    0.272887
    11  H    0.224789
    12  N    0.493536
    13  O   -0.471170
    14  O   -0.456931
    15  C   -0.171331
    16  C   -0.219418
    17  C   -0.171502
    18  C    0.157412
    19  C   -0.181428
    20  C   -0.222214
    21  H    0.223734
    22  H    0.221295
    23  H    0.273790
    24  H    0.294427
    25  H    0.227344
    26  N    0.487095
    27  O   -0.457389
    28  O   -0.463425
 Sum of Mulliken charges =  -0.00000

 Dipole moment (field-independent basis, Debye):
    X=             -2.3264    Y=             -5.0674    Z=             -4.6786  Tot=              7.2788
 Quadrupole moment (field-independent basis, Debye-Ang):
   XX=            -77.0852   YY=           -109.3220   ZZ=           -106.8385
   XY=            -18.2696   XZ=             10.8669   YZ=              0.3434

 Normal termination of Gaussian 16 at Thu May  6 01:43:48 2021.
