 Gaussian 16, Revision A.03,
 Gaussian 16:  EM64L-G16RevA.03 25-Dec-2016

 -------------
 #p 6-31g* mp2
 -------------

 ------------------------------------------------------
 Input file generated by CHIRIPA (05-May-2021 14:51:11)
 ------------------------------------------------------
 Symbolic Z-matrix:
 Charge =  0 Multiplicity = 1

                         Standard orientation:
 ---------------------------------------------------------------------
 Center     Atomic      Atomic             Coordinates (Angstroms)
 Number     Number       Type             X           Y           Z
 ---------------------------------------------------------------------
      1          6           0        3.061343   -0.430245   -0.653445
      2          6           0        3.474983   -1.825292   -0.183624
      3          6           0        2.785783   -2.941898   -0.968473
      4          1           0        1.971558   -0.327076   -0.560335
      5          1           0        3.294947   -0.326614   -1.722128
      6          1           0        3.241937   -1.925775    0.884182
      7          1           0        4.563932   -1.925085   -0.277683
      8          1           0        3.027686   -2.869918   -2.033791
      9          1           0        1.698180   -2.870611   -0.865325
     10          1           0        3.095891   -3.930638   -0.616212
     11          6           0        3.741949    0.696591    0.121632
     12          6           0        3.328310    2.091637   -0.348189
     13          6           0        4.017510    3.208244    0.436660
     14          1           0        3.508346    0.592959    1.190316
     15          1           0        4.831735    0.593421    0.028522
     16          1           0        2.239361    2.191431   -0.254130
     17          1           0        3.561355    2.192120   -1.415994
     18          1           0        5.105113    3.136956    0.333512
     19          1           0        3.775607    3.136263    1.501978
     20          1           0        3.707402    4.196983    0.084399
     21          6           0       -2.689568   -0.057513    0.531709
     22          6           0       -2.050075   -1.385356    0.938980
     23          6           0       -0.625633   -1.217593    1.468708
     24          1           0       -2.065966    0.422647   -0.234785
     25          1           0       -2.696687    0.618882    1.397638
     26          1           0       -2.045420   -2.059536    0.072910
     27          1           0       -2.675372   -1.862501    1.704455
     28          1           0       -0.616016   -0.565944    2.348402
     29          1           0        0.017515   -0.764098    0.707588
     30          1           0       -0.187547   -2.179134    1.753978
     31          6           0       -4.113725   -0.208832    0.000104
     32          6           0       -4.753217    1.119011   -0.407166
     33          6           0       -6.177660    0.951247   -0.936896
     34          1           0       -4.106606   -0.885228   -0.865825
     35          1           0       -4.737326   -0.688992    0.766598
     36          1           0       -4.127920    1.596157   -1.172642
     37          1           0       -4.757873    1.793190    0.458903
     38          1           0       -6.820807    0.497752   -0.175776
     39          1           0       -6.187276    0.299599   -1.816590
     40          1           0       -6.615746    1.912788   -1.222165
 ---------------------------------------------------------------------

 SCF Done:  E(RHF) =  -470.733297677     A.U. after   11 cycles
 E2 =    -0.1582970852D+01 EUMP2 =    -0.47231626852908D+03

 The electronic state is 1-A.
 Alpha  occ. eigenvalues --  -11.21664 -11.21625 -11.21582 -11.21557 -11.21448
 Alpha  occ. eigenvalues --  -11.21386 -11.21372 -11.21312 -11.21147 -11.21088
 Alpha  occ. eigenvalues --  -11.21052 -11.21032  -1.08476  -1.08399  -1.03582
 Alpha  occ. eigenvalues --   -1.03493  -0.96030  -0.95949  -0.87052  -0.86962
 Alpha  occ. eigenvalues --   -0.79648  -0.79556  -0.78296  -0.78209  -0.65177
 Alpha  occ. eigenvalues --   -0.64982  -0.61064  -0.60812  -0.59394  -0.59318
 Alpha  occ. eigenvalues --   -0.57658  -0.57548  -0.55353  -0.55210  -0.52719
 Alpha  occ. eigenvalues --   -0.52644  -0.52492  -0.52343  -0.50052  -0.49837
 Alpha  occ. eigenvalues --   -0.47983  -0.47867  -0.46760  -0.46550  -0.45910
 Alpha  occ. eigenvalues --   -0.45773  -0.45718  -0.45489  -0.43829  -0.43754
 Alpha virt. eigenvalues --    0.20444   0.23061   0.23795   0.24925   0.25692
 Alpha virt. eigenvalues --    0.26752   0.27038   0.27608   0.28050   0.29194
 Alpha virt. eigenvalues --    0.31097   0.31160   0.31766   0.31899   0.32186

 Mulliken charges:
               1
     1  C   -0.304216
     2  C   -0.299410
     3  C   -0.477311
     4  H    0.154651
     5  H    0.149363
     6  H    0.153086
     7  H    0.151747
     8  H    0.154729
     9  H    0.156724
    10  H    0.159996
    11  C   -0.298224
    12  C   -0.299674
    13  C   -0.475684
    14  H    0.150255
    15  H    0.149576
    16  H    0.151688
    17  H    0.151733
    18  H    0.155124
    19  H    0.155330
    20  H    0.160139
    21  C   -0.298411
    22  C   -0.299510
    23  C   -0.483593
    24  H    0.149416
    25  H    0.149613
    26  H    0.152159
    27  H    0.152369
    28  H    0.155374
    29  H    0.161181
    30  H    0.161245
    31  C   -0.298361
    32  C   -0.299731
    33  C   -0.475745
    34  H    0.149742
    35  H    0.149775
    36  H    0.152069
    37  H    0.151940
    38  H    0.155209
    39  H    0.155280
    40  H    0.160354
 Sum of Mulliken charges =  -0.00000

 Dipole moment (field-independent basis, Debye):
    X=             -0.0229    Y=             -0.0008    Z=              0.0158  Tot=              0.0278
 Quadrupole moment (field-independent basis, Debye-Ang):
   XX=            -85.2951   YY=            -85.6593   ZZ=            -83.8080
   XY=             -0.3708   XZ=             -1.4517   YZ=             -0.3268

 Normal termination of Gaussian 16 at Thu May  6 07:01:33 2021.
