 Gaussian 16, Revision A.03,
 Gaussian 16:  EM64L-G16RevA.03 25-Dec-2016

 -------------
 #p 6-31g* mp2
 -------------

 ------------------------------------------------------
 Input file generated by CHIRIPA (05-May-2021 14:55:19)
 ------------------------------------------------------
 Symbolic Z-matrix:
 Charge =  0 Multiplicity = 1

                         Standard orientation:
 ---------------------------------------------------------------------
 Center     Atomic      Atomic             Coordinates (Angstroms)
 Number     Number       Type             X           Y           Z
 ---------------------------------------------------------------------
      1          6           0       -4.494669    2.218033   -0.191267
      2          6           0       -4.385448    1.338978   -1.273789
      3          6           0       -3.684337    0.136425   -1.143949
      4          6           0       -3.102225   -0.156669    0.088338
      5          6           0       -3.193437    0.698539    1.185420
      6          6           0       -3.899364    1.895576    1.032725
      7          1           0       -5.041180    3.150062   -0.301007
      8          1           0       -4.846752    1.586796   -2.225540
      9          1           0       -3.584246   -0.562302   -1.965643
     10          1           0       -2.722862    0.424041    2.121704
     11          1           0       -3.982558    2.576355    1.875140
     12          7           0       -2.357440   -1.426838    0.237891
     13          8           0       -1.853652   -1.661870    1.334064
     14          8           0       -2.291569   -2.163315   -0.743894
     15          6           0        4.679795    0.322980   -0.437200
     16          6           0        5.767183    0.833975    0.508558
     17          6           0        6.864101    1.613041   -0.217816
     18          1           0        5.139732   -0.316340   -1.203146
     19          1           0        4.234827    1.175973   -0.968049
     20          1           0        6.209018   -0.019593    1.038483
     21          1           0        5.304578    1.471999    1.272456
     22          1           0        6.442658    2.482502   -0.732621
     23          1           0        7.352236    0.982435   -0.967924
     24          1           0        7.631025    1.969064    0.477120
     25          6           0        3.576138   -0.457816    0.274155
     26          6           0        2.488751   -0.968810   -0.671603
     27          6           0        1.391832   -1.747877    0.054771
     28          1           0        4.021106   -1.310809    0.805004
     29          1           0        3.116202    0.181504    1.040101
     30          1           0        2.951355   -1.606833   -1.435500
     31          1           0        2.046916   -0.115242   -1.201527
     32          1           0        0.903697   -1.117271    0.804879
     33          1           0        1.813276   -2.617338    0.569577
     34          1           0        0.624909   -2.103899   -0.640165
 ---------------------------------------------------------------------

 SCF Done:  E(RHF) =  -669.536000881     A.U. after   15 cycles
 E2 =    -0.2091958138D+01 EUMP2 =    -0.67162795901898D+03

 The electronic state is 1-A.
 Alpha  occ. eigenvalues --  -20.60956 -20.60945 -15.85944 -11.31291 -11.27854
 Alpha  occ. eigenvalues --  -11.27850 -11.27592 -11.26863 -11.26853 -11.21200
 Alpha  occ. eigenvalues --  -11.20859 -11.20763 -11.20671 -11.20599 -11.19490
 Alpha  occ. eigenvalues --   -1.59986  -1.39548  -1.19458  -1.08859  -1.07775
 Alpha  occ. eigenvalues --   -1.04856  -1.02772  -0.95706  -0.95178  -0.86257
 Alpha  occ. eigenvalues --   -0.86187  -0.82537  -0.78864  -0.77591  -0.77559
 Alpha  occ. eigenvalues --   -0.72181  -0.71300  -0.70568  -0.65115  -0.64859
 Alpha  occ. eigenvalues --   -0.64422  -0.62204  -0.60187  -0.58613  -0.56788
 Alpha  occ. eigenvalues --   -0.55361  -0.54492  -0.53192  -0.52948  -0.51830
 Alpha  occ. eigenvalues --   -0.51609  -0.49197  -0.48946  -0.48863  -0.47180
 Alpha  occ. eigenvalues --   -0.45967  -0.45213  -0.45049  -0.44683  -0.42984
 Alpha  occ. eigenvalues --   -0.37432  -0.36458
 Alpha virt. eigenvalues --    0.04897   0.11196   0.16368   0.21327   0.23446
 Alpha virt. eigenvalues --    0.25119   0.27221   0.27274   0.28072   0.28159
 Alpha virt. eigenvalues --    0.28975   0.30905   0.32067   0.32315   0.32514

 Mulliken charges:
               1
     1  C   -0.170624
     2  C   -0.218558
     3  C   -0.170843
     4  C    0.159691
     5  C   -0.171155
     6  C   -0.218561
     7  H    0.225982
     8  H    0.223837
     9  H    0.275815
    10  H    0.275675
    11  H    0.223796
    12  N    0.488812
    13  O   -0.456579
    14  O   -0.459901
    15  C   -0.297230
    16  C   -0.298955
    17  C   -0.475223
    18  H    0.149000
    19  H    0.146939
    20  H    0.151961
    21  H    0.150441
    22  H    0.153764
    23  H    0.154926
    24  H    0.158822
    25  C   -0.296735
    26  C   -0.300619
    27  C   -0.481352
    28  H    0.149444
    29  H    0.147037
    30  H    0.149043
    31  H    0.145056
    32  H    0.157699
    33  H    0.153467
    34  H    0.175126
 Sum of Mulliken charges =  -0.00000

 Dipole moment (field-independent basis, Debye):
    X=             -2.9416    Y=              4.3739    Z=             -0.4794  Tot=              5.2928
 Quadrupole moment (field-independent basis, Debye-Ang):
   XX=            -80.3238   YY=            -95.9510   ZZ=            -90.5518
   XY=            -14.6545   XZ=              2.9190   YZ=              2.0684

 Normal termination of Gaussian 16 at Thu May  6 12:23:49 2021.
