 Gaussian 16, Revision A.03,
 Gaussian 16:  EM64L-G16RevA.03 25-Dec-2016

 -------------
 #p 6-31g* mp2
 -------------

 ------------------------------------------------------
 Input file generated by CHIRIPA (05-May-2021 14:57:22)
 ------------------------------------------------------
 Symbolic Z-matrix:
 Charge =  0 Multiplicity = 1

                         Standard orientation:
 ---------------------------------------------------------------------
 Center     Atomic      Atomic             Coordinates (Angstroms)
 Number     Number       Type             X           Y           Z
 ---------------------------------------------------------------------
      1          6           0        2.280048    2.335021   -0.853144
      2          6           0        3.590594    1.859364   -0.966016
      3          6           0        3.913619    0.563413   -0.552841
      4          6           0        2.896753   -0.233413   -0.029063
      5          6           0        1.581676    0.211744    0.096226
      6          6           0        1.281532    1.511146   -0.323317
      7          1           0        2.038001    3.343087   -1.176582
      8          1           0        4.368091    2.496975   -1.377108
      9          1           0        4.919951    0.169804   -0.628901
     10          1           0        0.828088   -0.447269    0.510020
     11          1           0        0.262880    1.877888   -0.234472
     12          7           0        3.226614   -1.607204    0.411718
     13          8           0        2.312637   -2.289443    0.869794
     14          8           0        4.392890   -1.975731    0.290781
     15          6           0       -2.156582    1.739972    1.802410
     16          6           0       -2.271380    0.397523    2.178141
     17          6           0       -2.650627   -0.571232    1.244207
     18          6           0       -2.908690   -0.160543   -0.062709
     19          6           0       -2.803066    1.169152   -0.467735
     20          6           0       -2.422323    2.120831    0.482997
     21          1           0       -1.861393    2.485891    2.534437
     22          1           0       -2.065621    0.098855    3.202107
     23          1           0       -2.747222   -1.617410    1.508018
     24          1           0       -3.014707    1.436443   -1.495929
     25          1           0       -2.333979    3.162670    0.188362
     26          7           0       -3.310973   -1.177081   -1.060315
     27          8           0       -3.532813   -0.789568   -2.205416
     28          8           0       -3.396827   -2.342109   -0.678247
 ---------------------------------------------------------------------

 SCF Done:  E(RHF) =  -868.337166947     A.U. after   16 cycles
 E2 =    -0.2602280698D+01 EUMP2 =    -0.87093944764429D+03

 The electronic state is 1-A.
 Alpha  occ. eigenvalues --  -20.61287 -20.61261 -20.60787 -20.60781 -15.86344
 Alpha  occ. eigenvalues --  -15.85838 -11.32014 -11.31213 -11.28665 -11.28565
 Alpha  occ. eigenvalues --  -11.28405 -11.27782 -11.27739 -11.27719 -11.27599
 Alpha  occ. eigenvalues --  -11.27546 -11.26825 -11.26670  -1.60348  -1.59860
 Alpha  occ. eigenvalues --   -1.39892  -1.39414  -1.20249  -1.19382  -1.09565
 Alpha  occ. eigenvalues --   -1.08788  -1.05677  -1.04774  -0.96332  -0.95621
 Alpha  occ. eigenvalues --   -0.87031  -0.86186  -0.83150  -0.82445  -0.78148
 Alpha  occ. eigenvalues --   -0.77489  -0.72549  -0.72058  -0.71683  -0.71267
 Alpha  occ. eigenvalues --   -0.71182  -0.70523  -0.65855  -0.65627  -0.65034
 Alpha  occ. eigenvalues --   -0.64810  -0.62963  -0.62172  -0.56108  -0.55375
 Alpha  occ. eigenvalues --   -0.54007  -0.53706  -0.53125  -0.52782  -0.49335
 Alpha  occ. eigenvalues --   -0.49287  -0.48816  -0.48811  -0.45229  -0.44816
 Alpha  occ. eigenvalues --   -0.38252  -0.37393  -0.37285  -0.36345
 Alpha virt. eigenvalues --    0.04353   0.05042   0.10211   0.11299   0.15730
 Alpha virt. eigenvalues --    0.16538   0.20471   0.21667   0.26315   0.27501
 Alpha virt. eigenvalues --    0.27630   0.28206   0.30236   0.31346   0.31916

 Mulliken charges:
               1
     1  C   -0.173799
     2  C   -0.218112
     3  C   -0.171318
     4  C    0.159453
     5  C   -0.176596
     6  C   -0.224992
     7  H    0.222415
     8  H    0.222902
     9  H    0.275633
    10  H    0.275292
    11  H    0.230480
    12  N    0.488121
    13  O   -0.460529
    14  O   -0.460165
    15  C   -0.170198
    16  C   -0.220354
    17  C   -0.172036
    18  C    0.158670
    19  C   -0.170985
    20  C   -0.235712
    21  H    0.229715
    22  H    0.230778
    23  H    0.283627
    24  H    0.278519
    25  H    0.224256
    26  N    0.488293
    27  O   -0.459145
    28  O   -0.454212
 Sum of Mulliken charges =  -0.00000

 Dipole moment (field-independent basis, Debye):
    X=             -0.0622    Y=              8.1961    Z=              2.0714  Tot=              8.4540
 Quadrupole moment (field-independent basis, Debye-Ang):
   XX=           -115.4440   YY=           -106.6369   ZZ=           -103.0512
   XY=              4.4224   XZ=            -16.3604   YZ=             -3.5976

 Normal termination of Gaussian 16 at Thu May  6 22:38:40 2021.
