 Gaussian 16, Revision A.03,
 Gaussian 16:  EM64L-G16RevA.03 25-Dec-2016

 -------------
 #p 6-31g* mp2
 -------------

 ------------------------------------------------------
 Input file generated by CHIRIPA (05-May-2021 14:53:13)
 ------------------------------------------------------
 Symbolic Z-matrix:
 Charge =  0 Multiplicity = 1

                         Standard orientation:
 ---------------------------------------------------------------------
 Center     Atomic      Atomic             Coordinates (Angstroms)
 Number     Number       Type             X           Y           Z
 ---------------------------------------------------------------------
      1          6           0       -3.749581    0.356445    0.171255
      2          6           0       -5.027862    0.927661   -0.443314
      3          6           0       -5.560991    2.139661    0.321293
      4          1           0       -3.945808    0.075923    1.215165
      5          1           0       -2.981200    1.141483    0.197701
      6          1           0       -5.793166    0.141391   -0.469861
      7          1           0       -4.828621    1.206678   -1.485939
      8          1           0       -4.817456    2.943107    0.336522
      9          1           0       -5.787482    1.871767    1.358374
     10          1           0       -6.475109    2.531978   -0.135146
     11          6           0       -3.204408   -0.855630   -0.581997
     12          6           0       -1.926127   -1.426846    0.032572
     13          6           0       -1.392998   -2.638846   -0.732035
     14          1           0       -3.972790   -1.640668   -0.608442
     15          1           0       -3.008181   -0.575108   -1.625907
     16          1           0       -2.125369   -1.705863    1.075198
     17          1           0       -1.160823   -0.640576    0.059119
     18          1           0       -1.166507   -2.370952   -1.769115
     19          1           0       -2.136533   -3.442292   -0.747264
     20          1           0       -0.478881   -3.031163   -0.275596
     21          6           0        3.594172    2.473846   -0.473808
     22          6           0        2.578461    2.355691    0.480597
     23          6           0        2.084451    1.098107    0.839743
     24          6           0        2.631542   -0.025317    0.221764
     25          6           0        3.644120    0.059745   -0.732564
     26          6           0        4.122828    1.327516   -1.076281
     27          1           0        3.971988    3.454724   -0.746808
     28          1           0        2.166015    3.244216    0.950125
     29          1           0        1.298650    0.977818    1.575586
     30          1           0        4.035406   -0.844198   -1.183341
     31          1           0        4.911698    1.416256   -1.817803
     32          7           0        2.116656   -1.362057    0.593808
     33          8           0        2.615412   -2.336416    0.034786
     34          8           0        1.224079   -1.410125    1.437391
 ---------------------------------------------------------------------

 SCF Done:  E(RHF) =  -669.536254235     A.U. after   15 cycles
 E2 =    -0.2092674087D+01 EUMP2 =    -0.67162892832247D+03

 The electronic state is 1-A.
 Alpha  occ. eigenvalues --  -20.61032 -20.61015 -15.86014 -11.31332 -11.27884
 Alpha  occ. eigenvalues --  -11.27881 -11.27619 -11.26889 -11.26879 -11.21286
 Alpha  occ. eigenvalues --  -11.20936 -11.20881 -11.20642 -11.20453 -11.19697
 Alpha  occ. eigenvalues --   -1.60066  -1.39622  -1.19493  -1.08901  -1.07803
 Alpha  occ. eigenvalues --   -1.04884  -1.02799  -0.95751  -0.95259  -0.86295
 Alpha  occ. eigenvalues --   -0.86280  -0.82582  -0.78921  -0.77698  -0.77484
 Alpha  occ. eigenvalues --   -0.72238  -0.71388  -0.70599  -0.65148  -0.64887
 Alpha  occ. eigenvalues --   -0.64454  -0.62230  -0.60221  -0.58672  -0.56812
 Alpha  occ. eigenvalues --   -0.55388  -0.54598  -0.53218  -0.52974  -0.51911
 Alpha  occ. eigenvalues --   -0.51696  -0.49275  -0.49022  -0.48975  -0.47192
 Alpha  occ. eigenvalues --   -0.46032  -0.45372  -0.45043  -0.44631  -0.43029
 Alpha  occ. eigenvalues --   -0.37467  -0.36483
 Alpha virt. eigenvalues --    0.04841   0.11125   0.16323   0.21241   0.23346
 Alpha virt. eigenvalues --    0.24991   0.26696   0.27386   0.27729   0.28585
 Alpha virt. eigenvalues --    0.28787   0.30701   0.31681   0.32172   0.32898

 Mulliken charges:
               1
     1  C   -0.296285
     2  C   -0.298830
     3  C   -0.475021
     4  H    0.149903
     5  H    0.143731
     6  H    0.152316
     7  H    0.150446
     8  H    0.152209
     9  H    0.155143
    10  H    0.159095
    11  C   -0.298684
    12  C   -0.291618
    13  C   -0.486506
    14  H    0.147995
    15  H    0.145502
    16  H    0.155447
    17  H    0.145851
    18  H    0.146188
    19  H    0.149715
    20  H    0.185093
    21  C   -0.170473
    22  C   -0.218679
    23  C   -0.171882
    24  C    0.159577
    25  C   -0.170710
    26  C   -0.218576
    27  H    0.226172
    28  H    0.224125
    29  H    0.276900
    30  H    0.276041
    31  H    0.224002
    32  N    0.488307
    33  O   -0.459539
    34  O   -0.456955
 Sum of Mulliken charges =  -0.00000

 Dipole moment (field-independent basis, Debye):
    X=              2.1267    Y=              4.6102    Z=             -1.1804  Tot=              5.2125
 Quadrupole moment (field-independent basis, Debye-Ang):
   XX=            -84.1677   YY=            -94.8270   ZZ=            -93.7617
   XY=             11.9289   XZ=             -5.9332   YZ=              1.6079

 Normal termination of Gaussian 16 at Wed May  5 20:11:45 2021.
