 Gaussian 16, Revision A.03,
 Gaussian 16:  EM64L-G16RevA.03 25-Dec-2016

 -------------
 #p 6-31g* mp2
 -------------

 ------------------------------------------------------
 Input file generated by CHIRIPA (05-May-2021 14:51:07)
 ------------------------------------------------------
 Symbolic Z-matrix:
 Charge =  0 Multiplicity = 1

                         Standard orientation:
 ---------------------------------------------------------------------
 Center     Atomic      Atomic             Coordinates (Angstroms)
 Number     Number       Type             X           Y           Z
 ---------------------------------------------------------------------
      1          6           0        2.907912   -1.268807   -0.059271
      2          6           0        1.410831   -0.972087   -0.152482
      3          6           0        0.559775   -2.240586   -0.218874
      4          1           0        3.210776   -1.870247   -0.927308
      5          1           0        3.097674   -1.885738    0.829988
      6          1           0        1.224133   -0.354741   -1.040539
      7          1           0        1.111534   -0.371121    0.715779
      8          1           0        0.716705   -2.856859    0.672295
      9          1           0        0.829943   -2.840386   -1.094002
     10          1           0       -0.507047   -2.005280   -0.285074
     11          6           0        3.771838   -0.010691    0.007849
     12          6           0        5.268920   -0.307411    0.101061
     13          6           0        6.119976    0.961088    0.167452
     14          1           0        3.582077    0.606240   -0.881410
     15          1           0        3.468975    0.590749    0.875886
     16          1           0        5.568217   -0.908377   -0.767201
     17          1           0        5.455618   -0.924756    0.989118
     18          1           0        5.849808    1.560889    1.042581
     19          1           0        5.963046    1.577361   -0.723717
     20          1           0        7.186798    0.725782    0.233652
     21          6           0       -3.656210   -0.036888    0.185484
     22          6           0       -5.156782   -0.088144   -0.103720
     23          6           0       -5.775272   -1.448232    0.220977
     24          1           0       -3.150218   -0.819626   -0.396101
     25          1           0       -3.485650   -0.274847    1.244577
     26          1           0       -5.324568    0.151196   -1.161633
     27          1           0       -5.659236    0.694931    0.478474
     28          1           0       -5.637185   -1.691406    1.279466
     29          1           0       -5.300615   -2.238230   -0.369959
     30          1           0       -6.848476   -1.462658    0.006769
     31          6           0       -3.023541    1.316386   -0.134062
     32          6           0       -1.522968    1.367642    0.155142
     33          6           0       -0.904479    2.727730   -0.169556
     34          1           0       -3.194101    1.554344   -1.193156
     35          1           0       -3.529532    2.099124    0.447522
     36          1           0       -1.020515    0.584567   -0.427052
     37          1           0       -1.355183    1.128301    1.213055
     38          1           0       -1.379136    3.517727    0.421381
     39          1           0       -1.042566    2.970903   -1.228044
     40          1           0        0.168726    2.742156    0.044653
 ---------------------------------------------------------------------

 SCF Done:  E(RHF) =  -470.732563511     A.U. after   11 cycles
 E2 =    -0.1583989242D+01 EUMP2 =    -0.47231655275288D+03

 The electronic state is 1-A.
 Alpha  occ. eigenvalues --  -11.21604 -11.21599 -11.21567 -11.21484 -11.21401
 Alpha  occ. eigenvalues --  -11.21396 -11.21339 -11.21319 -11.21072 -11.21065
 Alpha  occ. eigenvalues --  -11.21062 -11.21021  -1.08458  -1.08380  -1.03587
 Alpha  occ. eigenvalues --   -1.03444  -0.95989  -0.95947  -0.86994  -0.86968
 Alpha  occ. eigenvalues --   -0.79767  -0.79432  -0.78374  -0.78079  -0.65094
 Alpha  occ. eigenvalues --   -0.65018  -0.60992  -0.60862  -0.59533  -0.59156
 Alpha  occ. eigenvalues --   -0.57684  -0.57464  -0.55271  -0.55237  -0.52731
 Alpha  occ. eigenvalues --   -0.52598  -0.52422  -0.52352  -0.49928  -0.49889
 Alpha  occ. eigenvalues --   -0.48090  -0.47717  -0.46720  -0.46518  -0.45931
 Alpha  occ. eigenvalues --   -0.45782  -0.45611  -0.45479  -0.43779  -0.43749
 Alpha virt. eigenvalues --    0.21222   0.22961   0.23724   0.24090   0.25658
 Alpha virt. eigenvalues --    0.26256   0.26710   0.27095   0.28632   0.29106
 Alpha virt. eigenvalues --    0.30614   0.31223   0.31598   0.31815   0.32510

 Mulliken charges:
               1
     1  C   -0.297628
     2  C   -0.303210
     3  C   -0.480927
     4  H    0.149383
     5  H    0.149410
     6  H    0.151307
     7  H    0.156801
     8  H    0.155626
     9  H    0.154889
    10  H    0.163929
    11  C   -0.298415
    12  C   -0.299604
    13  C   -0.475719
    14  H    0.149489
    15  H    0.149313
    16  H    0.151982
    17  H    0.151955
    18  H    0.155155
    19  H    0.155215
    20  H    0.160274
    21  C   -0.300760
    22  C   -0.299541
    23  C   -0.475739
    24  H    0.150968
    25  H    0.149592
    26  H    0.151923
    27  H    0.152139
    28  H    0.155209
    29  H    0.155236
    30  H    0.160251
    31  C   -0.297712
    32  C   -0.307078
    33  C   -0.476498
    34  H    0.148996
    35  H    0.149259
    36  H    0.163860
    37  H    0.150261
    38  H    0.154823
    39  H    0.154495
    40  H    0.161095
 Sum of Mulliken charges =  -0.00000

 Dipole moment (field-independent basis, Debye):
    X=              0.0124    Y=             -0.0087    Z=              0.0043  Tot=              0.0157
 Quadrupole moment (field-independent basis, Debye-Ang):
   XX=            -85.7814   YY=            -86.3259   ZZ=            -82.8375
   XY=             -1.1726   XZ=             -0.1741   YZ=              0.4073

 Normal termination of Gaussian 16 at Thu May  6 02:03:34 2021.
