 Gaussian 16, Revision A.03,
 Gaussian 16:  EM64L-G16RevA.03 25-Dec-2016

 -------------
 #p 6-31g* mp2
 -------------

 ------------------------------------------------------
 Input file generated by CHIRIPA (05-May-2021 14:53:14)
 ------------------------------------------------------
 Symbolic Z-matrix:
 Charge =  0 Multiplicity = 1

                         Standard orientation:
 ---------------------------------------------------------------------
 Center     Atomic      Atomic             Coordinates (Angstroms)
 Number     Number       Type             X           Y           Z
 ---------------------------------------------------------------------
      1          6           0        5.384943    0.184020   -0.172672
      2          6           0        5.793131   -1.117973    0.517387
      3          6           0        7.183476   -1.597755    0.099602
      4          1           0        5.412522    0.038858   -1.261301
      5          1           0        6.126677    0.961229    0.057918
      6          1           0        5.050108   -1.892127    0.286693
      7          1           0        5.764391   -0.969751    1.604502
      8          1           0        7.940359   -0.845737    0.344955
      9          1           0        7.222018   -1.773354   -0.980343
     10          1           0        7.455118   -2.529880    0.604789
     11          6           0        3.997401    0.676414    0.234765
     12          6           0        3.589213    1.978408   -0.455293
     13          6           0        2.198868    2.458189   -0.037509
     14          1           0        3.255667   -0.100794    0.004176
     15          1           0        3.969822    0.821576    1.323394
     16          1           0        3.617953    1.830185   -1.542409
     17          1           0        4.332236    2.752561   -0.224599
     18          1           0        2.160326    2.633788    1.042436
     19          1           0        1.441985    1.706172   -0.282861
     20          1           0        1.927226    3.390314   -0.542695
     21          6           0       -1.484312   -1.567471   -0.331436
     22          6           0       -1.492374   -0.172287   -0.231841
     23          6           0       -2.694734    0.520433   -0.061494
     24          6           0       -3.875797   -0.217063    0.005442
     25          6           0       -3.900441   -1.607557   -0.090521
     26          6           0       -2.686252   -2.279398   -0.260583
     27          1           0       -0.545695   -2.097482   -0.463655
     28          1           0       -0.560454    0.383212   -0.286528
     29          1           0       -2.729811    1.600150    0.018491
     30          1           0       -4.845468   -2.133838   -0.032444
     31          1           0       -2.683012   -3.362956   -0.337627
     32          7           0       -5.154944    0.505236    0.185629
     33          8           0       -6.181917   -0.167690    0.241592
     34          8           0       -5.106344    1.730623    0.267486
 ---------------------------------------------------------------------

 SCF Done:  E(RHF) =  -669.535474657     A.U. after   15 cycles
 E2 =    -0.2090830033D+01 EUMP2 =    -0.67162630468937D+03

 The electronic state is 1-A.
 Alpha  occ. eigenvalues --  -20.60727 -20.60722 -15.85780 -11.31143 -11.27715
 Alpha  occ. eigenvalues --  -11.27702 -11.27461 -11.26735 -11.26705 -11.22412
 Alpha  occ. eigenvalues --  -11.22200 -11.22185 -11.22092 -11.22018 -11.21567
 Alpha  occ. eigenvalues --   -1.59803  -1.39356  -1.19317  -1.09156  -1.08714
 Alpha  occ. eigenvalues --   -1.04720  -1.04255  -0.96717  -0.95549  -0.87736
 Alpha  occ. eigenvalues --   -0.86121  -0.82381  -0.80321  -0.78957  -0.77427
 Alpha  occ. eigenvalues --   -0.71999  -0.71125  -0.70429  -0.65796  -0.64969
 Alpha  occ. eigenvalues --   -0.64744  -0.62116  -0.61618  -0.60077  -0.58314
 Alpha  occ. eigenvalues --   -0.56034  -0.55222  -0.53398  -0.53210  -0.53050
 Alpha  occ. eigenvalues --   -0.52754  -0.50650  -0.48772  -0.48753  -0.48616
 Alpha  occ. eigenvalues --   -0.47348  -0.46501  -0.46417  -0.44762  -0.44501
 Alpha  occ. eigenvalues --   -0.37302  -0.36321
 Alpha virt. eigenvalues --    0.05108   0.11331   0.16600   0.19483   0.22448
 Alpha virt. eigenvalues --    0.23632   0.25068   0.26240   0.26885   0.28346
 Alpha virt. eigenvalues --    0.28585   0.29920   0.31043   0.31365   0.31968

 Mulliken charges:
               1
     1  C   -0.298867
     2  C   -0.299668
     3  C   -0.476071
     4  H    0.150313
     5  H    0.151969
     6  H    0.149609
     7  H    0.153125
     8  H    0.156671
     9  H    0.155622
    10  H    0.161426
    11  C   -0.297123
    12  C   -0.299907
    13  C   -0.481271
    14  H    0.142203
    15  H    0.151854
    16  H    0.153394
    17  H    0.156284
    18  H    0.159621
    19  H    0.146174
    20  H    0.165634
    21  C   -0.173695
    22  C   -0.226867
    23  C   -0.174266
    24  C    0.158874
    25  C   -0.171247
    26  C   -0.218501
    27  H    0.225609
    28  H    0.237004
    29  H    0.276437
    30  H    0.275433
    31  H    0.223187
    32  N    0.488090
    33  O   -0.460713
    34  O   -0.460337
 Sum of Mulliken charges =  -0.00000

 Dipole moment (field-independent basis, Debye):
    X=              4.7324    Y=             -2.4676    Z=             -0.6143  Tot=              5.3724
 Quadrupole moment (field-independent basis, Debye-Ang):
   XX=           -128.8861   YY=            -89.6157   ZZ=            -95.1087
   XY=             12.3739   XZ=              3.0972   YZ=              0.5367

 Normal termination of Gaussian 16 at Thu May  6 20:21:23 2021.
