 Gaussian 16, Revision A.03,
 Gaussian 16:  EM64L-G16RevA.03 25-Dec-2016

 -------------
 #p 6-31g* mp2
 -------------

 ------------------------------------------------------
 Input file generated by CHIRIPA (05-May-2021 14:53:15)
 ------------------------------------------------------
 Symbolic Z-matrix:
 Charge =  0 Multiplicity = 1

                         Standard orientation:
 ---------------------------------------------------------------------
 Center     Atomic      Atomic             Coordinates (Angstroms)
 Number     Number       Type             X           Y           Z
 ---------------------------------------------------------------------
      1          6           0        3.142316    0.778370   -0.014627
      2          6           0        3.591678    2.033903   -0.762756
      3          6           0        2.825392    3.284865   -0.331835
      4          1           0        2.066844    0.626253   -0.179446
      5          1           0        3.273836    0.936394    1.064782
      6          1           0        3.460646    1.873042   -1.840518
      7          1           0        4.666245    2.182942   -0.596294
      8          1           0        2.965334    3.473066    0.737556
      9          1           0        1.752885    3.161406   -0.513737
     10          1           0        3.162573    4.170638   -0.879169
     11          6           0        3.899171   -0.480458   -0.434450
     12          6           0        3.449808   -1.735991    0.313678
     13          6           0        4.216095   -2.986952   -0.117243
     14          1           0        3.767650   -0.638482   -1.513860
     15          1           0        4.974643   -0.328340   -0.269632
     16          1           0        2.375242   -1.885029    0.147216
     17          1           0        3.580841   -1.575130    1.391440
     18          1           0        5.288602   -2.863494    0.064659
     19          1           0        4.076152   -3.175154   -1.186634
     20          1           0        3.878914   -3.872726    0.430091
     21          6           0       -0.430320   -0.033791    1.163092
     22          6           0       -1.268653    1.082449    1.250991
     23          6           0       -2.556203    1.047980    0.707323
     24          6           0       -2.974895   -0.124356    0.079937
     25          6           0       -2.163143   -1.252899   -0.023684
     26          6           0       -0.879449   -1.195854    0.527157
     27          1           0        0.568383    0.001754    1.588212
     28          1           0       -0.922515    1.986267    1.744293
     29          1           0       -3.225946    1.897662    0.761215
     30          1           0       -2.536243   -2.139696   -0.521485
     31          1           0       -0.230561   -2.064259    0.457409
     32          7           0       -4.335925   -0.172796   -0.499416
     33          8           0       -4.681109   -1.217593   -1.047034
     34          8           0       -5.031746    0.834950   -0.394926
 ---------------------------------------------------------------------

 SCF Done:  E(RHF) =  -669.535048691     A.U. after   15 cycles
 E2 =    -0.2093111108D+01 EUMP2 =    -0.67162815979917D+03

 The electronic state is 1-A.
 Alpha  occ. eigenvalues --  -20.60749 -20.60744 -15.85803 -11.31165 -11.27745
 Alpha  occ. eigenvalues --  -11.27741 -11.27398 -11.26734 -11.26723 -11.22757
 Alpha  occ. eigenvalues --  -11.22411 -11.22358 -11.22301 -11.21960 -11.21841
 Alpha  occ. eigenvalues --   -1.59825  -1.39379  -1.19342  -1.09408  -1.08725
 Alpha  occ. eigenvalues --   -1.04744  -1.04446  -0.96877  -0.95565  -0.87893
 Alpha  occ. eigenvalues --   -0.86137  -0.82405  -0.80535  -0.79281  -0.77447
 Alpha  occ. eigenvalues --   -0.72020  -0.71149  -0.70433  -0.66035  -0.64984
 Alpha  occ. eigenvalues --   -0.64730  -0.62129  -0.61800  -0.60248  -0.58524
 Alpha  occ. eigenvalues --   -0.56171  -0.55228  -0.53554  -0.53305  -0.53059
 Alpha  occ. eigenvalues --   -0.52834  -0.50807  -0.48865  -0.48776  -0.48756
 Alpha  occ. eigenvalues --   -0.47562  -0.46734  -0.46681  -0.44786  -0.44703
 Alpha  occ. eigenvalues --   -0.37254  -0.36355
 Alpha virt. eigenvalues --    0.05052   0.11206   0.16462   0.19831   0.22562
 Alpha virt. eigenvalues --    0.22973   0.24793   0.25640   0.26909   0.27430
 Alpha virt. eigenvalues --    0.29723   0.30327   0.30861   0.31094   0.31466

 Mulliken charges:
               1
     1  C   -0.309101
     2  C   -0.298963
     3  C   -0.478039
     4  H    0.154183
     5  H    0.144341
     6  H    0.155806
     7  H    0.154292
     8  H    0.152748
     9  H    0.155390
    10  H    0.164610
    11  C   -0.296883
    12  C   -0.305632
    13  C   -0.476021
    14  H    0.153636
    15  H    0.153338
    16  H    0.145339
    17  H    0.151137
    18  H    0.159046
    19  H    0.158273
    20  H    0.161122
    21  C   -0.172413
    22  C   -0.222048
    23  C   -0.170698
    24  C    0.158415
    25  C   -0.170612
    26  C   -0.224509
    27  H    0.234177
    28  H    0.224402
    29  H    0.275594
    30  H    0.275588
    31  H    0.226481
    32  N    0.488037
    33  O   -0.460554
    34  O   -0.460482
 Sum of Mulliken charges =  -0.00000

 Dipole moment (field-independent basis, Debye):
    X=              4.9866    Y=              0.1909    Z=              1.9462  Tot=              5.3563
 Quadrupole moment (field-independent basis, Debye-Ang):
   XX=           -122.8448   YY=            -91.1199   ZZ=            -94.1957
   XY=             -1.5032   XZ=             -5.7817   YZ=              1.2740

 Normal termination of Gaussian 16 at Thu May  6 20:24:36 2021.
