 Gaussian 16, Revision A.03,
 Gaussian 16:  EM64L-G16RevA.03 25-Dec-2016

 -------------
 #p 6-31g* mp2
 -------------

 ------------------------------------------------------
 Input file generated by CHIRIPA (05-May-2021 14:57:25)
 ------------------------------------------------------
 Symbolic Z-matrix:
 Charge =  0 Multiplicity = 1

                         Standard orientation:
 ---------------------------------------------------------------------
 Center     Atomic      Atomic             Coordinates (Angstroms)
 Number     Number       Type             X           Y           Z
 ---------------------------------------------------------------------
      1          6           0       -4.910096   -1.987209    0.598932
      2          6           0       -3.826145   -2.045517   -0.283209
      3          6           0       -3.083123   -0.896996   -0.571938
      4          6           0       -3.453496    0.298493    0.042000
      5          6           0       -4.528218    0.388716    0.925246
      6          6           0       -5.257061   -0.772420    1.199285
      7          1           0       -5.481786   -2.884308    0.817518
      8          1           0       -3.554405   -2.987566   -0.750911
      9          1           0       -2.239336   -0.913785   -1.251026
     10          1           0       -4.775046    1.342256    1.376086
     11          1           0       -6.098386   -0.724166    1.884769
     12          7           0       -2.674397    1.521058   -0.255889
     13          8           0       -3.021006    2.562079    0.297984
     14          8           0       -1.731882    1.415135   -1.037607
     15          6           0        5.724214   -0.365230    1.214458
     16          6           0        5.041564    0.855499    1.232636
     17          6           0        3.853665    1.015481    0.513017
     18          6           0        3.374790   -0.071068   -0.217311
     19          6           0        4.031994   -1.299860   -0.255300
     20          6           0        5.218144   -1.437123    0.471857
     21          1           0        6.646323   -0.480682    1.776403
     22          1           0        5.432243    1.689666    1.808467
     23          1           0        3.304940    1.949455    0.509551
     24          1           0        3.617854   -2.113278   -0.838616
     25          1           0        5.746177   -2.386318    0.455902
     26          7           0        2.118141    0.086272   -0.983130
     27          8           0        1.717099   -0.886278   -1.618699
     28          8           0        1.558017    1.179165   -0.933308
 ---------------------------------------------------------------------

 SCF Done:  E(RHF) =  -868.335916635     A.U. after   16 cycles
 E2 =    -0.2600183621D+01 EUMP2 =    -0.87093610025620D+03

 The electronic state is 1-A.
 Alpha  occ. eigenvalues --  -20.60190 -20.60063 -20.59603 -20.59446 -15.85178
 Alpha  occ. eigenvalues --  -15.84566 -11.30777 -11.30240 -11.27404 -11.27336
 Alpha  occ. eigenvalues --  -11.27165 -11.26907 -11.26760 -11.26702 -11.26460
 Alpha  occ. eigenvalues --  -11.26418 -11.25989 -11.25916  -1.59198  -1.58610
 Alpha  occ. eigenvalues --   -1.38746  -1.38144  -1.18973  -1.18459  -1.08326
 Alpha  occ. eigenvalues --   -1.07810  -1.04409  -1.03898  -0.95120  -0.94579
 Alpha  occ. eigenvalues --   -0.85796  -0.85285  -0.81949  -0.81396  -0.76960
 Alpha  occ. eigenvalues --   -0.76387  -0.71408  -0.70753  -0.70530  -0.70080
 Alpha  occ. eigenvalues --   -0.69947  -0.69564  -0.64619  -0.64414  -0.64097
 Alpha  occ. eigenvalues --   -0.63909  -0.61751  -0.61223  -0.54906  -0.54419
 Alpha  occ. eigenvalues --   -0.52730  -0.52503  -0.52231  -0.51989  -0.48185
 Alpha  occ. eigenvalues --   -0.48123  -0.47558  -0.47520  -0.44138  -0.43424
 Alpha  occ. eigenvalues --   -0.36972  -0.36482  -0.36024  -0.35521
 Alpha virt. eigenvalues --    0.05558   0.06152   0.11625   0.12125   0.17011
 Alpha virt. eigenvalues --    0.17567   0.21737   0.22226   0.27633   0.28123
 Alpha virt. eigenvalues --    0.28655   0.29192   0.31267   0.31743   0.32919

 Mulliken charges:
               1
     1  C   -0.172128
     2  C   -0.219755
     3  C   -0.173479
     4  C    0.157273
     5  C   -0.172236
     6  C   -0.219203
     7  H    0.221872
     8  H    0.222106
     9  H    0.287713
    10  H    0.273142
    11  H    0.219701
    12  N    0.485612
    13  O   -0.469658
    14  O   -0.441639
    15  C   -0.171626
    16  C   -0.218675
    17  C   -0.171361
    18  C    0.158450
    19  C   -0.171961
    20  C   -0.218613
    21  H    0.224025
    22  H    0.223079
    23  H    0.279122
    24  H    0.273084
    25  H    0.221310
    26  N    0.486260
    27  O   -0.469848
    28  O   -0.442567
 Sum of Mulliken charges =  -0.00000

 Dipole moment (field-independent basis, Debye):
    X=              1.8781    Y=             -4.6468    Z=              3.5545  Tot=              6.1445
 Quadrupole moment (field-independent basis, Debye-Ang):
   XX=            -57.7800   YY=           -102.3184   ZZ=           -104.8857
   XY=             10.2242   XZ=              2.7791   YZ=              3.4454

 Normal termination of Gaussian 16 at Thu May  6 06:42:23 2021.
