 Gaussian 16, Revision A.03,
 Gaussian 16:  EM64L-G16RevA.03 25-Dec-2016

 -------------
 #p 6-31g* mp2
 -------------

 ------------------------------------------------------
 Input file generated by CHIRIPA (05-May-2021 14:57:27)
 ------------------------------------------------------
 Symbolic Z-matrix:
 Charge =  0 Multiplicity = 1

                         Standard orientation:
 ---------------------------------------------------------------------
 Center     Atomic      Atomic             Coordinates (Angstroms)
 Number     Number       Type             X           Y           Z
 ---------------------------------------------------------------------
      1          6           0       -2.709985    2.663016   -0.283447
      2          6           0       -1.801315    1.658078    0.064314
      3          6           0       -2.226189    0.333281    0.201947
      4          6           0       -3.573024    0.047637   -0.016532
      5          6           0       -4.502531    1.026676   -0.364079
      6          6           0       -4.055322    2.344669   -0.496158
      7          1           0       -2.371258    3.689508   -0.388206
      8          1           0       -0.755913    1.902394    0.230115
      9          1           0       -1.544059   -0.464303    0.470233
     10          1           0       -5.538360    0.752398   -0.522975
     11          1           0       -4.763243    3.123064   -0.766333
     12          7           0       -4.034642   -1.351265    0.126235
     13          8           0       -5.226507   -1.576973   -0.071634
     14          8           0       -3.195853   -2.195528    0.433300
     15          6           0        1.443269   -1.739709    0.151032
     16          6           0        1.546000   -0.613157    0.973739
     17          6           0        2.679283    0.203793    0.920708
     18          6           0        3.695486   -0.136899    0.029333
     19          6           0        3.622615   -1.252640   -0.803194
     20          6           0        2.480077   -2.055300   -0.733249
     21          1           0        0.559314   -2.368785    0.198797
     22          1           0        0.742355   -0.365636    1.661440
     23          1           0        2.784828    1.081820    1.546287
     24          1           0        4.440096   -1.473786   -1.478648
     25          1           0        2.403022   -2.929579   -1.373361
     26          7           0        4.900140    0.720405   -0.035761
     27          8           0        5.781598    0.398647   -0.829575
     28          8           0        4.940080    1.697885    0.708265
 ---------------------------------------------------------------------

 SCF Done:  E(RHF) =  -868.338205930     A.U. after   16 cycles
 E2 =    -0.2600535046D+01 EUMP2 =    -0.87093874097585D+03

 The electronic state is 1-A.
 Alpha  occ. eigenvalues --  -20.61551 -20.61509 -20.61169 -20.61155 -15.86579
 Alpha  occ. eigenvalues --  -15.86223 -11.31857 -11.31642 -11.28480 -11.28357
 Alpha  occ. eigenvalues --  -11.28307 -11.28192 -11.28066 -11.27900 -11.27394
 Alpha  occ. eigenvalues --  -11.27344 -11.27324 -11.27137  -1.60598  -1.60240
 Alpha  occ. eigenvalues --   -1.40160  -1.39792  -1.20005  -1.19828  -1.09400
 Alpha  occ. eigenvalues --   -1.09195  -1.05417  -1.05238  -0.96265  -0.96014
 Alpha  occ. eigenvalues --   -0.86811  -0.86631  -0.83110  -0.82849  -0.78211
 Alpha  occ. eigenvalues --   -0.77888  -0.72804  -0.72438  -0.71914  -0.71567
 Alpha  occ. eigenvalues --   -0.71152  -0.70833  -0.65679  -0.65535  -0.65384
 Alpha  occ. eigenvalues --   -0.65215  -0.62895  -0.62439  -0.55868  -0.55655
 Alpha  occ. eigenvalues --   -0.53726  -0.53551  -0.53497  -0.53310  -0.49572
 Alpha  occ. eigenvalues --   -0.49532  -0.49199  -0.49189  -0.45584  -0.45187
 Alpha  occ. eigenvalues --   -0.37949  -0.37781  -0.36998  -0.36861
 Alpha virt. eigenvalues --    0.04339   0.04629   0.10622   0.10674   0.15855
 Alpha virt. eigenvalues --    0.16030   0.19037   0.22095   0.25328   0.26182
 Alpha virt. eigenvalues --    0.27767   0.29372   0.30307   0.31231   0.31432

 Mulliken charges:
               1
     1  C   -0.170030
     2  C   -0.220149
     3  C   -0.175072
     4  C    0.159979
     5  C   -0.169837
     6  C   -0.218157
     7  H    0.229336
     8  H    0.224321
     9  H    0.267957
    10  H    0.277243
    11  H    0.226266
    12  N    0.488810
    13  O   -0.456035
    14  O   -0.467947
    15  C   -0.175473
    16  C   -0.228353
    17  C   -0.173435
    18  C    0.158486
    19  C   -0.169455
    20  C   -0.218711
    21  H    0.240072
    22  H    0.221024
    23  H    0.274608
    24  H    0.277666
    25  H    0.228351
    26  N    0.488107
    27  O   -0.458422
    28  O   -0.461149
 Sum of Mulliken charges =  -0.00000

 Dipole moment (field-independent basis, Debye):
    X=             -2.6421    Y=              1.8981    Z=             -0.4354  Tot=              3.2822
 Quadrupole moment (field-independent basis, Debye-Ang):
   XX=           -142.1636   YY=           -101.6515   ZZ=           -103.3110
   XY=            -31.8831   XZ=              2.1766   YZ=              1.8614

 Normal termination of Gaussian 16 at Thu May  6 09:58:06 2021.
