 Gaussian 16, Revision A.03,
 Gaussian 16:  EM64L-G16RevA.03 25-Dec-2016

 -------------
 #p 6-31g* mp2
 -------------

 ------------------------------------------------------
 Input file generated by CHIRIPA (05-May-2021 14:53:11)
 ------------------------------------------------------
 Symbolic Z-matrix:
 Charge =  0 Multiplicity = 1

                         Standard orientation:
 ---------------------------------------------------------------------
 Center     Atomic      Atomic             Coordinates (Angstroms)
 Number     Number       Type             X           Y           Z
 ---------------------------------------------------------------------
      1          6           0        3.550424   -0.614775   -0.647788
      2          6           0        2.218565    0.125996   -0.523709
      3          6           0        1.083564   -0.568258   -1.277088
      4          1           0        3.814959   -0.704960   -1.710254
      5          1           0        3.429321   -1.638669   -0.267827
      6          1           0        2.342505    1.148621   -0.902512
      7          1           0        1.957264    0.214597    0.538594
      8          1           0        0.931090   -1.582627   -0.894455
      9          1           0        1.318520   -0.643296   -2.343749
     10          1           0        0.140755   -0.021865   -1.174989
     11          6           0        4.694814    0.067032    0.100034
     12          6           0        6.026674   -0.673738   -0.024046
     13          6           0        7.161674    0.020516    0.729333
     14          1           0        4.815917    1.090926   -0.279927
     15          1           0        4.430279    0.157217    1.162499
     16          1           0        6.287974   -0.762339   -1.086349
     17          1           0        5.902733   -1.696364    0.354757
     18          1           0        6.926718    0.095553    1.795995
     19          1           0        7.314148    1.034885    0.346700
     20          1           0        8.104483   -0.525877    0.627234
     21          6           0       -4.977706   -1.583613   -0.004928
     22          6           0       -4.901072   -0.560253   -0.955392
     23          6           0       -3.931665    0.440955   -0.844126
     24          6           0       -3.050945    0.387745    0.235128
     25          6           0       -3.101921   -0.618728    1.198302
     26          6           0       -4.079470   -1.609540    1.066995
     27          1           0       -5.733927   -2.357338   -0.099147
     28          1           0       -5.597339   -0.537586   -1.788904
     29          1           0       -3.849947    1.244789   -1.565646
     30          1           0       -2.393995   -0.614640    2.018206
     31          1           0       -4.136638   -2.403080    1.806637
     32          7           0       -2.020368    1.442176    0.363529
     33          8           0       -1.256147    1.372769    1.323627
     34          8           0       -1.996335    2.318079   -0.498359
 ---------------------------------------------------------------------

 SCF Done:  E(RHF) =  -669.535840546     A.U. after   15 cycles
 E2 =    -0.2091354556D+01 EUMP2 =    -0.67162719510180D+03

 The electronic state is 1-A.
 Alpha  occ. eigenvalues --  -20.60865 -20.60859 -15.85898 -11.31232 -11.27799
 Alpha  occ. eigenvalues --  -11.27796 -11.27539 -11.26808 -11.26798 -11.21146
 Alpha  occ. eigenvalues --  -11.20805 -11.20737 -11.20669 -11.20666 -11.20432
 Alpha  occ. eigenvalues --   -1.59937  -1.39488  -1.19403  -1.08808  -1.07807
 Alpha  occ. eigenvalues --   -1.04800  -1.02909  -0.95648  -0.95401  -0.86428
 Alpha  occ. eigenvalues --   -0.86201  -0.82479  -0.78971  -0.77591  -0.77531
 Alpha  occ. eigenvalues --   -0.72120  -0.71282  -0.70513  -0.65058  -0.64805
 Alpha  occ. eigenvalues --   -0.64441  -0.62149  -0.60308  -0.58757  -0.56978
 Alpha  occ. eigenvalues --   -0.55306  -0.54705  -0.53130  -0.52894  -0.52106
 Alpha  occ. eigenvalues --   -0.51821  -0.49358  -0.48881  -0.48875  -0.47292
 Alpha  occ. eigenvalues --   -0.46000  -0.45154  -0.45072  -0.44860  -0.43181
 Alpha  occ. eigenvalues --   -0.37381  -0.36399
 Alpha virt. eigenvalues --    0.04987   0.11252   0.16461   0.21376   0.23433
 Alpha virt. eigenvalues --    0.24744   0.27255   0.27309   0.27989   0.28272
 Alpha virt. eigenvalues --    0.28470   0.30794   0.31871   0.32016   0.32404

 Mulliken charges:
               1
     1  C   -0.298573
     2  C   -0.299066
     3  C   -0.474860
     4  H    0.147034
     5  H    0.145783
     6  H    0.156755
     7  H    0.161142
     8  H    0.148968
     9  H    0.152210
    10  H    0.159866
    11  C   -0.297988
    12  C   -0.299083
    13  C   -0.475390
    14  H    0.150702
    15  H    0.150665
    16  H    0.150796
    17  H    0.150155
    18  H    0.155085
    19  H    0.155447
    20  H    0.158416
    21  C   -0.170497
    22  C   -0.218509
    23  C   -0.170930
    24  C    0.156371
    25  C   -0.170323
    26  C   -0.218603
    27  H    0.225785
    28  H    0.223650
    29  H    0.275877
    30  H    0.275590
    31  H    0.223545
    32  N    0.488803
    33  O   -0.459217
    34  O   -0.459603
 Sum of Mulliken charges =  -0.00000

 Dipole moment (field-independent basis, Debye):
    X=             -3.7636    Y=             -3.6118    Z=             -0.3906  Tot=              5.2309
 Quadrupole moment (field-independent basis, Debye-Ang):
   XX=            -73.9060   YY=            -97.2445   ZZ=            -91.3631
   XY=              9.4617   XZ=              1.7050   YZ=             -3.9424

 Normal termination of Gaussian 16 at Thu May  6 05:39:39 2021.
