 Gaussian 16, Revision A.03,
 Gaussian 16:  EM64L-G16RevA.03 25-Dec-2016

 -------------
 #p 6-31g* mp2
 -------------

 ------------------------------------------------------
 Input file generated by CHIRIPA (05-May-2021 14:57:22)
 ------------------------------------------------------
 Symbolic Z-matrix:
 Charge =  0 Multiplicity = 1

                         Standard orientation:
 ---------------------------------------------------------------------
 Center     Atomic      Atomic             Coordinates (Angstroms)
 Number     Number       Type             X           Y           Z
 ---------------------------------------------------------------------
      1          6           0        3.895318    2.559603   -0.115622
      2          6           0        2.694827    2.016870    0.354253
      3          6           0        2.497187    0.632895    0.364338
      4          6           0        3.525850   -0.182598   -0.104823
      5          6           0        4.733172    0.327916   -0.579207
      6          6           0        4.908872    1.714883   -0.580034
      7          1           0        4.040328    3.635869   -0.119861
      8          1           0        1.905946    2.670474    0.715518
      9          1           0        1.577727    0.186061    0.722599
     10          1           0        5.501212   -0.349086   -0.933042
     11          1           0        5.842229    2.133581   -0.945522
     12          7           0        3.328231   -1.649334   -0.099047
     13          8           0        4.249981   -2.346292   -0.517692
     14          8           0        2.255329   -2.074230    0.324015
     15          6           0       -5.341724    0.404579   -1.617802
     16          6           0       -4.194022   -0.311625   -1.973262
     17          6           0       -3.199449   -0.574385   -1.026514
     18          6           0       -3.386017   -0.103968    0.272404
     19          6           0       -4.518279    0.612360    0.657302
     20          6           0       -5.499911    0.863476   -0.305967
     21          1           0       -6.109306    0.604175   -2.359675
     22          1           0       -4.068493   -0.669233   -2.991301
     23          1           0       -2.301034   -1.126414   -1.274572
     24          1           0       -4.615186    0.955971    1.680024
     25          1           0       -6.390194    1.419946   -0.027068
     26          7           0       -2.339958   -0.375977    1.283429
     27          8           0       -2.528154    0.049328    2.421118
     28          8           0       -1.351667   -1.009331    0.919038
 ---------------------------------------------------------------------

 SCF Done:  E(RHF) =  -868.338148844     A.U. after   16 cycles
 E2 =    -0.2599266941D+01 EUMP2 =    -0.87093741578463D+03

 The electronic state is 1-A.
 Alpha  occ. eigenvalues --  -20.60919 -20.60889 -20.59918 -20.59851 -15.85927
 Alpha  occ. eigenvalues --  -15.84938 -11.31264 -11.30392 -11.27849 -11.27795
 Alpha  occ. eigenvalues --  -11.27576 -11.27062 -11.26851 -11.26841 -11.26829
 Alpha  occ. eigenvalues --  -11.26816 -11.26102 -11.26006  -1.59978  -1.58975
 Alpha  occ. eigenvalues --   -1.39524  -1.38514  -1.19439  -1.18603  -1.08843
 Alpha  occ. eigenvalues --   -1.07999  -1.04830  -1.04010  -0.95674  -0.94801
 Alpha  occ. eigenvalues --   -0.86230  -0.85406  -0.82496  -0.81619  -0.77551
 Alpha  occ. eigenvalues --   -0.76629  -0.72123  -0.71308  -0.71140  -0.70539
 Alpha  occ. eigenvalues --   -0.70312  -0.69707  -0.65085  -0.64829  -0.64251
 Alpha  occ. eigenvalues --   -0.64019  -0.62169  -0.61320  -0.55337  -0.54548
 Alpha  occ. eigenvalues --   -0.53172  -0.52916  -0.52363  -0.52093  -0.48917
 Alpha  occ. eigenvalues --   -0.48889  -0.47949  -0.47880  -0.44929  -0.43902
 Alpha  occ. eigenvalues --   -0.37427  -0.36633  -0.36435  -0.35627
 Alpha virt. eigenvalues --    0.04928   0.05876   0.11218   0.12020   0.16404
 Alpha virt. eigenvalues --    0.17325   0.21367   0.22170   0.27303   0.27994
 Alpha virt. eigenvalues --    0.28281   0.29150   0.30923   0.31667   0.32485

 Mulliken charges:
               1
     1  C   -0.171314
     2  C   -0.221147
     3  C   -0.178070
     4  C    0.155449
     5  C   -0.171677
     6  C   -0.219706
     7  H    0.222307
     8  H    0.222911
     9  H    0.295518
    10  H    0.273197
    11  H    0.220153
    12  N    0.485998
    13  O   -0.466808
    14  O   -0.450281
    15  C   -0.170732
    16  C   -0.218885
    17  C   -0.172041
    18  C    0.156603
    19  C   -0.171484
    20  C   -0.218827
    21  H    0.225855
    22  H    0.224761
    23  H    0.280346
    24  H    0.275035
    25  H    0.223297
    26  N    0.486647
    27  O   -0.461645
    28  O   -0.455460
 Sum of Mulliken charges =  -0.00000

 Dipole moment (field-independent basis, Debye):
    X=             -3.3041    Y=              5.9694    Z=             -3.5294  Tot=              7.6817
 Quadrupole moment (field-independent basis, Debye-Ang):
   XX=            -71.2558   YY=           -107.1925   ZZ=           -104.7201
   XY=             13.0709   XZ=              7.3821   YZ=              2.2758

 Normal termination of Gaussian 16 at Fri May  7 03:19:12 2021.
