 Gaussian 16, Revision A.03,
 Gaussian 16:  EM64L-G16RevA.03 25-Dec-2016

 -------------
 #p 6-31g* mp2
 -------------

 ------------------------------------------------------
 Input file generated by CHIRIPA (05-May-2021 14:53:12)
 ------------------------------------------------------
 Symbolic Z-matrix:
 Charge =  0 Multiplicity = 1

                         Standard orientation:
 ---------------------------------------------------------------------
 Center     Atomic      Atomic             Coordinates (Angstroms)
 Number     Number       Type             X           Y           Z
 ---------------------------------------------------------------------
      1          6           0       -3.261223   -0.745895   -0.625251
      2          6           0       -1.902277   -1.309264   -0.208280
      3          6           0       -1.177485   -2.014271   -1.355204
      4          1           0       -3.887367   -1.562722   -1.009546
      5          1           0       -3.119098   -0.042824   -1.457649
      6          1           0       -2.046770   -2.010015    0.623997
      7          1           0       -1.279364   -0.491032    0.175246
      8          1           0       -1.004237   -1.321549   -2.185097
      9          1           0       -1.776003   -2.849163   -1.733797
     10          1           0       -0.208306   -2.409340   -1.035091
     11          6           0       -3.997958   -0.038141    0.510546
     12          6           0       -5.356905    0.525228    0.093576
     13          6           0       -6.081697    1.230235    1.240500
     14          1           0       -4.140084   -0.741212    1.342945
     15          1           0       -3.371815    0.778686    0.894842
     16          1           0       -5.979818   -0.293004   -0.289950
     17          1           0       -5.212411    1.225979   -0.738701
     18          1           0       -5.483178    2.065127    1.619092
     19          1           0       -6.254945    0.537513    2.070393
     20          1           0       -7.050876    1.625304    0.920387
     21          6           0        3.423904   -1.974354    0.949583
     22          6           0        3.969429   -0.827022    1.534863
     23          6           0        3.650493    0.441734    1.041826
     24          6           0        2.778744    0.526746   -0.042664
     25          6           0        2.218968   -0.597665   -0.647346
     26          6           0        2.551952   -1.856222   -0.137736
     27          1           0        3.677118   -2.955994    1.339024
     28          1           0        4.646877   -0.915742    2.379397
     29          1           0        4.058476    1.346465    1.475910
     30          1           0        1.546578   -0.477370   -1.488084
     31          1           0        2.126786   -2.745525   -0.594265
     32          7           0        2.433664    1.864523   -0.573393
     33          8           0        1.663186    1.912524   -1.529791
     34          8           0        2.940204    2.839739   -0.022932
 ---------------------------------------------------------------------

 SCF Done:  E(RHF) =  -669.534911232     A.U. after   15 cycles
 E2 =    -0.2092452637D+01 EUMP2 =    -0.67162736386914D+03

 The electronic state is 1-A.
 Alpha  occ. eigenvalues --  -20.60788 -20.60781 -15.85839 -11.31178 -11.27762
 Alpha  occ. eigenvalues --  -11.27717 -11.27503 -11.26770 -11.26748 -11.21845
 Alpha  occ. eigenvalues --  -11.21633 -11.21515 -11.21439 -11.21329 -11.20966
 Alpha  occ. eigenvalues --   -1.59862  -1.39416  -1.19361  -1.08761  -1.08489
 Alpha  occ. eigenvalues --   -1.04773  -1.03655  -0.96144  -0.95591  -0.87170
 Alpha  occ. eigenvalues --   -0.86161  -0.82436  -0.79725  -0.78267  -0.77483
 Alpha  occ. eigenvalues --   -0.72059  -0.71186  -0.70473  -0.65126  -0.65021
 Alpha  occ. eigenvalues --   -0.64772  -0.62233  -0.61017  -0.59492  -0.57725
 Alpha  occ. eigenvalues --   -0.55454  -0.55221  -0.53182  -0.52914  -0.52759
 Alpha  occ. eigenvalues --   -0.52479  -0.50050  -0.48815  -0.48812  -0.48037
 Alpha  occ. eigenvalues --   -0.46724  -0.45823  -0.45712  -0.44826  -0.43907
 Alpha  occ. eigenvalues --   -0.37344  -0.36330
 Alpha virt. eigenvalues --    0.05030   0.11225   0.16428   0.20533   0.22968
 Alpha virt. eigenvalues --    0.24141   0.26380   0.26402   0.27144   0.27839
 Alpha virt. eigenvalues --    0.28870   0.30006   0.31344   0.31860   0.32482

 Mulliken charges:
               1
     1  C   -0.299540
     2  C   -0.298943
     3  C   -0.484064
     4  H    0.148592
     5  H    0.154639
     6  H    0.150797
     7  H    0.156647
     8  H    0.160011
     9  H    0.157927
    10  H    0.149865
    11  C   -0.298969
    12  C   -0.300069
    13  C   -0.475966
    14  H    0.147956
    15  H    0.152986
    16  H    0.150933
    17  H    0.154322
    18  H    0.156778
    19  H    0.154097
    20  H    0.160474
    21  C   -0.170968
    22  C   -0.218810
    23  C   -0.170591
    24  C    0.156602
    25  C   -0.169677
    26  C   -0.222030
    27  H    0.225714
    28  H    0.223435
    29  H    0.275526
    30  H    0.280705
    31  H    0.225007
    32  N    0.488077
    33  O   -0.461114
    34  O   -0.460350
 Sum of Mulliken charges =  -0.00000

 Dipole moment (field-independent basis, Debye):
    X=              1.1434    Y=             -4.6298    Z=              1.8759  Tot=              5.1246
 Quadrupole moment (field-independent basis, Debye-Ang):
   XX=            -86.7895   YY=            -99.0893   ZZ=            -93.4221
   XY=            -10.6130   XZ=              8.0741   YZ=              2.1619

 Normal termination of Gaussian 16 at Thu May  6 00:56:25 2021.
