 Gaussian 16, Revision A.03,
 Gaussian 16:  EM64L-G16RevA.03 25-Dec-2016

 -------------
 #p 6-31g* mp2
 -------------

 ------------------------------------------------------
 Input file generated by CHIRIPA (05-May-2021 14:51:13)
 ------------------------------------------------------
 Symbolic Z-matrix:
 Charge =  0 Multiplicity = 1

                         Standard orientation:
 ---------------------------------------------------------------------
 Center     Atomic      Atomic             Coordinates (Angstroms)
 Number     Number       Type             X           Y           Z
 ---------------------------------------------------------------------
      1          6           0        2.504912   -0.542975   -0.577777
      2          6           0        3.595935    0.458347   -0.196979
      3          6           0        4.104344    1.262331   -1.394027
      4          1           0        2.895772   -1.228353   -1.342257
      5          1           0        1.667108   -0.003372   -1.040712
      6          1           0        4.430843   -0.082821    0.266358
      7          1           0        3.202494    1.141302    0.566823
      8          1           0        3.287040    1.827445   -1.853659
      9          1           0        4.522369    0.596367   -2.155832
     10          1           0        4.883665    1.971976   -1.099199
     11          6           0        1.986514   -1.354287    0.608294
     12          6           0        0.895491   -2.355610    0.227495
     13          6           0        0.387082   -3.159594    1.424543
     14          1           0        2.824318   -1.893890    1.071229
     15          1           0        1.595654   -0.668909    1.372774
     16          1           0        1.288932   -3.038564   -0.536306
     17          1           0        0.060582   -1.814441   -0.235841
     18          1           0       -0.030943   -2.493629    2.186348
     19          1           0        1.204386   -3.724707    1.884176
     20          1           0       -0.392239   -3.869239    1.129716
     21          6           0       -1.553714    1.263389    0.058886
     22          6           0       -1.553226    2.533106    0.910826
     23          6           0       -0.161650    3.151140    1.049909
     24          1           0       -0.868111    0.529934    0.504910
     25          1           0       -1.154706    1.498611   -0.937537
     26          1           0       -1.953408    2.295858    1.904900
     27          1           0       -2.239055    3.263552    0.462828
     28          1           0        0.242297    3.415774    0.067364
     29          1           0        0.529568    2.442581    1.517629
     30          1           0       -0.184403    4.057665    1.662735
     31          6           0       -2.937712    0.633873   -0.089403
     32          6           0       -2.938200   -0.635844   -0.941343
     33          6           0       -4.329776   -1.253878   -1.080426
     34          1           0       -3.336720    0.398653    0.907020
     35          1           0       -3.623315    1.367329   -0.535426
     36          1           0       -2.252370   -1.366290   -0.493345
     37          1           0       -2.538019   -0.398596   -1.935417
     38          1           0       -5.020994   -0.545318   -1.548146
     39          1           0       -4.733723   -1.518511   -0.097880
     40          1           0       -4.307023   -2.160403   -1.693251
 ---------------------------------------------------------------------

 SCF Done:  E(RHF) =  -470.733011206     A.U. after   11 cycles
 E2 =    -0.1584916798D+01 EUMP2 =    -0.47231792800456D+03

 The electronic state is 1-A.
 Alpha  occ. eigenvalues --  -11.21691 -11.21641 -11.21553 -11.21550 -11.21490
 Alpha  occ. eigenvalues --  -11.21425 -11.21381 -11.21299 -11.21171 -11.21104
 Alpha  occ. eigenvalues --  -11.21104 -11.21031  -1.08534  -1.08383  -1.03607
 Alpha  occ. eigenvalues --   -1.03504  -0.96052  -0.95961  -0.87068  -0.86978
 Alpha  occ. eigenvalues --   -0.79699  -0.79551  -0.78407  -0.78146  -0.65365
 Alpha  occ. eigenvalues --   -0.64840  -0.61065  -0.60862  -0.59438  -0.59309
 Alpha  occ. eigenvalues --   -0.57675  -0.57557  -0.55340  -0.55253  -0.52746
 Alpha  occ. eigenvalues --   -0.52656  -0.52482  -0.52376  -0.50015  -0.49900
 Alpha  occ. eigenvalues --   -0.48111  -0.47812  -0.46873  -0.46594  -0.46170
 Alpha  occ. eigenvalues --   -0.45801  -0.45651  -0.45175  -0.43855  -0.43755
 Alpha virt. eigenvalues --    0.19308   0.22030   0.23756   0.24640   0.25310
 Alpha virt. eigenvalues --    0.25759   0.27173   0.27426   0.28504   0.30153
 Alpha virt. eigenvalues --    0.30886   0.31454   0.31676   0.31784   0.32304

 Mulliken charges:
               1
     1  C   -0.300358
     2  C   -0.300938
     3  C   -0.475496
     4  H    0.149321
     5  H    0.152802
     6  H    0.151518
     7  H    0.153525
     8  H    0.155019
     9  H    0.154905
    10  H    0.160195
    11  C   -0.298877
    12  C   -0.310070
    13  C   -0.475869
    14  H    0.149729
    15  H    0.148935
    16  H    0.152332
    17  H    0.161308
    18  H    0.154035
    19  H    0.155734
    20  H    0.160180
    21  C   -0.305363
    22  C   -0.299607
    23  C   -0.477770
    24  H    0.156259
    25  H    0.149612
    26  H    0.152167
    27  H    0.152556
    28  H    0.155414
    29  H    0.156078
    30  H    0.161026
    31  C   -0.297982
    32  C   -0.306699
    33  C   -0.475245
    34  H    0.149578
    35  H    0.150020
    36  H    0.159176
    37  H    0.151761
    38  H    0.155255
    39  H    0.155327
    40  H    0.160510
 Sum of Mulliken charges =  -0.00000

 Dipole moment (field-independent basis, Debye):
    X=             -0.0407    Y=              0.0168    Z=             -0.0114  Tot=              0.0455
 Quadrupole moment (field-independent basis, Debye-Ang):
   XX=            -85.3642   YY=            -84.6765   ZZ=            -84.6895
   XY=             -1.4451   XZ=              0.1846   YZ=              0.0901

 Normal termination of Gaussian 16 at Wed May  5 15:20:18 2021.
