 Gaussian 16, Revision A.03,
 Gaussian 16:  EM64L-G16RevA.03 25-Dec-2016

 -------------
 #p 6-31g* mp2
 -------------

 ------------------------------------------------------
 Input file generated by CHIRIPA (05-May-2021 14:57:25)
 ------------------------------------------------------
 Symbolic Z-matrix:
 Charge =  0 Multiplicity = 1

                         Standard orientation:
 ---------------------------------------------------------------------
 Center     Atomic      Atomic             Coordinates (Angstroms)
 Number     Number       Type             X           Y           Z
 ---------------------------------------------------------------------
      1          6           0       -0.946295    0.885291   -0.837893
      2          6           0       -1.058233   -0.428044   -0.369765
      3          6           0       -2.309090   -0.962572   -0.046992
      4          6           0       -3.432201   -0.152067   -0.205084
      5          6           0       -3.353237    1.160059   -0.669175
      6          6           0       -2.092134    1.673760   -0.985843
      7          1           0        0.029381    1.292436   -1.086259
      8          1           0       -0.170072   -1.042686   -0.253876
      9          1           0       -2.424481   -1.976119    0.317461
     10          1           0       -4.256646    1.748465   -0.774284
     11          1           0       -2.008213    2.694048   -1.349183
     12          7           0       -4.761851   -0.706924    0.133389
     13          8           0       -5.736078    0.027647   -0.014682
     14          8           0       -4.804628   -1.865886    0.540348
     15          6           0        1.728095    1.564845    1.638590
     16          6           0        2.023386    0.272767    2.085645
     17          6           0        2.845026   -0.569370    1.330487
     18          6           0        3.356620   -0.084803    0.127675
     19          6           0        3.080730    1.197462   -0.344525
     20          6           0        2.256777    2.022261    0.427067
     21          1           0        1.088928    2.212303    2.231597
     22          1           0        1.614205   -0.085136    3.026134
     23          1           0        3.089793   -1.574123    1.652946
     24          1           0        3.503382    1.526139   -1.286201
     25          1           0        2.029145    3.025238    0.077400
     26          7           0        4.227678   -0.967159   -0.680474
     27          8           0        4.665931   -0.516532   -1.736651
     28          8           0        4.455666   -2.092667   -0.242424
 ---------------------------------------------------------------------

 SCF Done:  E(RHF) =  -868.336641082     A.U. after   16 cycles
 E2 =    -0.2602888446D+01 EUMP2 =    -0.87093952952784D+03

 The electronic state is 1-A.
 Alpha  occ. eigenvalues --  -20.61739 -20.61733 -20.60975 -20.60968 -15.86803
 Alpha  occ. eigenvalues --  -15.86029 -11.32398 -11.31399 -11.28986 -11.28937
 Alpha  occ. eigenvalues --  -11.28639 -11.28002 -11.27989 -11.27956 -11.27908
 Alpha  occ. eigenvalues --  -11.27591 -11.27006 -11.26899  -1.60815  -1.60051
 Alpha  occ. eigenvalues --   -1.40360  -1.39604  -1.20589  -1.19575  -1.09906
 Alpha  occ. eigenvalues --   -1.08953  -1.06007  -1.04982  -0.96697  -0.95793
 Alpha  occ. eigenvalues --   -0.87356  -0.86370  -0.83522  -0.82628  -0.78554
 Alpha  occ. eigenvalues --   -0.77683  -0.73001  -0.72245  -0.72157  -0.71579
 Alpha  occ. eigenvalues --   -0.71379  -0.70695  -0.66188  -0.65943  -0.65215
 Alpha  occ. eigenvalues --   -0.64994  -0.63305  -0.62336  -0.56391  -0.55701
 Alpha  occ. eigenvalues --   -0.54192  -0.54029  -0.53252  -0.53022  -0.49782
 Alpha  occ. eigenvalues --   -0.49752  -0.49006  -0.49000  -0.45716  -0.45009
 Alpha  occ. eigenvalues --   -0.38762  -0.37648  -0.37283  -0.36560
 Alpha virt. eigenvalues --    0.03884   0.04884   0.09910   0.11084   0.15262
 Alpha virt. eigenvalues --    0.16437   0.20171   0.21546   0.25912   0.26927
 Alpha virt. eigenvalues --    0.27382   0.28631   0.29953   0.31311   0.31504

 Mulliken charges:
               1
     1  C   -0.172088
     2  C   -0.222079
     3  C   -0.172853
     4  C    0.157784
     5  C   -0.170920
     6  C   -0.223224
     7  H    0.228957
     8  H    0.226056
     9  H    0.275761
    10  H    0.275291
    11  H    0.220248
    12  N    0.488011
    13  O   -0.460563
    14  O   -0.460108
    15  C   -0.164240
    16  C   -0.218571
    17  C   -0.176385
    18  C    0.158247
    19  C   -0.176113
    20  C   -0.232147
    21  H    0.231988
    22  H    0.229899
    23  H    0.279777
    24  H    0.278739
    25  H    0.225394
    26  N    0.487892
    27  O   -0.457686
    28  O   -0.457065
 Sum of Mulliken charges =  -0.00000

 Dipole moment (field-independent basis, Debye):
    X=              1.9028    Y=              5.0093    Z=              1.8406  Tot=              5.6658
 Quadrupole moment (field-independent basis, Debye-Ang):
   XX=           -157.6540   YY=            -99.9923   ZZ=           -101.6541
   XY=              1.5577   XZ=             12.7978   YZ=             -4.0025

 Normal termination of Gaussian 16 at Fri May  7 00:24:27 2021.
