 Gaussian 16, Revision A.03,
 Gaussian 16:  EM64L-G16RevA.03 25-Dec-2016

 -------------
 #p 6-31g* mp2
 -------------

 ------------------------------------------------------
 Input file generated by CHIRIPA (05-May-2021 14:57:25)
 ------------------------------------------------------
 Symbolic Z-matrix:
 Charge =  0 Multiplicity = 1

                         Standard orientation:
 ---------------------------------------------------------------------
 Center     Atomic      Atomic             Coordinates (Angstroms)
 Number     Number       Type             X           Y           Z
 ---------------------------------------------------------------------
      1          6           0       -4.619239    1.514415    0.323216
      2          6           0       -4.739075    0.149300    0.603610
      3          6           0       -3.696841   -0.731917    0.300704
      4          6           0       -2.543742   -0.211529   -0.284829
      5          6           0       -2.394262    1.143450   -0.576338
      6          6           0       -3.449277    2.006266   -0.264826
      7          1           0       -5.433836    2.191818    0.561863
      8          1           0       -5.646521   -0.235485    1.060259
      9          1           0       -3.763069   -1.793261    0.507058
     10          1           0       -1.477433    1.497450   -1.031888
     11          1           0       -3.353429    3.065959   -0.483707
     12          7           0       -1.433610   -1.134694   -0.610058
     13          8           0       -0.428064   -0.651263   -1.125626
     14          8           0       -1.590054   -2.324220   -0.343245
     15          6           0        3.405440    2.468606   -0.086375
     16          6           0        3.682014    1.526304   -1.082414
     17          6           0        3.310543    0.188674   -0.917178
     18          6           0        2.661087   -0.173535    0.261932
     19          6           0        2.371568    0.741880    1.272617
     20          6           0        2.752252    2.074083    1.085895
     21          1           0        3.697586    3.505601   -0.223079
     22          1           0        4.189165    1.829841   -1.993846
     23          1           0        3.512337   -0.561494   -1.672126
     24          1           0        1.864716    0.409219    2.170311
     25          1           0        2.536171    2.803720    1.861125
     26          7           0        2.262951   -1.586751    0.448234
     27          8           0        1.691876   -1.880461    1.496205
     28          8           0        2.529506   -2.373959   -0.457243
 ---------------------------------------------------------------------

 SCF Done:  E(RHF) =  -868.336962556     A.U. after   16 cycles
 E2 =    -0.2602060707D+01 EUMP2 =    -0.87093902326336D+03

 The electronic state is 1-A.
 Alpha  occ. eigenvalues --  -20.60528 -20.60398 -20.59336 -20.59273 -15.85510
 Alpha  occ. eigenvalues --  -15.84385 -11.31025 -11.30114 -11.27641 -11.27580
 Alpha  occ. eigenvalues --  -11.27396 -11.26790 -11.26695 -11.26692 -11.26641
 Alpha  occ. eigenvalues --  -11.26638 -11.25956 -11.25884  -1.59514  -1.58332
 Alpha  occ. eigenvalues --   -1.39074  -1.37905  -1.19214  -1.18338  -1.08582
 Alpha  occ. eigenvalues --   -1.07672  -1.04642  -1.03835  -0.95393  -0.94452
 Alpha  occ. eigenvalues --   -0.86032  -0.85216  -0.82232  -0.81315  -0.77248
 Alpha  occ. eigenvalues --   -0.76274  -0.71800  -0.70936  -0.70638  -0.70325
 Alpha  occ. eigenvalues --   -0.69507  -0.69442  -0.64867  -0.64647  -0.64019
 Alpha  occ. eigenvalues --   -0.63882  -0.61986  -0.61193  -0.55141  -0.54368
 Alpha  occ. eigenvalues --   -0.52962  -0.52738  -0.52113  -0.51960  -0.48501
 Alpha  occ. eigenvalues --   -0.48448  -0.47392  -0.47344  -0.44461  -0.43255
 Alpha  occ. eigenvalues --   -0.37208  -0.36308  -0.36248  -0.35458
 Alpha virt. eigenvalues --    0.05231   0.06412   0.11398   0.12193   0.16743
 Alpha virt. eigenvalues --    0.17731   0.21506   0.22148   0.27401   0.28018
 Alpha virt. eigenvalues --    0.28419   0.29094   0.31028   0.31630   0.32666

 Mulliken charges:
               1
     1  C   -0.171351
     2  C   -0.218709
     3  C   -0.169945
     4  C    0.159280
     5  C   -0.172251
     6  C   -0.218981
     7  H    0.224492
     8  H    0.223547
     9  H    0.278142
    10  H    0.273979
    11  H    0.220930
    12  N    0.490631
    13  O   -0.471767
    14  O   -0.445677
    15  C   -0.174336
    16  C   -0.219800
    17  C   -0.166043
    18  C    0.174461
    19  C   -0.174660
    20  C   -0.220793
    21  H    0.219692
    22  H    0.219500
    23  H    0.276395
    24  H    0.271326
    25  H    0.217095
    26  N    0.497271
    27  O   -0.467675
    28  O   -0.454751
 Sum of Mulliken charges =  -0.00000

 Dipole moment (field-independent basis, Debye):
    X=             -2.7239    Y=              7.7159    Z=              0.3623  Tot=              8.1906
 Quadrupole moment (field-independent basis, Debye-Ang):
   XX=            -77.1206   YY=           -105.8192   ZZ=           -102.4112
   XY=              7.0103   XZ=             -6.8297   YZ=             -0.0958

 Normal termination of Gaussian 16 at Thu May  6 05:09:13 2021.
