 Gaussian 16, Revision A.03,
 Gaussian 16:  EM64L-G16RevA.03 25-Dec-2016

 -------------
 #p 6-31g* mp2
 -------------

 ------------------------------------------------------
 Input file generated by CHIRIPA (05-May-2021 14:51:12)
 ------------------------------------------------------
 Symbolic Z-matrix:
 Charge =  0 Multiplicity = 1

                         Standard orientation:
 ---------------------------------------------------------------------
 Center     Atomic      Atomic             Coordinates (Angstroms)
 Number     Number       Type             X           Y           Z
 ---------------------------------------------------------------------
      1          6           0       -3.517236   -0.233430   -0.474883
      2          6           0       -4.967573   -0.667463   -0.260124
      3          6           0       -5.244846   -2.079376   -0.777247
      4          1           0       -3.280226   -0.286161   -1.546326
      5          1           0       -2.849981   -0.946839    0.028322
      6          1           0       -5.631950    0.047322   -0.762419
      7          1           0       -5.201216   -0.613509    0.810911
      8          1           0       -4.605978   -2.808401   -0.268355
      9          1           0       -5.039160   -2.143815   -1.850625
     10          1           0       -6.287444   -2.369321   -0.613595
     11          6           0       -3.224512    1.175864    0.036910
     12          6           0       -1.774174    1.609896   -0.177850
     13          6           0       -1.496901    3.021809    0.339273
     14          1           0       -3.891766    1.889272   -0.466295
     15          1           0       -3.461522    1.228595    1.108353
     16          1           0       -1.540531    1.555943   -1.248885
     17          1           0       -1.109797    0.895111    0.324446
     18          1           0       -1.702587    3.086248    1.412652
     19          1           0       -2.135769    3.750835   -0.169618
     20          1           0       -0.454304    3.311755    0.175622
     21          6           0        2.951226   -0.582990    0.847346
     22          6           0        1.471199   -0.828827    0.552275
     23          6           0        0.644708   -1.050707    1.819351
     24          1           0        3.354642   -1.439483    1.404679
     25          1           0        3.046308    0.291349    1.506046
     26          1           0        1.379021   -1.701609   -0.106792
     27          1           0        1.071308    0.028265   -0.004587
     28          1           0        0.706947   -0.178115    2.477615
     29          1           0        1.016409   -1.917819    2.374829
     30          1           0       -0.410208   -1.224527    1.585259
     31          6           0        3.790521   -0.359444   -0.409372
     32          6           0        5.270549   -0.113606   -0.114303
     33          6           0        6.097039    0.108273   -1.381377
     34          1           0        3.695438   -1.233782   -1.068073
     35          1           0        3.387106    0.497049   -0.966706
     36          1           0        5.670440   -0.970698    0.442560
     37          1           0        5.362726    0.759176    0.544765
     38          1           0        5.725338    0.975385   -1.936855
     39          1           0        6.034801   -0.764318   -2.039641
     40          1           0        7.151955    0.282094   -1.147285
 ---------------------------------------------------------------------

 SCF Done:  E(RHF) =  -470.732752597     A.U. after   11 cycles
 E2 =    -0.1583676578D+01 EUMP2 =    -0.47231642917535D+03

 The electronic state is 1-A.
 Alpha  occ. eigenvalues --  -11.21606 -11.21603 -11.21589 -11.21524 -11.21412
 Alpha  occ. eigenvalues --  -11.21405 -11.21352 -11.21340 -11.21138 -11.21075
 Alpha  occ. eigenvalues --  -11.21074 -11.21071  -1.08463  -1.08404  -1.03593
 Alpha  occ. eigenvalues --   -1.03485  -0.96016  -0.95972  -0.87027  -0.86988
 Alpha  occ. eigenvalues --   -0.79672  -0.79538  -0.78320  -0.78173  -0.65188
 Alpha  occ. eigenvalues --   -0.64975  -0.61165  -0.60755  -0.59461  -0.59250
 Alpha  occ. eigenvalues --   -0.57644  -0.57559  -0.55350  -0.55209  -0.52738
 Alpha  occ. eigenvalues --   -0.52645  -0.52437  -0.52396  -0.49948  -0.49913
 Alpha  occ. eigenvalues --   -0.48028  -0.47833  -0.46767  -0.46510  -0.45912
 Alpha  occ. eigenvalues --   -0.45760  -0.45726  -0.45457  -0.43800  -0.43775
 Alpha virt. eigenvalues --    0.20740   0.22910   0.23759   0.24565   0.25971
 Alpha virt. eigenvalues --    0.26370   0.26959   0.27342   0.28049   0.29124
 Alpha virt. eigenvalues --    0.30747   0.31482   0.31563   0.31979   0.32192

 Mulliken charges:
               1
     1  C   -0.300981
     2  C   -0.299599
     3  C   -0.475722
     4  H    0.149926
     5  H    0.150867
     6  H    0.152096
     7  H    0.152030
     8  H    0.155134
     9  H    0.155198
    10  H    0.160297
    11  C   -0.297225
    12  C   -0.311273
    13  C   -0.475535
    14  H    0.149373
    15  H    0.149482
    16  H    0.151086
    17  H    0.166214
    18  H    0.155116
    19  H    0.155284
    20  H    0.159191
    21  C   -0.297762
    22  C   -0.305029
    23  C   -0.480687
    24  H    0.149545
    25  H    0.149433
    26  H    0.152213
    27  H    0.157569
    28  H    0.155583
    29  H    0.156591
    30  H    0.161428
    31  C   -0.298346
    32  C   -0.299669
    33  C   -0.475717
    34  H    0.149616
    35  H    0.149734
    36  H    0.151954
    37  H    0.151928
    38  H    0.155181
    39  H    0.155202
    40  H    0.160273
 Sum of Mulliken charges =  -0.00000

 Dipole moment (field-independent basis, Debye):
    X=              0.0122    Y=             -0.0118    Z=              0.0006  Tot=              0.0170
 Quadrupole moment (field-independent basis, Debye-Ang):
   XX=            -85.4051   YY=            -84.7309   ZZ=            -84.7274
   XY=             -0.7463   XZ=              0.6938   YZ=             -0.4622

 Normal termination of Gaussian 16 at Wed May  5 15:17:00 2021.
