 Gaussian 16, Revision A.03,
 Gaussian 16:  EM64L-G16RevA.03 25-Dec-2016

 -------------
 #p 6-31g* mp2
 -------------

 ------------------------------------------------------
 Input file generated by CHIRIPA (05-May-2021 14:53:18)
 ------------------------------------------------------
 Symbolic Z-matrix:
 Charge =  0 Multiplicity = 1

                         Standard orientation:
 ---------------------------------------------------------------------
 Center     Atomic      Atomic             Coordinates (Angstroms)
 Number     Number       Type             X           Y           Z
 ---------------------------------------------------------------------
      1          6           0       -3.917485   -0.568958   -0.422747
      2          6           0       -3.690249   -1.688995    0.593061
      3          6           0       -3.788005   -3.081544   -0.030673
      4          1           0       -4.905941   -0.696724   -0.884890
      5          1           0       -3.179798   -0.661969   -1.231796
      6          1           0       -4.427266   -1.593076    1.400663
      7          1           0       -2.702298   -1.558438    1.052979
      8          1           0       -3.042362   -3.201878   -0.823224
      9          1           0       -4.777131   -3.236713   -0.473565
     10          1           0       -3.622308   -3.867134    0.713137
     11          6           0       -3.822919    0.829101    0.185708
     12          6           0       -4.050156    1.949138   -0.830100
     13          6           0       -3.952399    3.341687   -0.206366
     14          1           0       -4.560607    0.922112    0.994757
     15          1           0       -2.834464    0.956867    0.647851
     16          1           0       -5.038107    1.818581   -1.290018
     17          1           0       -3.313138    1.853219   -1.637702
     18          1           0       -2.963273    3.496856    0.236526
     19          1           0       -4.698042    3.462021    0.586185
     20          1           0       -4.118097    4.127277   -0.950176
     21          6           0        0.666579   -0.822354    0.631980
     22          6           0        1.360108   -1.427948   -0.421013
     23          6           0        2.666487   -1.036582   -0.728831
     24          6           0        3.251463   -0.031940    0.040448
     25          6           0        2.586502    0.590492    1.095765
     26          6           0        1.280908    0.183161    1.385680
     27          1           0       -0.347944   -1.132577    0.864146
     28          1           0        0.885519   -2.209105   -1.008043
     29          1           0        3.226351   -1.488592   -1.538558
     30          1           0        3.086001    1.366437    1.663064
     31          1           0        0.744711    0.655236    2.204021
     32          7           0        4.634053    0.390833   -0.275949
     33          8           0        5.127125    1.278245    0.416883
     34          8           0        5.198478   -0.173217   -1.210782
 ---------------------------------------------------------------------

 SCF Done:  E(RHF) =  -669.535522706     A.U. after   15 cycles
 E2 =    -0.2091387723D+01 EUMP2 =    -0.67162691042936D+03

 The electronic state is 1-A.
 Alpha  occ. eigenvalues --  -20.60766 -20.60760 -15.85820 -11.31191 -11.27762
 Alpha  occ. eigenvalues --  -11.27758 -11.27486 -11.26779 -11.26769 -11.22794
 Alpha  occ. eigenvalues --  -11.22352 -11.22282 -11.22225 -11.22106 -11.21629
 Alpha  occ. eigenvalues --   -1.59841  -1.39394  -1.19364  -1.09353  -1.08757
 Alpha  occ. eigenvalues --   -1.04769  -1.04405  -0.96829  -0.95593  -0.87846
 Alpha  occ. eigenvalues --   -0.86165  -0.82427  -0.80489  -0.79145  -0.77470
 Alpha  occ. eigenvalues --   -0.72037  -0.71164  -0.70500  -0.65995  -0.65016
 Alpha  occ. eigenvalues --   -0.64768  -0.62117  -0.61817  -0.60212  -0.58437
 Alpha  occ. eigenvalues --   -0.56119  -0.55286  -0.53514  -0.53243  -0.53096
 Alpha  occ. eigenvalues --   -0.52860  -0.50781  -0.48818  -0.48792  -0.48765
 Alpha  occ. eigenvalues --   -0.47539  -0.46682  -0.46592  -0.44798  -0.44657
 Alpha  occ. eigenvalues --   -0.37342  -0.36375
 Alpha virt. eigenvalues --    0.05056   0.11266   0.16498   0.18514   0.22893
 Alpha virt. eigenvalues --    0.23535   0.24930   0.25997   0.27077   0.27607
 Alpha virt. eigenvalues --    0.29397   0.30065   0.30944   0.31184   0.32064

 Mulliken charges:
               1
     1  C   -0.299298
     2  C   -0.304612
     3  C   -0.475834
     4  H    0.154321
     5  H    0.148891
     6  H    0.157591
     7  H    0.142085
     8  H    0.151875
     9  H    0.160574
    10  H    0.162561
    11  C   -0.297592
    12  C   -0.300401
    13  C   -0.476113
    14  H    0.151705
    15  H    0.143161
    16  H    0.153956
    17  H    0.153808
    18  H    0.154760
    19  H    0.155834
    20  H    0.163278
    21  C   -0.178488
    22  C   -0.222085
    23  C   -0.170600
    24  C    0.158323
    25  C   -0.170601
    26  C   -0.222205
    27  H    0.238878
    28  H    0.223785
    29  H    0.275633
    30  H    0.275664
    31  H    0.223982
    32  N    0.487958
    33  O   -0.460387
    34  O   -0.460406
 Sum of Mulliken charges =  -0.00000

 Dipole moment (field-independent basis, Debye):
    X=             -5.0983    Y=             -1.4586    Z=              1.0583  Tot=              5.4075
 Quadrupole moment (field-independent basis, Debye-Ang):
   XX=           -125.0469   YY=            -93.7313   ZZ=            -92.3042
   XY=             -4.7941   XZ=              3.2394   YZ=              2.4584

 Normal termination of Gaussian 16 at Wed May  5 22:03:17 2021.
