 Gaussian 16, Revision A.03,
 Gaussian 16:  EM64L-G16RevA.03 25-Dec-2016

 -------------
 #p 6-31g* mp2
 -------------

 ------------------------------------------------------
 Input file generated by CHIRIPA (05-May-2021 14:51:09)
 ------------------------------------------------------
 Symbolic Z-matrix:
 Charge =  0 Multiplicity = 1

                         Standard orientation:
 ---------------------------------------------------------------------
 Center     Atomic      Atomic             Coordinates (Angstroms)
 Number     Number       Type             X           Y           Z
 ---------------------------------------------------------------------
      1          6           0       -2.447274   -0.299527    1.090334
      2          6           0       -1.117972   -1.035664    0.919914
      3          6           0       -0.569252   -1.578268    2.239870
      4          1           0       -2.312630    0.527591    1.800751
      5          1           0       -3.181268   -0.982033    1.540703
      6          1           0       -0.387097   -0.352387    0.468726
      7          1           0       -1.255749   -1.861008    0.209674
      8          1           0       -1.277126   -2.280719    2.691621
      9          1           0       -0.403538   -0.763526    2.952145
     10          1           0        0.381446   -2.100779    2.094903
     11          6           0       -3.008549    0.248729   -0.220435
     12          6           0       -4.337851    0.984867   -0.050015
     13          6           0       -4.886571    1.527470   -1.369971
     14          1           0       -2.274555    0.931235   -0.670804
     15          1           0       -3.143193   -0.578389   -0.930852
     16          1           0       -4.200074    1.810211    0.660225
     17          1           0       -5.068726    0.301590    0.401173
     18          1           0       -5.052285    0.712729   -2.082246
     19          1           0       -4.178698    2.229921   -1.821722
     20          1           0       -5.837269    2.049982   -1.225004
     21          6           0        2.832281    0.775556   -0.533962
     22          6           0        3.659142    1.424499    0.576516
     23          6           0        3.859302    2.925403    0.364348
     24          1           0        3.327256    0.948039   -1.499463
     25          1           0        1.853888    1.272421   -0.591122
     26          1           0        4.635167    0.925640    0.632484
     27          1           0        3.162240    1.250286    1.539508
     28          1           0        2.894471    3.441665    0.330032
     29          1           0        4.375767    3.115176   -0.582146
     30          1           0        4.453005    3.369044    1.169680
     31          6           0        2.623542   -0.724758   -0.335938
     32          6           0        1.796681   -1.373701   -1.446415
     33          6           0        1.596521   -2.874606   -1.234247
     34          1           0        3.601935   -1.221623   -0.278777
     35          1           0        2.128567   -0.897242    0.629564
     36          1           0        2.293583   -1.199489   -2.409407
     37          1           0        0.820657   -0.874844   -1.502383
     38          1           0        1.080056   -3.064378   -0.287753
     39          1           0        2.561352   -3.390867   -1.199931
     40          1           0        1.002818   -3.318247   -2.039579
 ---------------------------------------------------------------------

 SCF Done:  E(RHF) =  -470.731775551     A.U. after   11 cycles
 E2 =    -0.1585382822D+01 EUMP2 =    -0.47231715837219D+03

 The electronic state is 1-A.
 Alpha  occ. eigenvalues --  -11.21645 -11.21639 -11.21607 -11.21482 -11.21464
 Alpha  occ. eigenvalues --  -11.21405 -11.21396 -11.21299 -11.21169 -11.21102
 Alpha  occ. eigenvalues --  -11.21084 -11.21003  -1.08540  -1.08371  -1.03665
 Alpha  occ. eigenvalues --   -1.03438  -0.96055  -0.95956  -0.87068  -0.86975
 Alpha  occ. eigenvalues --   -0.79708  -0.79540  -0.78334  -0.78216  -0.65324
 Alpha  occ. eigenvalues --   -0.64931  -0.61094  -0.60965  -0.59390  -0.59238
 Alpha  occ. eigenvalues --   -0.57627  -0.57544  -0.55444  -0.55139  -0.52751
 Alpha  occ. eigenvalues --   -0.52653  -0.52487  -0.52382  -0.50056  -0.49865
 Alpha  occ. eigenvalues --   -0.48072  -0.47837  -0.46778  -0.46507  -0.46016
 Alpha  occ. eigenvalues --   -0.45786  -0.45676  -0.45393  -0.43841  -0.43754
 Alpha virt. eigenvalues --    0.20228   0.22909   0.23381   0.24695   0.25253
 Alpha virt. eigenvalues --    0.26343   0.26618   0.27749   0.29062   0.29592
 Alpha virt. eigenvalues --    0.30438   0.31335   0.31407   0.31794   0.32020

 Mulliken charges:
               1
     1  C   -0.297546
     2  C   -0.307527
     3  C   -0.480561
     4  H    0.149424
     5  H    0.149714
     6  H    0.158703
     7  H    0.154847
     8  H    0.156185
     9  H    0.155340
    10  H    0.163045
    11  C   -0.298700
    12  C   -0.299604
    13  C   -0.475777
    14  H    0.148844
    15  H    0.149942
    16  H    0.152011
    17  H    0.152173
    18  H    0.155311
    19  H    0.155264
    20  H    0.160427
    21  C   -0.299197
    22  C   -0.299571
    23  C   -0.475654
    24  H    0.150083
    25  H    0.148586
    26  H    0.152168
    27  H    0.151894
    28  H    0.154790
    29  H    0.155284
    30  H    0.160304
    31  C   -0.305577
    32  C   -0.301444
    33  C   -0.480025
    34  H    0.149937
    35  H    0.155956
    36  H    0.151570
    37  H    0.155565
    38  H    0.159603
    39  H    0.154675
    40  H    0.159539
 Sum of Mulliken charges =  -0.00000

 Dipole moment (field-independent basis, Debye):
    X=             -0.0384    Y=             -0.0072    Z=              0.0183  Tot=              0.0431
 Quadrupole moment (field-independent basis, Debye-Ang):
   XX=            -84.1456   YY=            -85.4075   ZZ=            -85.2944
   XY=              0.3286   XZ=             -0.7671   YZ=              0.5929

 Normal termination of Gaussian 16 at Wed May  5 18:08:14 2021.
