 Gaussian 16, Revision A.03,
 Gaussian 16:  EM64L-G16RevA.03 25-Dec-2016

 -------------
 #p 6-31g* mp2
 -------------

 ------------------------------------------------------
 Input file generated by CHIRIPA (05-May-2021 14:51:10)
 ------------------------------------------------------
 Symbolic Z-matrix:
 Charge =  0 Multiplicity = 1

                         Standard orientation:
 ---------------------------------------------------------------------
 Center     Atomic      Atomic             Coordinates (Angstroms)
 Number     Number       Type             X           Y           Z
 ---------------------------------------------------------------------
      1          6           0        3.665588    0.911045   -0.414948
      2          6           0        2.387325    1.159313    0.386547
      3          6           0        1.574030    2.338534   -0.148039
      4          1           0        4.282236    1.820155   -0.400505
      5          1           0        3.401558    0.729111   -1.465939
      6          1           0        2.653588    1.339356    1.435978
      7          1           0        1.773736    0.249444    0.370354
      8          1           0        1.279839    2.163687   -1.187982
      9          1           0        2.164690    3.259792   -0.116304
     10          1           0        0.664578    2.498214    0.439548
     11          6           0        4.489400   -0.264653    0.107351
     12          6           0        5.767662   -0.512921   -0.694143
     13          6           0        6.580957   -1.692142   -0.159557
     14          1           0        4.753430   -0.082719    1.158343
     15          1           0        3.872751   -1.173762    0.092908
     16          1           0        6.381251    0.396949   -0.677951
     17          1           0        5.501399   -0.692963   -1.743574
     18          1           0        5.990297   -2.613399   -0.191292
     19          1           0        6.875148   -1.517295    0.880386
     20          1           0        7.490409   -1.851821   -0.747144
     21          6           0       -3.513147   -0.068775    0.601251
     22          6           0       -2.201739   -0.833123    0.416952
     23          6           0       -1.082281   -0.312504    1.318930
     24          1           0       -3.340996    0.996774    0.396527
     25          1           0       -3.825547   -0.138612    1.652405
     26          1           0       -1.892624   -0.763029   -0.633834
     27          1           0       -2.377075   -1.897007    0.621953
     28          1           0       -1.365748   -0.397721    2.372963
     29          1           0       -0.878544    0.742700    1.110041
     30          1           0       -0.153979   -0.873039    1.170882
     31          6           0       -4.641841   -0.577617   -0.293655
     32          6           0       -5.953249    0.186731   -0.109356
     33          6           0       -7.072707   -0.333888   -1.011334
     34          1           0       -4.329439   -0.507781   -1.344809
     35          1           0       -4.813992   -1.643167   -0.088930
     36          1           0       -5.777912    1.250613   -0.314357
     37          1           0       -6.262364    0.116636    0.941430
     38          1           0       -7.276443   -1.389093   -0.802444
     39          1           0       -6.789240   -0.248672   -2.065367
     40          1           0       -8.001008    0.226646   -0.863286
 ---------------------------------------------------------------------

 SCF Done:  E(RHF) =  -470.732302370     A.U. after   11 cycles
 E2 =    -0.1583283525D+01 EUMP2 =    -0.47231558589485D+03

 The electronic state is 1-A.
 Alpha  occ. eigenvalues --  -11.21603 -11.21602 -11.21584 -11.21485 -11.21408
 Alpha  occ. eigenvalues --  -11.21371 -11.21348 -11.21306 -11.21072 -11.21058
 Alpha  occ. eigenvalues --  -11.21044 -11.21026  -1.08438  -1.08387  -1.03570
 Alpha  occ. eigenvalues --   -1.03458  -0.96041  -0.95898  -0.87013  -0.86963
 Alpha  occ. eigenvalues --   -0.79653  -0.79509  -0.78258  -0.78190  -0.65099
 Alpha  occ. eigenvalues --   -0.65002  -0.61078  -0.60815  -0.59436  -0.59248
 Alpha  occ. eigenvalues --   -0.57640  -0.57560  -0.55354  -0.55120  -0.52735
 Alpha  occ. eigenvalues --   -0.52676  -0.52479  -0.52255  -0.49891  -0.49878
 Alpha  occ. eigenvalues --   -0.48027  -0.47758  -0.46666  -0.46523  -0.45784
 Alpha  occ. eigenvalues --   -0.45750  -0.45715  -0.45653  -0.43795  -0.43673
 Alpha virt. eigenvalues --    0.21623   0.23119   0.23512   0.24979   0.26072
 Alpha virt. eigenvalues --    0.26475   0.26994   0.27138   0.27825   0.29210
 Alpha virt. eigenvalues --    0.29980   0.30901   0.31644   0.31845   0.32719

 Mulliken charges:
               1
     1  C   -0.297897
     2  C   -0.304226
     3  C   -0.477957
     4  H    0.149238
     5  H    0.148987
     6  H    0.151559
     7  H    0.158919
     8  H    0.154458
     9  H    0.155214
    10  H    0.161467
    11  C   -0.298083
    12  C   -0.299579
    13  C   -0.475692
    14  H    0.149590
    15  H    0.148960
    16  H    0.151965
    17  H    0.151828
    18  H    0.155088
    19  H    0.155180
    20  H    0.160186
    21  C   -0.298597
    22  C   -0.299629
    23  C   -0.482157
    24  H    0.149701
    25  H    0.149579
    26  H    0.151729
    27  H    0.151738
    28  H    0.154992
    29  H    0.160848
    30  H    0.162565
    31  C   -0.298274
    32  C   -0.299673
    33  C   -0.475704
    34  H    0.149511
    35  H    0.149624
    36  H    0.152011
    37  H    0.151924
    38  H    0.155155
    39  H    0.155180
    40  H    0.160273
 Sum of Mulliken charges =  -0.00000

 Dipole moment (field-independent basis, Debye):
    X=             -0.0173    Y=             -0.0036    Z=              0.0151  Tot=              0.0232
 Quadrupole moment (field-independent basis, Debye-Ang):
   XX=            -85.9219   YY=            -84.7460   ZZ=            -84.2956
   XY=              0.8164   XZ=             -0.5722   YZ=             -0.0045

 Normal termination of Gaussian 16 at Thu May  6 05:22:47 2021.
