 Gaussian 16, Revision A.03,
 Gaussian 16:  EM64L-G16RevA.03 25-Dec-2016

 -------------
 #p 6-31g* mp2
 -------------

 ------------------------------------------------------
 Input file generated by CHIRIPA (05-May-2021 14:57:24)
 ------------------------------------------------------
 Symbolic Z-matrix:
 Charge =  0 Multiplicity = 1

                         Standard orientation:
 ---------------------------------------------------------------------
 Center     Atomic      Atomic             Coordinates (Angstroms)
 Number     Number       Type             X           Y           Z
 ---------------------------------------------------------------------
      1          6           0       -1.161572   -2.237101   -0.356379
      2          6           0       -1.345327   -1.745250    0.940093
      3          6           0       -2.263283   -0.720120    1.187103
      4          6           0       -2.983880   -0.207684    0.109402
      5          6           0       -2.823288   -0.676585   -1.193530
      6          6           0       -1.899837   -1.702142   -1.417182
      7          1           0       -0.446347   -3.033612   -0.539190
      8          1           0       -0.773364   -2.158805    1.765850
      9          1           0       -2.425383   -0.320691    2.180882
     10          1           0       -3.408024   -0.244299   -1.996419
     11          1           0       -1.759210   -2.082164   -2.425077
     12          7           0       -3.958587    0.877801    0.358537
     13          8           0       -4.581128    1.312344   -0.608031
     14          8           0       -4.081565    1.273507    1.515658
     15          6           0        2.058155    2.760584   -0.448739
     16          6           0        3.331153    2.510689    0.074277
     17          6           0        3.765585    1.199341    0.289186
     18          6           0        2.897201    0.157076   -0.031566
     19          6           0        1.623091    0.373752   -0.554045
     20          6           0        1.209682    1.693201   -0.760681
     21          1           0        1.728843    3.782417   -0.612472
     22          1           0        3.992219    3.337672    0.317455
     23          1           0        4.745991    0.977380    0.692865
     24          1           0        0.986553   -0.471282   -0.786754
     25          1           0        0.220518    1.884285   -1.166990
     26          7           0        3.345987   -1.235476    0.191569
     27          8           0        2.561991   -2.136275   -0.099206
     28          8           0        4.473243   -1.399793    0.653013
 ---------------------------------------------------------------------

 SCF Done:  E(RHF) =  -868.339936065     A.U. after   16 cycles
 E2 =    -0.2601477028D+01 EUMP2 =    -0.87094141309381D+03

 The electronic state is 1-A.
 Alpha  occ. eigenvalues --  -20.61442 -20.61372 -20.61165 -20.61152 -15.86449
 Alpha  occ. eigenvalues --  -15.86213 -11.31553 -11.31472 -11.28144 -11.28047
 Alpha  occ. eigenvalues --  -11.28034 -11.27918 -11.27697 -11.27579 -11.27072
 Alpha  occ. eigenvalues --  -11.26970 -11.26927 -11.26917  -1.60477  -1.60243
 Alpha  occ. eigenvalues --   -1.40046  -1.39794  -1.19717  -1.19622  -1.09085
 Alpha  occ. eigenvalues --   -1.09068  -1.05076  -1.04976  -0.95999  -0.95872
 Alpha  occ. eigenvalues --   -0.86438  -0.86393  -0.82831  -0.82711  -0.77916
 Alpha  occ. eigenvalues --   -0.77811  -0.72700  -0.72417  -0.71790  -0.71580
 Alpha  occ. eigenvalues --   -0.70740  -0.70624  -0.65307  -0.65276  -0.65001
 Alpha  occ. eigenvalues --   -0.64975  -0.62393  -0.62368  -0.55519  -0.55381
 Alpha  occ. eigenvalues --   -0.53610  -0.53305  -0.53099  -0.52873  -0.49448
 Alpha  occ. eigenvalues --   -0.49387  -0.49184  -0.49173  -0.45526  -0.45205
 Alpha  occ. eigenvalues --   -0.37679  -0.37549  -0.36879  -0.36406
 Alpha virt. eigenvalues --    0.04587   0.04673   0.10659   0.11333   0.16120
 Alpha virt. eigenvalues --    0.16168   0.21159   0.21614   0.27089   0.27287
 Alpha virt. eigenvalues --    0.27882   0.28722   0.30970   0.31200   0.32330

 Mulliken charges:
               1
     1  C   -0.185489
     2  C   -0.218124
     3  C   -0.172062
     4  C    0.155598
     5  C   -0.175866
     6  C   -0.224649
     7  H    0.247927
     8  H    0.232998
     9  H    0.276842
    10  H    0.275404
    11  H    0.226862
    12  N    0.487573
    13  O   -0.461370
    14  O   -0.459183
    15  C   -0.169322
    16  C   -0.219501
    17  C   -0.170098
    18  C    0.153824
    19  C   -0.174144
    20  C   -0.224075
    21  H    0.228799
    22  H    0.224632
    23  H    0.275320
    24  H    0.282563
    25  H    0.226797
    26  N    0.489620
    27  O   -0.474168
    28  O   -0.456708
 Sum of Mulliken charges =  -0.00000

 Dipole moment (field-independent basis, Debye):
    X=              1.8686    Y=              1.0052    Z=             -1.5613  Tot=              2.6343
 Quadrupole moment (field-independent basis, Debye-Ang):
   XX=           -131.5403   YY=           -101.4874   ZZ=           -100.3299
   XY=             26.9589   XZ=              3.7204   YZ=             -0.0623

 Normal termination of Gaussian 16 at Thu May  6 11:22:43 2021.
