 Gaussian 16, Revision A.03,
 Gaussian 16:  EM64L-G16RevA.03 25-Dec-2016

 -------------
 #p 6-31g* mp2
 -------------

 ------------------------------------------------------
 Input file generated by CHIRIPA (05-May-2021 14:53:15)
 ------------------------------------------------------
 Symbolic Z-matrix:
 Charge =  0 Multiplicity = 1

                         Standard orientation:
 ---------------------------------------------------------------------
 Center     Atomic      Atomic             Coordinates (Angstroms)
 Number     Number       Type             X           Y           Z
 ---------------------------------------------------------------------
      1          6           0       -3.204353   -0.170839    0.271080
      2          6           0       -3.477103   -1.137104   -0.882143
      3          6           0       -3.792848   -2.554539   -0.403625
      4          1           0       -2.366249   -0.552315    0.870248
      5          1           0       -4.078976   -0.148108    0.935845
      6          1           0       -2.602766   -1.156957   -1.545285
      7          1           0       -4.314532   -0.753186   -1.478746
      8          1           0       -4.677940   -2.555396    0.240744
      9          1           0       -2.956449   -2.961462    0.173828
     10          1           0       -3.984541   -3.228686   -1.244243
     11          6           0       -2.887140    1.250171   -0.191343
     12          6           0       -2.614390    2.216436    0.961881
     13          6           0       -2.298645    3.633870    0.483363
     14          1           0       -2.012517    1.227440   -0.856108
     15          1           0       -3.725244    1.631647   -0.790510
     16          1           0       -1.776961    1.832517    1.558484
     17          1           0       -3.488727    2.236289    1.625022
     18          1           0       -3.135044    4.040794   -0.094090
     19          1           0       -1.413553    3.634728   -0.161006
     20          1           0       -2.106952    4.308017    1.323981
     21          6           0        0.750037   -2.247297    0.583417
     22          6           0        1.844203   -1.977545    1.412003
     23          6           0        2.753422   -0.968308    1.081381
     24          6           0        2.537019   -0.245114   -0.090561
     25          6           0        1.456511   -0.490087   -0.936598
     26          6           0        0.560017   -1.504017   -0.586177
     27          1           0        0.048676   -3.033118    0.847941
     28          1           0        1.994279   -2.553181    2.320939
     29          1           0        3.608992   -0.738487    1.704759
     30          1           0        1.333299    0.100647   -1.836192
     31          1           0       -0.288837   -1.711310   -1.231563
     32          7           0        3.492831    0.825804   -0.451056
     33          8           0        3.279898    1.448662   -1.489009
     34          8           0        4.436833    1.022055    0.311168
 ---------------------------------------------------------------------

 SCF Done:  E(RHF) =  -669.535548736     A.U. after   15 cycles
 E2 =    -0.2092723396D+01 EUMP2 =    -0.67162827213163D+03

 The electronic state is 1-A.
 Alpha  occ. eigenvalues --  -20.60818 -20.60812 -15.85871 -11.31260 -11.27826
 Alpha  occ. eigenvalues --  -11.27822 -11.27573 -11.26844 -11.26826 -11.22542
 Alpha  occ. eigenvalues --  -11.22097 -11.22025 -11.21881 -11.21816 -11.21172
 Alpha  occ. eigenvalues --   -1.59893  -1.39445  -1.19433  -1.09032  -1.08815
 Alpha  occ. eigenvalues --   -1.04837  -1.04112  -0.96543  -0.95653  -0.87564
 Alpha  occ. eigenvalues --   -0.86232  -0.82486  -0.80205  -0.78783  -0.77530
 Alpha  occ. eigenvalues --   -0.72089  -0.71216  -0.70538  -0.65806  -0.65082
 Alpha  occ. eigenvalues --   -0.64754  -0.62229  -0.61438  -0.59949  -0.58137
 Alpha  occ. eigenvalues --   -0.55848  -0.55333  -0.53250  -0.53159  -0.52988
 Alpha  occ. eigenvalues --   -0.52896  -0.50497  -0.48854  -0.48843  -0.48492
 Alpha  occ. eigenvalues --   -0.47251  -0.46323  -0.46222  -0.44846  -0.44341
 Alpha  occ. eigenvalues --   -0.37399  -0.36425
 Alpha virt. eigenvalues --    0.04977   0.11115   0.16394   0.18681   0.22996
 Alpha virt. eigenvalues --    0.23814   0.24593   0.25702   0.27251   0.28658
 Alpha virt. eigenvalues --    0.29032   0.29490   0.31081   0.31602   0.32081

 Mulliken charges:
               1
     1  C   -0.300563
     2  C   -0.302676
     3  C   -0.476041
     4  H    0.149647
     5  H    0.151891
     6  H    0.143133
     7  H    0.157908
     8  H    0.160884
     9  H    0.145657
    10  H    0.162678
    11  C   -0.297523
    12  C   -0.300484
    13  C   -0.476694
    14  H    0.147064
    15  H    0.151041
    16  H    0.153702
    17  H    0.151725
    18  H    0.155020
    19  H    0.158880
    20  H    0.162177
    21  C   -0.174547
    22  C   -0.218568
    23  C   -0.170869
    24  C    0.158742
    25  C   -0.173523
    26  C   -0.221219
    27  H    0.227572
    28  H    0.223954
    29  H    0.275914
    30  H    0.275867
    31  H    0.231612
    32  N    0.488068
    33  O   -0.460280
    34  O   -0.460149
 Sum of Mulliken charges =  -0.00000

 Dipole moment (field-independent basis, Debye):
    X=             -3.4358    Y=             -3.6829    Z=              1.3156  Tot=              5.2057
 Quadrupole moment (field-independent basis, Debye-Ang):
   XX=           -109.5165   YY=            -94.3331   ZZ=            -91.8924
   XY=             -9.9670   XZ=              6.1009   YZ=             -0.7422

 Normal termination of Gaussian 16 at Thu May  6 18:50:47 2021.
