 Gaussian 16, Revision A.03,
 Gaussian 16:  EM64L-G16RevA.03 25-Dec-2016

 -------------
 #p 6-31g* mp2
 -------------

 ------------------------------------------------------
 Input file generated by CHIRIPA (05-May-2021 14:53:16)
 ------------------------------------------------------
 Symbolic Z-matrix:
 Charge =  0 Multiplicity = 1

                         Standard orientation:
 ---------------------------------------------------------------------
 Center     Atomic      Atomic             Coordinates (Angstroms)
 Number     Number       Type             X           Y           Z
 ---------------------------------------------------------------------
      1          6           0       -3.183672    0.796090   -0.044810
      2          6           0       -3.784443    2.000668    0.680485
      3          6           0       -3.036273    3.301265    0.386407
      4          1           0       -2.129954    0.688614    0.246860
      5          1           0       -3.190535    0.987531   -1.126799
      6          1           0       -3.777717    1.806434    1.760690
      7          1           0       -4.836906    2.105174    0.387201
      8          1           0       -3.054248    3.522064   -0.685752
      9          1           0       -1.989041    3.221626    0.695542
     10          1           0       -3.482476    4.149423    0.914983
     11          6           0       -3.920738   -0.511507    0.239181
     12          6           0       -3.319967   -1.716084   -0.486114
     13          6           0       -4.068137   -3.016682   -0.192037
     14          1           0       -3.913875   -0.702947    1.321170
     15          1           0       -4.974456   -0.404030   -0.052489
     16          1           0       -2.267504   -1.820591   -0.192830
     17          1           0       -3.326693   -1.521850   -1.566319
     18          1           0       -5.115369   -2.937043   -0.501171
     19          1           0       -4.050162   -3.237481    0.880123
     20          1           0       -3.621934   -3.864839   -0.720612
     21          6           0        5.254711    0.062958    0.357010
     22          6           0        4.484658   -0.867784    1.062177
     23          6           0        3.109963   -0.973007    0.830471
     24          6           0        2.535446   -0.127999   -0.117781
     25          6           0        3.275847    0.809348   -0.836445
     26          6           0        4.648915    0.897083   -0.588383
     27          1           0        6.321975    0.137906    0.543358
     28          1           0        4.952440   -1.516866    1.796968
     29          1           0        2.490148   -1.684710    1.362191
     30          1           0        2.781226    1.442791   -1.562748
     31          1           0        5.244467    1.620837   -1.137512
     32          7           0        1.080980   -0.230137   -0.371735
     33          8           0        0.598733    0.525793   -1.212357
     34          8           0        0.450753   -1.064191    0.274646
 ---------------------------------------------------------------------

 SCF Done:  E(RHF) =  -669.536845100     A.U. after   15 cycles
 E2 =    -0.2092340657D+01 EUMP2 =    -0.67162918575705D+03

 The electronic state is 1-A.
 Alpha  occ. eigenvalues --  -20.61189 -20.61178 -15.86176 -11.31430 -11.27978
 Alpha  occ. eigenvalues --  -11.27973 -11.27701 -11.26965 -11.26955 -11.20298
 Alpha  occ. eigenvalues --  -11.19970 -11.19797 -11.19734 -11.19667 -11.19531
 Alpha  occ. eigenvalues --   -1.60215  -1.39774  -1.19585  -1.09003  -1.06818
 Alpha  occ. eigenvalues --   -1.04968  -1.02071  -0.95855  -0.94556  -0.86372
 Alpha  occ. eigenvalues --   -0.85583  -0.82693  -0.78109  -0.77755  -0.76563
 Alpha  occ. eigenvalues --   -0.72382  -0.71519  -0.70692  -0.65240  -0.64970
 Alpha  occ. eigenvalues --   -0.63456  -0.62314  -0.59480  -0.57931  -0.56151
 Alpha  occ. eigenvalues --   -0.55475  -0.53861  -0.53303  -0.53057  -0.51322
 Alpha  occ. eigenvalues --   -0.50979  -0.49237  -0.49146  -0.48511  -0.46428
 Alpha  occ. eigenvalues --   -0.45211  -0.45093  -0.44144  -0.43857  -0.42277
 Alpha  occ. eigenvalues --   -0.37559  -0.36564
 Alpha virt. eigenvalues --    0.04745   0.11093   0.16264   0.21229   0.24422
 Alpha virt. eigenvalues --    0.25636   0.27163   0.28012   0.28316   0.29094
 Alpha virt. eigenvalues --    0.29552   0.30879   0.32314   0.32733   0.33147

 Mulliken charges:
               1
     1  C   -0.301673
     2  C   -0.299101
     3  C   -0.473118
     4  H    0.169279
     5  H    0.148667
     6  H    0.147216
     7  H    0.146667
     8  H    0.154650
     9  H    0.154671
    10  H    0.153604
    11  C   -0.296235
    12  C   -0.310434
    13  C   -0.474404
    14  H    0.144110
    15  H    0.141452
    16  H    0.181257
    17  H    0.147757
    18  H    0.149145
    19  H    0.150979
    20  H    0.155763
    21  C   -0.170244
    22  C   -0.218598
    23  C   -0.170637
    24  C    0.158552
    25  C   -0.170360
    26  C   -0.218646
    27  H    0.226529
    28  H    0.224305
    29  H    0.275956
    30  H    0.276356
    31  H    0.224374
    32  N    0.489181
    33  O   -0.456385
    34  O   -0.460636
 Sum of Mulliken charges =  -0.00000

 Dipole moment (field-independent basis, Debye):
    X=              5.7226    Y=              0.3390    Z=              0.8202  Tot=              5.7910
 Quadrupole moment (field-independent basis, Debye-Ang):
   XX=            -71.1089   YY=            -94.6040   ZZ=            -92.6122
   XY=             -0.0682   XZ=              2.2128   YZ=             -3.3888

 Normal termination of Gaussian 16 at Thu May  6 01:08:34 2021.
