 Gaussian 16, Revision A.03,
 Gaussian 16:  EM64L-G16RevA.03 25-Dec-2016

 -------------
 #p 6-31g* mp2
 -------------

 ------------------------------------------------------
 Input file generated by CHIRIPA (05-May-2021 14:55:24)
 ------------------------------------------------------
 Symbolic Z-matrix:
 Charge =  0 Multiplicity = 1

                         Standard orientation:
 ---------------------------------------------------------------------
 Center     Atomic      Atomic             Coordinates (Angstroms)
 Number     Number       Type             X           Y           Z
 ---------------------------------------------------------------------
      1          6           0       -3.172401    2.782011    0.009587
      2          6           0       -2.012997    2.134609   -0.429926
      3          6           0       -1.953619    0.738598   -0.476587
      4          6           0       -3.077144    0.017932   -0.074564
      5          6           0       -4.246731    0.633854    0.368150
      6          6           0       -4.283609    2.030892    0.406523
      7          1           0       -3.209788    3.866865    0.042615
      8          1           0       -1.148501    2.715376   -0.738797
      9          1           0       -1.068791    0.211722   -0.812593
     10          1           0       -5.092519    0.027927    0.669669
     11          1           0       -5.185354    2.530982    0.748300
     12          7           0       -3.026193   -1.460506   -0.119575
     13          8           0       -4.029515   -2.072628    0.239994
     14          8           0       -1.983901   -1.979189   -0.513570
     15          6           0        3.226632   -0.551591    0.203950
     16          6           0        2.998567   -2.047478   -0.015803
     17          6           0        1.547604   -2.465759    0.224081
     18          1           0        2.932618   -0.289096    1.229425
     19          1           0        2.565134    0.015332   -0.465687
     20          1           0        3.661290   -2.611417    0.653066
     21          1           0        3.293338   -2.306479   -1.040813
     22          1           0        0.875011   -1.928960   -0.452725
     23          1           0        1.245053   -2.235631    1.250778
     24          1           0        1.407023   -3.538904    0.061427
     25          6           0        4.672353   -0.118096   -0.032057
     26          6           0        4.900419    1.377791    0.187697
     27          6           0        6.351381    1.796071   -0.052188
     28          1           0        5.333851   -0.685019    0.637581
     29          1           0        4.966368   -0.380591   -1.057530
     30          1           0        4.605647    1.636793    1.212706
     31          1           0        4.237695    1.941730   -0.481172
     32          1           0        6.653932    1.565944   -1.078884
     33          1           0        7.023975    1.259273    0.624618
     34          1           0        6.491961    2.869217    0.110466
 ---------------------------------------------------------------------

 SCF Done:  E(RHF) =  -669.535642210     A.U. after   15 cycles
 E2 =    -0.2091263275D+01 EUMP2 =    -0.67162690548542D+03

 The electronic state is 1-A.
 Alpha  occ. eigenvalues --  -20.60812 -20.60801 -15.85850 -11.31210 -11.27782
 Alpha  occ. eigenvalues --  -11.27777 -11.27523 -11.26796 -11.26786 -11.21699
 Alpha  occ. eigenvalues --  -11.21362 -11.21292 -11.21157 -11.21151 -11.20210
 Alpha  occ. eigenvalues --   -1.59877  -1.39432  -1.19383  -1.08780  -1.08314
 Alpha  occ. eigenvalues --   -1.04786  -1.03304  -0.95734  -0.95604  -0.86728
 Alpha  occ. eigenvalues --   -0.86185  -0.82451  -0.79381  -0.78131  -0.77488
 Alpha  occ. eigenvalues --   -0.72076  -0.71194  -0.70494  -0.65043  -0.64952
 Alpha  occ. eigenvalues --   -0.64789  -0.62140  -0.60699  -0.59142  -0.57337
 Alpha  occ. eigenvalues --   -0.55290  -0.55006  -0.53115  -0.52883  -0.52370
 Alpha  occ. eigenvalues --   -0.52143  -0.49691  -0.48831  -0.48821  -0.47665
 Alpha  occ. eigenvalues --   -0.46431  -0.45655  -0.45585  -0.44805  -0.43566
 Alpha  occ. eigenvalues --   -0.37364  -0.36388
 Alpha virt. eigenvalues --    0.05029   0.11262   0.16517   0.20579   0.22885
 Alpha virt. eigenvalues --    0.23916   0.25817   0.27161   0.27624   0.27899
 Alpha virt. eigenvalues --    0.29138   0.30381   0.31554   0.31901   0.32383

 Mulliken charges:
               1
     1  C   -0.170570
     2  C   -0.219553
     3  C   -0.170770
     4  C    0.157322
     5  C   -0.170718
     6  C   -0.218712
     7  H    0.225710
     8  H    0.223906
     9  H    0.278017
    10  H    0.275644
    11  H    0.223509
    12  N    0.491174
    13  O   -0.460109
    14  O   -0.463042
    15  C   -0.296037
    16  C   -0.301633
    17  C   -0.476214
    18  H    0.148883
    19  H    0.140620
    20  H    0.150556
    21  H    0.150772
    22  H    0.165761
    23  H    0.152207
    24  H    0.164862
    25  C   -0.297794
    26  C   -0.298908
    27  C   -0.475523
    28  H    0.150760
    29  H    0.149930
    30  H    0.151292
    31  H    0.147953
    32  H    0.155478
    33  H    0.156154
    34  H    0.159076
 Sum of Mulliken charges =  -0.00000

 Dipole moment (field-independent basis, Debye):
    X=             -0.3037    Y=              5.1023    Z=              0.1624  Tot=              5.1139
 Quadrupole moment (field-independent basis, Debye-Ang):
   XX=            -90.6004   YY=            -95.0846   ZZ=            -94.0869
   XY=            -16.6090   XZ=             -2.0366   YZ=             -0.5411

 Normal termination of Gaussian 16 at Thu May  6 04:44:44 2021.
