 Gaussian 16, Revision A.03,
 Gaussian 16:  EM64L-G16RevA.03 25-Dec-2016

 -------------
 #p 6-31g* mp2
 -------------

 ------------------------------------------------------
 Input file generated by CHIRIPA (05-May-2021 14:53:16)
 ------------------------------------------------------
 Symbolic Z-matrix:
 Charge =  0 Multiplicity = 1

                         Standard orientation:
 ---------------------------------------------------------------------
 Center     Atomic      Atomic             Coordinates (Angstroms)
 Number     Number       Type             X           Y           Z
 ---------------------------------------------------------------------
      1          6           0       -2.499297    0.791493    0.193226
      2          6           0       -2.842809    2.220588   -0.228284
      3          6           0       -1.869615    3.254374    0.339141
      4          1           0       -2.495623    0.730375    1.290129
      5          1           0       -1.478166    0.554828   -0.136435
      6          1           0       -3.863493    2.454007    0.100862
      7          1           0       -2.845853    2.278264   -1.324313
      8          1           0       -0.848962    3.049294    0.000305
      9          1           0       -1.872383    3.226035    1.433577
     10          1           0       -2.133804    4.269073    0.025372
     11          6           0       -3.463170   -0.253373   -0.366177
     12          6           0       -3.119657   -1.682468    0.055333
     13          6           0       -4.092852   -2.716255   -0.512092
     14          1           0       -4.484301   -0.016708   -0.036516
     15          1           0       -3.466843   -0.192256   -1.463080
     16          1           0       -3.116613   -1.740145    1.151363
     17          1           0       -2.098974   -1.915888   -0.273813
     18          1           0       -4.090083   -2.687916   -1.606528
     19          1           0       -5.113505   -2.511174   -0.173255
     20          1           0       -3.828663   -3.730954   -0.198323
     21          6           0        2.240319   -2.710976    0.390321
     22          6           0        2.943777   -2.169198   -0.690485
     23          6           0        2.999689   -0.785063   -0.879146
     24          6           0        2.337670    0.031562    0.036355
     25          6           0        1.628577   -0.477983    1.123019
     26          6           0        1.586118   -1.865131    1.292036
     27          1           0        2.202111   -3.787376    0.529247
     28          1           0        3.452784   -2.823677   -1.392350
     29          1           0        3.537028   -0.338952   -1.707198
     30          1           0        1.131134    0.199881    1.806006
     31          1           0        1.039043   -2.283087    2.132314
     32          7           0        2.389741    1.498479   -0.152973
     33          8           0        1.798091    2.196444    0.667657
     34          8           0        3.021218    1.922507   -1.118413
 ---------------------------------------------------------------------

 SCF Done:  E(RHF) =  -669.536440181     A.U. after   15 cycles
 E2 =    -0.2092135016D+01 EUMP2 =    -0.67162857519656D+03

 The electronic state is 1-A.
 Alpha  occ. eigenvalues --  -20.60952 -20.60942 -15.85970 -11.31290 -11.27850
 Alpha  occ. eigenvalues --  -11.27842 -11.27585 -11.26854 -11.26843 -11.21751
 Alpha  occ. eigenvalues --  -11.21328 -11.21253 -11.21178 -11.21067 -11.20048
 Alpha  occ. eigenvalues --   -1.60008  -1.39563  -1.19457  -1.08861  -1.08268
 Alpha  occ. eigenvalues --   -1.04846  -1.03269  -0.95715  -0.95675  -0.86701
 Alpha  occ. eigenvalues --   -0.86245  -0.82533  -0.79372  -0.78062  -0.77576
 Alpha  occ. eigenvalues --   -0.72191  -0.71324  -0.70557  -0.65110  -0.64903
 Alpha  occ. eigenvalues --   -0.64842  -0.62189  -0.60663  -0.59140  -0.57295
 Alpha  occ. eigenvalues --   -0.55351  -0.54963  -0.53185  -0.52934  -0.52378
 Alpha  occ. eigenvalues --   -0.52094  -0.49638  -0.48957  -0.48943  -0.47664
 Alpha  occ. eigenvalues --   -0.46437  -0.45650  -0.45544  -0.44774  -0.43543
 Alpha  occ. eigenvalues --   -0.37432  -0.36432
 Alpha virt. eigenvalues --    0.04902   0.11148   0.16366   0.21236   0.22953
 Alpha virt. eigenvalues --    0.24478   0.26639   0.26722   0.27775   0.28255
 Alpha virt. eigenvalues --    0.28683   0.30762   0.31733   0.31789   0.32245

 Mulliken charges:
               1
     1  C   -0.298290
     2  C   -0.300197
     3  C   -0.482237
     4  H    0.145186
     5  H    0.148406
     6  H    0.148782
     7  H    0.151025
     8  H    0.176617
     9  H    0.151295
    10  H    0.157861
    11  C   -0.297553
    12  C   -0.300184
    13  C   -0.475143
    14  H    0.149803
    15  H    0.150406
    16  H    0.147967
    17  H    0.150558
    18  H    0.156032
    19  H    0.156285
    20  H    0.157010
    21  C   -0.170863
    22  C   -0.218602
    23  C   -0.170954
    24  C    0.157036
    25  C   -0.169749
    26  C   -0.218413
    27  H    0.226185
    28  H    0.223809
    29  H    0.275760
    30  H    0.277348
    31  H    0.224669
    32  N    0.487561
    33  O   -0.458475
    34  O   -0.458941
 Sum of Mulliken charges =  -0.00000

 Dipole moment (field-independent basis, Debye):
    X=              0.0179    Y=             -5.1052    Z=              0.6423  Tot=              5.1455
 Quadrupole moment (field-independent basis, Debye-Ang):
   XX=            -95.0462   YY=            -96.2827   ZZ=            -91.0598
   XY=            -13.1755   XZ=             -1.6918   YZ=              0.1535

 Normal termination of Gaussian 16 at Wed May  5 23:36:18 2021.
