 Gaussian 16, Revision A.03,
 Gaussian 16:  EM64L-G16RevA.03 25-Dec-2016

 -------------
 #p 6-31g* mp2
 -------------

 ------------------------------------------------------
 Input file generated by CHIRIPA (05-May-2021 14:53:14)
 ------------------------------------------------------
 Symbolic Z-matrix:
 Charge =  0 Multiplicity = 1

                         Standard orientation:
 ---------------------------------------------------------------------
 Center     Atomic      Atomic             Coordinates (Angstroms)
 Number     Number       Type             X           Y           Z
 ---------------------------------------------------------------------
      1          6           0        2.860687    0.969311    0.052773
      2          6           0        3.137886    2.328162    0.696721
      3          6           0        1.893002    3.212916    0.769291
      4          1           0        2.460104    1.124720   -0.958329
      5          1           0        2.076182    0.453879    0.623979
      6          1           0        3.922612    2.840293    0.125281
      7          1           0        3.538036    2.169496    1.706336
      8          1           0        1.108032    2.725977    1.356926
      9          1           0        1.494794    3.400585   -0.233112
     10          1           0        2.113821    4.179370    1.233042
     11          6           0        4.095545    0.073486   -0.026933
     12          6           0        3.818345   -1.285365   -0.670881
     13          6           0        5.063230   -2.170119   -0.743451
     14          1           0        4.880050    0.588919   -0.598139
     15          1           0        4.496127   -0.081923    0.984169
     16          1           0        3.418196   -1.126699   -1.680496
     17          1           0        3.033619   -1.797496   -0.099441
     18          1           0        5.461438   -2.357788    0.258952
     19          1           0        5.848199   -1.683180   -1.331086
     20          1           0        4.842410   -3.136573   -1.207202
     21          6           0       -0.772633   -1.814957    0.766373
     22          6           0       -2.041345   -2.005589    1.323646
     23          6           0       -3.126070   -1.231409    0.901073
     24          6           0       -2.905279   -0.271260   -0.085160
     25          6           0       -1.653234   -0.057575   -0.659628
     26          6           0       -0.582962   -0.843272   -0.221742
     27          1           0        0.064393   -2.420832    1.100586
     28          1           0       -2.191589   -2.759475    2.091191
     29          1           0       -4.118856   -1.358029    1.315512
     30          1           0       -1.534471    0.701699   -1.423052
     31          1           0        0.401226   -0.693028   -0.656307
     32          7           0       -4.045978    0.554426   -0.540624
     33          8           0       -3.825284    1.393765   -1.410935
     34          8           0       -5.139154    0.346625   -0.018682
 ---------------------------------------------------------------------

 SCF Done:  E(RHF) =  -669.535231105     A.U. after   15 cycles
 E2 =    -0.2092494716D+01 EUMP2 =    -0.67162772582118D+03

 The electronic state is 1-A.
 Alpha  occ. eigenvalues --  -20.60711 -20.60706 -15.85762 -11.31121 -11.27685
 Alpha  occ. eigenvalues --  -11.27657 -11.27419 -11.26711 -11.26594 -11.22712
 Alpha  occ. eigenvalues --  -11.22347 -11.22269 -11.22234 -11.21925 -11.21530
 Alpha  occ. eigenvalues --   -1.59786  -1.39340  -1.19285  -1.09335  -1.08682
 Alpha  occ. eigenvalues --   -1.04679  -1.04327  -0.96752  -0.95522  -0.87767
 Alpha  occ. eigenvalues --   -0.86085  -0.82353  -0.80419  -0.79215  -0.77378
 Alpha  occ. eigenvalues --   -0.71982  -0.71109  -0.70400  -0.65975  -0.64931
 Alpha  occ. eigenvalues --   -0.64668  -0.62035  -0.61718  -0.60136  -0.58376
 Alpha  occ. eigenvalues --   -0.56025  -0.55190  -0.53433  -0.53248  -0.53003
 Alpha  occ. eigenvalues --   -0.52710  -0.50690  -0.48746  -0.48738  -0.48721
 Alpha  occ. eigenvalues --   -0.47461  -0.46643  -0.46590  -0.44747  -0.44602
 Alpha  occ. eigenvalues --   -0.37265  -0.36262
 Alpha virt. eigenvalues --    0.05123   0.11260   0.16603   0.19545   0.22614
 Alpha virt. eigenvalues --    0.23415   0.24612   0.25214   0.27157   0.28215
 Alpha virt. eigenvalues --    0.29319   0.30551   0.31106   0.31172   0.31544

 Mulliken charges:
               1
     1  C   -0.305830
     2  C   -0.299510
     3  C   -0.477330
     4  H    0.146341
     5  H    0.148907
     6  H    0.154439
     7  H    0.153642
     8  H    0.157432
     9  H    0.155725
    10  H    0.163837
    11  C   -0.297359
    12  C   -0.302244
    13  C   -0.475948
    14  H    0.153879
    15  H    0.152085
    16  H    0.152395
    17  H    0.142254
    18  H    0.157004
    19  H    0.159159
    20  H    0.161852
    21  C   -0.175011
    22  C   -0.218162
    23  C   -0.171458
    24  C    0.158797
    25  C   -0.173606
    26  C   -0.222487
    27  H    0.225318
    28  H    0.222972
    29  H    0.275270
    30  H    0.275425
    31  H    0.235297
    32  N    0.488066
    33  O   -0.460449
    34  O   -0.460705
 Sum of Mulliken charges =  -0.00000

 Dipole moment (field-independent basis, Debye):
    X=              4.2406    Y=             -2.8058    Z=              1.6186  Tot=              5.3362
 Quadrupole moment (field-independent basis, Debye-Ang):
   XX=           -116.4692   YY=            -92.7033   ZZ=            -92.6196
   XY=              9.8417   XZ=             -7.3855   YZ=             -2.3314

 Normal termination of Gaussian 16 at Wed May  5 20:12:33 2021.
