 Gaussian 16, Revision A.03,
 Gaussian 16:  EM64L-G16RevA.03 25-Dec-2016

 -------------
 #p 6-31g* mp2
 -------------

 ------------------------------------------------------
 Input file generated by CHIRIPA (05-May-2021 14:55:20)
 ------------------------------------------------------
 Symbolic Z-matrix:
 Charge =  0 Multiplicity = 1

                         Standard orientation:
 ---------------------------------------------------------------------
 Center     Atomic      Atomic             Coordinates (Angstroms)
 Number     Number       Type             X           Y           Z
 ---------------------------------------------------------------------
      1          6           0        3.941246   -1.945120    1.101363
      2          6           0        4.695824   -0.884866    0.588534
      3          6           0        4.085030    0.122252   -0.164588
      4          6           0        2.711427    0.037266   -0.386582
      5          6           0        1.932510   -1.006315    0.110929
      6          6           0        2.564425   -2.002360    0.861348
      7          1           0        4.423929   -2.723172    1.685357
      8          1           0        5.765252   -0.837827    0.773348
      9          1           0        4.645277    0.954338   -0.573457
     10          1           0        0.868247   -1.025960   -0.090007
     11          1           0        1.975902   -2.824585    1.258375
     12          7           0        2.053627    1.097595   -1.182447
     13          8           0        0.841965    0.999719   -1.363922
     14          8           0        2.762161    2.006479   -1.609702
     15          6           0       -3.686446   -0.532840    0.052957
     16          6           0       -5.068268   -0.806125   -0.541909
     17          6           0       -5.206962   -2.228332   -1.085862
     18          1           0       -2.921849   -0.709025   -0.716001
     19          1           0       -3.492203   -1.254918    0.858108
     20          1           0       -5.260417   -0.082867   -1.344775
     21          1           0       -5.829677   -0.629084    0.228499
     22          1           0       -5.041489   -2.962676   -0.290904
     23          1           0       -4.468995   -2.413356   -1.873117
     24          1           0       -6.202391   -2.402040   -1.506348
     25          6           0       -3.532347    0.884812    0.600902
     26          6           0       -2.150523    1.158097    1.195769
     27          6           0       -2.011829    2.580305    1.739722
     28          1           0       -3.726589    1.606891   -0.204249
     29          1           0       -4.296942    1.060997    1.369861
     30          1           0       -1.389115    0.981056    0.425360
     31          1           0       -1.958374    0.434840    1.998635
     32          1           0       -2.749796    2.765329    2.526977
     33          1           0       -2.177303    3.314649    0.944765
     34          1           0       -1.016402    2.754014    2.160208
 ---------------------------------------------------------------------

 SCF Done:  E(RHF) =  -669.536380206     A.U. after   15 cycles
 E2 =    -0.2091345338D+01 EUMP2 =    -0.67162772554410D+03

 The electronic state is 1-A.
 Alpha  occ. eigenvalues --  -20.60950 -20.60936 -15.85974 -11.31263 -11.27829
 Alpha  occ. eigenvalues --  -11.27816 -11.27565 -11.26832 -11.26819 -11.21300
 Alpha  occ. eigenvalues --  -11.21032 -11.20904 -11.20870 -11.20830 -11.20429
 Alpha  occ. eigenvalues --   -1.60002  -1.39561  -1.19433  -1.08844  -1.07974
 Alpha  occ. eigenvalues --   -1.04825  -1.03064  -0.95691  -0.95535  -0.86554
 Alpha  occ. eigenvalues --   -0.86228  -0.82527  -0.79151  -0.77823  -0.77550
 Alpha  occ. eigenvalues --   -0.72203  -0.71312  -0.70543  -0.65094  -0.64831
 Alpha  occ. eigenvalues --   -0.64581  -0.62173  -0.60438  -0.58918  -0.57149
 Alpha  occ. eigenvalues --   -0.55334  -0.54817  -0.53159  -0.52918  -0.52234
 Alpha  occ. eigenvalues --   -0.51968  -0.49478  -0.48971  -0.48948  -0.47469
 Alpha  occ. eigenvalues --   -0.46179  -0.45386  -0.45294  -0.44787  -0.43330
 Alpha  occ. eigenvalues --   -0.37413  -0.36424
 Alpha virt. eigenvalues --    0.04912   0.11218   0.16392   0.21028   0.23241
 Alpha virt. eigenvalues --    0.24677   0.25790   0.27244   0.27621   0.28357
 Alpha virt. eigenvalues --    0.29145   0.30914   0.31700   0.31947   0.32466

 Mulliken charges:
               1
     1  C   -0.170476
     2  C   -0.218680
     3  C   -0.170836
     4  C    0.157822
     5  C   -0.170856
     6  C   -0.219047
     7  H    0.225915
     8  H    0.223689
     9  H    0.275659
    10  H    0.277715
    11  H    0.224156
    12  N    0.490311
    13  O   -0.462929
    14  O   -0.458713
    15  C   -0.299491
    16  C   -0.299218
    17  C   -0.475663
    18  H    0.152658
    19  H    0.143683
    20  H    0.154143
    21  H    0.150929
    22  H    0.152425
    23  H    0.155409
    24  H    0.159822
    25  C   -0.296767
    26  C   -0.313762
    27  C   -0.473540
    28  H    0.153446
    29  H    0.146512
    30  H    0.175227
    31  H    0.141884
    32  H    0.150659
    33  H    0.159973
    34  H    0.157941
 Sum of Mulliken charges =  -0.00000

 Dipole moment (field-independent basis, Debye):
    X=              2.4880    Y=             -3.6582    Z=              2.6612  Tot=              5.1629
 Quadrupole moment (field-independent basis, Debye-Ang):
   XX=            -78.6527   YY=            -95.3997   ZZ=            -97.3512
   XY=             -8.2667   XZ=              6.2725   YZ=              0.2143

 Normal termination of Gaussian 16 at Thu May  6 02:56:34 2021.
