 Gaussian 16, Revision A.03,
 Gaussian 16:  EM64L-G16RevA.03 25-Dec-2016

 -------------
 #p 6-31g* mp2
 -------------

 ------------------------------------------------------
 Input file generated by CHIRIPA (05-May-2021 14:51:10)
 ------------------------------------------------------
 Symbolic Z-matrix:
 Charge =  0 Multiplicity = 1

                         Standard orientation:
 ---------------------------------------------------------------------
 Center     Atomic      Atomic             Coordinates (Angstroms)
 Number     Number       Type             X           Y           Z
 ---------------------------------------------------------------------
      1          6           0        3.562417   -0.419520    0.017487
      2          6           0        4.550710   -1.298957   -0.749230
      3          6           0        4.542391   -2.751711   -0.272541
      4          1           0        3.802908   -0.456773    1.088804
      5          1           0        2.551374   -0.836066   -0.090569
      6          1           0        5.559391   -0.880098   -0.640904
      7          1           0        4.307956   -1.259455   -1.818868
      8          1           0        3.547722   -3.192074   -0.396299
      9          1           0        4.806268   -2.810562    0.788357
     10          1           0        5.256115   -3.362577   -0.834056
     11          6           0        3.559132    1.035601   -0.447637
     12          6           0        2.570840    1.915038    0.319079
     13          6           0        2.579159    3.367792   -0.157609
     14          1           0        4.570176    1.452147   -0.339581
     15          1           0        3.318642    1.072854   -1.518954
     16          1           0        2.813593    1.875536    1.388718
     17          1           0        1.562158    1.496179    0.210754
     18          1           0        2.315281    3.426643   -1.218508
     19          1           0        3.573827    3.808155   -0.033851
     20          1           0        1.865434    3.978658    0.403906
     21          6           0       -4.129667   -0.536832   -0.240390
     22          6           0       -5.353118    0.378877   -0.189131
     23          6           0       -6.482750   -0.091983   -1.105655
     24          1           0       -3.764862   -0.593183   -1.275130
     25          1           0       -4.430745   -1.555497    0.040800
     26          1           0       -5.049547    1.395802   -0.468994
     27          1           0       -5.714936    0.433206    0.845640
     28          1           0       -6.813703   -1.096885   -0.824154
     29          1           0       -6.144532   -0.128819   -2.146258
     30          1           0       -7.347374    0.577014   -1.053426
     31          6           0       -2.991883   -0.079249    0.670540
     32          6           0       -1.768431   -0.994958    0.619281
     33          6           0       -0.638799   -0.524098    1.535806
     34          1           0       -2.690804    0.939417    0.389350
     35          1           0       -3.356687   -0.022899    1.705281
     36          1           0       -1.406612   -1.049286   -0.415490
     37          1           0       -2.072003   -2.011883    0.899144
     38          1           0       -0.977017   -0.487262    2.576408
     39          1           0       -0.307846    0.480803    1.254304
     40          1           0        0.225825   -1.193095    1.483577
 ---------------------------------------------------------------------

 SCF Done:  E(RHF) =  -470.733075172     A.U. after   11 cycles
 E2 =    -0.1582946280D+01 EUMP2 =    -0.47231602145175D+03

 The electronic state is 1-A.
 Alpha  occ. eigenvalues --  -11.21618 -11.21612 -11.21590 -11.21551 -11.21420
 Alpha  occ. eigenvalues --  -11.21383 -11.21361 -11.21323 -11.21080 -11.21069
 Alpha  occ. eigenvalues --  -11.21063 -11.21032  -1.08448  -1.08408  -1.03548
 Alpha  occ. eigenvalues --   -1.03507  -0.95988  -0.95966  -0.87014  -0.86974
 Alpha  occ. eigenvalues --   -0.79655  -0.79535  -0.78279  -0.78197  -0.65130
 Alpha  occ. eigenvalues --   -0.64999  -0.61039  -0.60831  -0.59362  -0.59335
 Alpha  occ. eigenvalues --   -0.57665  -0.57511  -0.55302  -0.55242  -0.52726
 Alpha  occ. eigenvalues --   -0.52622  -0.52473  -0.52329  -0.50037  -0.49849
 Alpha  occ. eigenvalues --   -0.48043  -0.47773  -0.46785  -0.46481  -0.45842
 Alpha  occ. eigenvalues --   -0.45765  -0.45726  -0.45521  -0.43792  -0.43748
 Alpha virt. eigenvalues --    0.21303   0.23155   0.23835   0.24121   0.26234
 Alpha virt. eigenvalues --    0.26817   0.26939   0.27237   0.27931   0.29210
 Alpha virt. eigenvalues --    0.30063   0.31568   0.31704   0.31919   0.32087

 Mulliken charges:
               1
     1  C   -0.301280
     2  C   -0.299546
     3  C   -0.475714
     4  H    0.149757
     5  H    0.152831
     6  H    0.151955
     7  H    0.151762
     8  H    0.154890
     9  H    0.155211
    10  H    0.160279
    11  C   -0.297804
    12  C   -0.305813
    13  C   -0.475421
    14  H    0.149438
    15  H    0.149105
    16  H    0.152183
    17  H    0.158479
    18  H    0.154713
    19  H    0.155244
    20  H    0.159905
    21  C   -0.298263
    22  C   -0.299677
    23  C   -0.475712
    24  H    0.149502
    25  H    0.149595
    26  H    0.151946
    27  H    0.152001
    28  H    0.155207
    29  H    0.155149
    30  H    0.160305
    31  C   -0.298277
    32  C   -0.300064
    33  C   -0.482546
    34  H    0.149377
    35  H    0.149870
    36  H    0.151044
    37  H    0.152079
    38  H    0.155200
    39  H    0.160366
    40  H    0.162721
 Sum of Mulliken charges =  -0.00000

 Dipole moment (field-independent basis, Debye):
    X=             -0.0043    Y=             -0.0016    Z=              0.0170  Tot=              0.0176
 Quadrupole moment (field-independent basis, Debye-Ang):
   XX=            -84.9837   YY=            -85.7171   ZZ=            -84.1406
   XY=              0.2880   XZ=             -0.3538   YZ=             -0.1530

 Normal termination of Gaussian 16 at Thu May  6 03:46:48 2021.
