 Gaussian 16, Revision A.03,
 Gaussian 16:  EM64L-G16RevA.03 25-Dec-2016

 -------------
 #p 6-31g* mp2
 -------------

 ------------------------------------------------------
 Input file generated by CHIRIPA (05-May-2021 14:57:23)
 ------------------------------------------------------
 Symbolic Z-matrix:
 Charge =  0 Multiplicity = 1

                         Standard orientation:
 ---------------------------------------------------------------------
 Center     Atomic      Atomic             Coordinates (Angstroms)
 Number     Number       Type             X           Y           Z
 ---------------------------------------------------------------------
      1          6           0        2.891248    2.349409    0.656490
      2          6           0        1.996072    1.384826    0.182401
      3          6           0        2.460043    0.143343   -0.262568
      4          6           0        3.831790   -0.101044   -0.219266
      5          6           0        4.748732    0.839501    0.247514
      6          6           0        4.262304    2.074153    0.687479
      7          1           0        2.522101    3.311170    1.000209
      8          1           0        0.930762    1.595832    0.157186
      9          1           0        1.789136   -0.621487   -0.634504
     10          1           0        5.805102    0.600061    0.260538
     11          1           0        4.959827    2.821365    1.055148
     12          7           0        4.334863   -1.411731   -0.687686
     13          8           0        5.548088   -1.602470   -0.639311
     14          8           0        3.506421   -2.223490   -1.094339
     15          6           0       -5.435304    0.657320   -1.568332
     16          6           0       -4.152381    1.214333   -1.549168
     17          6           0       -3.209880    0.794059   -0.605975
     18          6           0       -3.585841   -0.189636    0.307419
     19          6           0       -4.856120   -0.763779    0.313783
     20          6           0       -5.782466   -0.328220   -0.638434
     21          1           0       -6.161186    0.989736   -2.304531
     22          1           0       -3.879988    1.979881   -2.270127
     23          1           0       -2.209689    1.208357   -0.568677
     24          1           0       -5.098346   -1.525185    1.045224
     25          1           0       -6.778067   -0.762578   -0.650963
     26          7           0       -2.596608   -0.642652    1.310712
     27          8           0       -2.952572   -1.510749    2.104647
     28          8           0       -1.484015   -0.121049    1.284160
 ---------------------------------------------------------------------

 SCF Done:  E(RHF) =  -868.338662258     A.U. after   16 cycles
 E2 =    -0.2598960201D+01 EUMP2 =    -0.87093762245845D+03

 The electronic state is 1-A.
 Alpha  occ. eigenvalues --  -20.61479 -20.61415 -20.60184 -20.60173 -15.86495
 Alpha  occ. eigenvalues --  -15.85230 -11.31756 -11.30503 -11.28382 -11.28259
 Alpha  occ. eigenvalues --  -11.27994 -11.27312 -11.27252 -11.27100 -11.26995
 Alpha  occ. eigenvalues --  -11.26818 -11.26127 -11.25991  -1.60506  -1.59257
 Alpha  occ. eigenvalues --   -1.40072  -1.38813  -1.19908  -1.18669  -1.09312
 Alpha  occ. eigenvalues --   -1.08093  -1.05301  -1.04045  -0.96173  -0.94941
 Alpha  occ. eigenvalues --   -0.86703  -0.85461  -0.83018  -0.81763  -0.78091
 Alpha  occ. eigenvalues --   -0.76814  -0.72721  -0.71817  -0.71454  -0.71018
 Alpha  occ. eigenvalues --   -0.70576  -0.69801  -0.65567  -0.65301  -0.64323
 Alpha  occ. eigenvalues --   -0.64049  -0.62665  -0.61386  -0.55786  -0.54594
 Alpha  occ. eigenvalues --   -0.53623  -0.53396  -0.52394  -0.52138  -0.49481
 Alpha  occ. eigenvalues --   -0.49437  -0.48211  -0.48202  -0.45499  -0.44238
 Alpha  occ. eigenvalues --   -0.37863  -0.36895  -0.36670  -0.35633
 Alpha virt. eigenvalues --    0.04456   0.05701   0.10761   0.12007   0.15980
 Alpha virt. eigenvalues --    0.17206   0.19797   0.22018   0.25026   0.27185
 Alpha virt. eigenvalues --    0.28850   0.28947   0.30209   0.31215   0.32776

 Mulliken charges:
               1
     1  C   -0.171840
     2  C   -0.217369
     3  C   -0.169007
     4  C    0.157832
     5  C   -0.172089
     6  C   -0.218622
     7  H    0.222881
     8  H    0.230040
     9  H    0.277786
    10  H    0.273367
    11  H    0.220628
    12  N    0.488216
    13  O   -0.462881
    14  O   -0.460382
    15  C   -0.170040
    16  C   -0.218261
    17  C   -0.170202
    18  C    0.159286
    19  C   -0.169930
    20  C   -0.218072
    21  H    0.227748
    22  H    0.224181
    23  H    0.267857
    24  H    0.277581
    25  H    0.225860
    26  N    0.491568
    27  O   -0.453883
    28  O   -0.472252
 Sum of Mulliken charges =  -0.00000

 Dipole moment (field-independent basis, Debye):
    X=             -5.6965    Y=              6.0993    Z=             -1.8513  Tot=              8.5486
 Quadrupole moment (field-independent basis, Debye-Ang):
   XX=            -86.7268   YY=           -105.1685   ZZ=           -108.1164
   XY=             16.9574   XZ=             18.3909   YZ=             -1.2448

 Normal termination of Gaussian 16 at Fri May  7 11:04:28 2021.
