 Gaussian 16, Revision A.03,
 Gaussian 16:  EM64L-G16RevA.03 25-Dec-2016

 -------------
 #p 6-31g* mp2
 -------------

 ------------------------------------------------------
 Input file generated by CHIRIPA (05-May-2021 14:55:19)
 ------------------------------------------------------
 Symbolic Z-matrix:
 Charge =  0 Multiplicity = 1

                         Standard orientation:
 ---------------------------------------------------------------------
 Center     Atomic      Atomic             Coordinates (Angstroms)
 Number     Number       Type             X           Y           Z
 ---------------------------------------------------------------------
      1          6           0        2.139650    1.820447   -0.158434
      2          6           0        1.762327    0.545408    0.275644
      3          6           0        2.697670   -0.492328    0.328409
      4          6           0        4.007602   -0.218610   -0.062035
      5          6           0        4.414274    1.041108   -0.499094
      6          6           0        3.462088    2.063798   -0.543739
      7          1           0        1.406511    2.620742   -0.196269
      8          1           0        0.736012    0.353527    0.575483
      9          1           0        2.432679   -1.488805    0.660421
     10          1           0        5.444807    1.201917   -0.791599
     11          1           0        3.757965    3.053027   -0.881273
     12          7           0        5.006723   -1.309251   -0.010474
     13          8           0        6.154484   -1.042382   -0.359850
     14          8           0        4.623155   -2.410313    0.378339
     15          6           0       -4.419779    0.623028    0.015491
     16          6           0       -3.156566    0.440872    0.857570
     17          6           0       -2.167595    1.595875    0.697265
     18          1           0       -4.137091    0.721543   -1.041546
     19          1           0       -4.907407    1.566363    0.297863
     20          1           0       -2.672212   -0.502516    0.574664
     21          1           0       -3.442307    0.342587    1.912704
     22          1           0       -2.628400    2.542212    0.998439
     23          1           0       -1.853930    1.692307   -0.347204
     24          1           0       -1.271927    1.445173    1.307942
     25          6           0       -5.418133   -0.523549    0.165074
     26          6           0       -6.681346   -0.341393   -0.677005
     27          6           0       -7.670317   -1.496396   -0.516699
     28          1           0       -4.930506   -1.466885   -0.117297
     29          1           0       -5.700821   -0.622064    1.222112
     30          1           0       -6.395605   -0.243108   -1.732139
     31          1           0       -7.165701    0.601995   -0.394099
     32          1           0       -7.983983   -1.592828    0.527769
     33          1           0       -7.209513   -2.442733   -0.817873
     34          1           0       -8.565986   -1.345694   -1.127376
 ---------------------------------------------------------------------

 SCF Done:  E(RHF) =  -669.535587069     A.U. after   15 cycles
 E2 =    -0.2090910383D+01 EUMP2 =    -0.67162649745236D+03

 The electronic state is 1-A.
 Alpha  occ. eigenvalues --  -20.60715 -20.60709 -15.85767 -11.31117 -11.27688
 Alpha  occ. eigenvalues --  -11.27675 -11.27405 -11.26698 -11.26639 -11.22570
 Alpha  occ. eigenvalues --  -11.22360 -11.22118 -11.22056 -11.21928 -11.21431
 Alpha  occ. eigenvalues --   -1.59790  -1.39344  -1.19285  -1.09128  -1.08680
 Alpha  occ. eigenvalues --   -1.04688  -1.04275  -0.96747  -0.95518  -0.87774
 Alpha  occ. eigenvalues --   -0.86081  -0.82352  -0.80350  -0.78886  -0.77407
 Alpha  occ. eigenvalues --   -0.71986  -0.71113  -0.70387  -0.65757  -0.64935
 Alpha  occ. eigenvalues --   -0.64727  -0.62101  -0.61640  -0.60128  -0.58327
 Alpha  occ. eigenvalues --   -0.56017  -0.55175  -0.53532  -0.53196  -0.53015
 Alpha  occ. eigenvalues --   -0.52664  -0.50667  -0.48752  -0.48742  -0.48645
 Alpha  occ. eigenvalues --   -0.47360  -0.46441  -0.46330  -0.44753  -0.44512
 Alpha  occ. eigenvalues --   -0.37263  -0.36292
 Alpha virt. eigenvalues --    0.05128   0.11328   0.16626   0.19780   0.22477
 Alpha virt. eigenvalues --    0.23717   0.25898   0.26296   0.26454   0.27811
 Alpha virt. eigenvalues --    0.29060   0.29835   0.30800   0.31389   0.31781

 Mulliken charges:
               1
     1  C   -0.173563
     2  C   -0.224693
     3  C   -0.172033
     4  C    0.158842
     5  C   -0.171331
     6  C   -0.218571
     7  H    0.227105
     8  H    0.232335
     9  H    0.275536
    10  H    0.275303
    11  H    0.223124
    12  N    0.487997
    13  O   -0.460667
    14  O   -0.460638
    15  C   -0.298996
    16  C   -0.300692
    17  C   -0.483766
    18  H    0.150627
    19  H    0.151118
    20  H    0.151754
    21  H    0.155981
    22  H    0.161394
    23  H    0.154762
    24  H    0.154266
    25  C   -0.299062
    26  C   -0.300216
    27  C   -0.476140
    28  H    0.150721
    29  H    0.150915
    30  H    0.152554
    31  H    0.152436
    32  H    0.155863
    33  H    0.156110
    34  H    0.161627
 Sum of Mulliken charges =  -0.00000

 Dipole moment (field-independent basis, Debye):
    X=             -3.7948    Y=              3.8501    Z=             -0.1858  Tot=              5.4091
 Quadrupole moment (field-independent basis, Debye-Ang):
   XX=           -120.3925   YY=            -95.1564   ZZ=            -94.3507
   XY=             18.0062   XZ=             -2.2962   YZ=             -1.0540

 Normal termination of Gaussian 16 at Thu May  6 01:18:25 2021.
