 Gaussian 16, Revision A.03,
 Gaussian 16:  EM64L-G16RevA.03 25-Dec-2016

 -------------
 #p 6-31g* mp2
 -------------

 ------------------------------------------------------
 Input file generated by CHIRIPA (05-May-2021 14:57:26)
 ------------------------------------------------------
 Symbolic Z-matrix:
 Charge =  0 Multiplicity = 1

                         Standard orientation:
 ---------------------------------------------------------------------
 Center     Atomic      Atomic             Coordinates (Angstroms)
 Number     Number       Type             X           Y           Z
 ---------------------------------------------------------------------
      1          6           0       -4.554836    0.393322    0.549132
      2          6           0       -4.065633   -0.843024    0.983468
      3          6           0       -2.851107   -1.336414    0.497626
      4          6           0       -2.148635   -0.563723   -0.425830
      5          6           0       -2.609696    0.671753   -0.877837
      6          6           0       -3.826591    1.145439   -0.378499
      7          1           0       -5.499229    0.768946    0.931787
      8          1           0       -4.629062   -1.429287    1.703808
      9          1           0       -2.449137   -2.290311    0.816874
     10          1           0       -2.025533    1.233424   -1.596654
     11          1           0       -4.204076    2.105942   -0.717593
     12          7           0       -0.861618   -1.075623   -0.947313
     13          8           0       -0.261743   -0.375678   -1.760249
     14          8           0       -0.477098   -2.167102   -0.533241
     15          6           0        3.901318   -1.511371    0.167888
     16          6           0        4.007733   -0.462414   -0.751289
     17          6           0        3.159418    0.645539   -0.665570
     18          6           0        2.211815    0.671812    0.356512
     19          6           0        2.081182   -0.357608    1.287382
     20          6           0        2.940077   -1.455719    1.182500
     21          1           0        4.564419   -2.368233    0.093856
     22          1           0        4.753310   -0.502935   -1.540286
     23          1           0        3.220086    1.471446   -1.363865
     24          1           0        1.328105   -0.288779    2.062982
     25          1           0        2.855158   -2.268903    1.897739
     26          7           0        1.308142    1.839543    0.457402
     27          8           0        0.481617    1.838683    1.367069
     28          8           0        1.443477    2.733559   -0.375098
 ---------------------------------------------------------------------

 SCF Done:  E(RHF) =  -868.339648382     A.U. after   16 cycles
 E2 =    -0.2602146134D+01 EUMP2 =    -0.87094179451622D+03

 The electronic state is 1-A.
 Alpha  occ. eigenvalues --  -20.60714 -20.60706 -20.60087 -20.60063 -15.85701
 Alpha  occ. eigenvalues --  -15.85100 -11.30735 -11.30052 -11.27355 -11.27217
 Alpha  occ. eigenvalues --  -11.27011 -11.26648 -11.26574 -11.26325 -11.26302
 Alpha  occ. eigenvalues --  -11.26187 -11.25596 -11.25576  -1.59768  -1.59145
 Alpha  occ. eigenvalues --   -1.39336  -1.38716  -1.18889  -1.18195  -1.08364
 Alpha  occ. eigenvalues --   -1.07692  -1.04252  -1.03577  -0.95253  -0.94600
 Alpha  occ. eigenvalues --   -0.85682  -0.85026  -0.82108  -0.81470  -0.77184
 Alpha  occ. eigenvalues --   -0.76550  -0.71973  -0.71367  -0.71288  -0.70208
 Alpha  occ. eigenvalues --   -0.70036  -0.69395  -0.64567  -0.64283  -0.63903
 Alpha  occ. eigenvalues --   -0.63652  -0.61618  -0.60984  -0.54809  -0.54159
 Alpha  occ. eigenvalues --   -0.52611  -0.52366  -0.51843  -0.51733  -0.48729
 Alpha  occ. eigenvalues --   -0.48632  -0.48127  -0.48072  -0.44848  -0.44218
 Alpha  occ. eigenvalues --   -0.36879  -0.36089  -0.35798  -0.35074
 Alpha virt. eigenvalues --    0.05312   0.06017   0.11827   0.12509   0.16881
 Alpha virt. eigenvalues --    0.17583   0.21887   0.22433   0.27811   0.28302
 Alpha virt. eigenvalues --    0.28753   0.29281   0.31364   0.31951   0.32954

 Mulliken charges:
               1
     1  C   -0.169148
     2  C   -0.218366
     3  C   -0.171762
     4  C    0.160194
     5  C   -0.162653
     6  C   -0.216597
     7  H    0.224689
     8  H    0.220763
     9  H    0.270347
    10  H    0.279903
    11  H    0.225090
    12  N    0.486067
    13  O   -0.461878
    14  O   -0.464136
    15  C   -0.167932
    16  C   -0.216536
    17  C   -0.161333
    18  C    0.166145
    19  C   -0.170677
    20  C   -0.208545
    21  H    0.221920
    22  H    0.219642
    23  H    0.272149
    24  H    0.268302
    25  H    0.219309
    26  N    0.488422
    27  O   -0.470740
    28  O   -0.462638
 Sum of Mulliken charges =  -0.00000

 Dipole moment (field-independent basis, Debye):
    X=             -1.4223    Y=             -2.2688    Z=              1.2871  Tot=              2.9710
 Quadrupole moment (field-independent basis, Debye-Ang):
   XX=            -71.3465   YY=           -109.2937   ZZ=           -102.9508
   XY=             -7.6825   XZ=             -4.3552   YZ=             -8.3012

 Normal termination of Gaussian 16 at Fri May  7 12:41:38 2021.
