 Gaussian 16, Revision A.03,
 Gaussian 16:  EM64L-G16RevA.03 25-Dec-2016

 -------------
 #p 6-31g* mp2
 -------------

 ------------------------------------------------------
 Input file generated by CHIRIPA (05-May-2021 14:57:22)
 ------------------------------------------------------
 Symbolic Z-matrix:
 Charge =  0 Multiplicity = 1

                         Standard orientation:
 ---------------------------------------------------------------------
 Center     Atomic      Atomic             Coordinates (Angstroms)
 Number     Number       Type             X           Y           Z
 ---------------------------------------------------------------------
      1          6           0        3.564666   -2.128226    1.253930
      2          6           0        4.728721   -1.355815    1.184085
      3          6           0        4.726825   -0.127592    0.516244
      4          6           0        3.537951    0.299640   -0.073113
      5          6           0        2.361995   -0.447138   -0.020770
      6          6           0        2.387094   -1.672226    0.652341
      7          1           0        3.575151   -3.081122    1.774771
      8          1           0        5.644684   -1.707445    1.650360
      9          1           0        5.613722    0.490496    0.446955
     10          1           0        1.464150   -0.070213   -0.495343
     11          1           0        1.481577   -2.269982    0.704988
     12          7           0        3.523662    1.598246   -0.782915
     13          8           0        2.463402    1.952346   -1.293893
     14          8           0        4.572993    2.237403   -0.814840
     15          6           0       -4.793434    1.631819    1.314812
     16          6           0       -5.496841    0.685757    0.562013
     17          6           0       -4.812916   -0.270500   -0.194538
     18          6           0       -3.419158   -0.251650   -0.175224
     19          6           0       -2.689939    0.677964    0.564607
     20          6           0       -3.394695    1.624915    1.313709
     21          1           0       -5.332813    2.371047    1.899626
     22          1           0       -6.583135    0.688738    0.560981
     23          1           0       -5.332414   -1.014354   -0.786333
     24          1           0       -1.607223    0.649917    0.545740
     25          1           0       -2.845793    2.358439    1.897400
     26          7           0       -2.684093   -1.259069   -0.972208
     27          8           0       -1.456059   -1.221292   -0.938395
     28          8           0       -3.349900   -2.067387   -1.615605
 ---------------------------------------------------------------------

 SCF Done:  E(RHF) =  -868.340046174     A.U. after   16 cycles
 E2 =    -0.2598670153D+01 EUMP2 =    -0.87093871632708D+03

 The electronic state is 1-A.
 Alpha  occ. eigenvalues --  -20.61367 -20.61310 -20.60367 -20.60362 -15.86381
 Alpha  occ. eigenvalues --  -15.85412 -11.31490 -11.30619 -11.28040 -11.28023
 Alpha  occ. eigenvalues --  -11.27720 -11.27224 -11.27043 -11.26992 -11.26969
 Alpha  occ. eigenvalues --  -11.26906 -11.26232 -11.26033  -1.60394  -1.59446
 Alpha  occ. eigenvalues --   -1.39962  -1.39002  -1.19638  -1.18780  -1.09077
 Alpha  occ. eigenvalues --   -1.08216  -1.05003  -1.04132  -0.95956  -0.95070
 Alpha  occ. eigenvalues --   -0.86416  -0.85551  -0.82806  -0.81885  -0.77885
 Alpha  occ. eigenvalues --   -0.76943  -0.72619  -0.71695  -0.71633  -0.70769
 Alpha  occ. eigenvalues --   -0.70749  -0.69887  -0.65298  -0.65003  -0.64422
 Alpha  occ. eigenvalues --   -0.64117  -0.62360  -0.61447  -0.55513  -0.54676
 Alpha  occ. eigenvalues --   -0.53344  -0.53094  -0.52513  -0.52199  -0.49371
 Alpha  occ. eigenvalues --   -0.49321  -0.48395  -0.48379  -0.45418  -0.44442
 Alpha  occ. eigenvalues --   -0.37601  -0.36790  -0.36591  -0.35743
 Alpha virt. eigenvalues --    0.04636   0.05536   0.11064   0.11888   0.16177
 Alpha virt. eigenvalues --    0.17060   0.20597   0.22138   0.25713   0.27440
 Alpha virt. eigenvalues --    0.28432   0.29243   0.30957   0.31538   0.31945

 Mulliken charges:
               1
     1  C   -0.171512
     2  C   -0.219139
     3  C   -0.172073
     4  C    0.158329
     5  C   -0.178931
     6  C   -0.222397
     7  H    0.224125
     8  H    0.220948
     9  H    0.273109
    10  H    0.287690
    11  H    0.234375
    12  N    0.487758
    13  O   -0.461564
    14  O   -0.462747
    15  C   -0.169959
    16  C   -0.218529
    17  C   -0.170603
    18  C    0.158074
    19  C   -0.169163
    20  C   -0.218545
    21  H    0.227311
    22  H    0.224550
    23  H    0.275856
    24  H    0.273709
    25  H    0.226675
    26  N    0.492799
    27  O   -0.474134
    28  O   -0.456014
 Sum of Mulliken charges =  -0.00000

 Dipole moment (field-independent basis, Debye):
    X=             -2.9354    Y=             -1.0544    Z=              5.2998  Tot=              6.1495
 Quadrupole moment (field-independent basis, Debye-Ang):
   XX=            -78.5463   YY=           -109.6648   ZZ=           -106.9330
   XY=            -25.6498   XZ=              2.2202   YZ=              0.8517

 Normal termination of Gaussian 16 at Fri May  7 07:54:28 2021.
