 Gaussian 16, Revision A.03,
 Gaussian 16:  EM64L-G16RevA.03 25-Dec-2016

 -------------
 #p 6-31g* mp2
 -------------

 ------------------------------------------------------
 Input file generated by CHIRIPA (05-May-2021 14:51:10)
 ------------------------------------------------------
 Symbolic Z-matrix:
 Charge =  0 Multiplicity = 1

                         Standard orientation:
 ---------------------------------------------------------------------
 Center     Atomic      Atomic             Coordinates (Angstroms)
 Number     Number       Type             X           Y           Z
 ---------------------------------------------------------------------
      1          6           0       -2.633165   -1.289988    0.322883
      2          6           0       -1.245245   -1.007426    0.898923
      3          6           0       -0.472240   -2.283937    1.231753
      4          1           0       -3.206495   -1.890473    1.042366
      5          1           0       -2.528686   -1.903186   -0.582914
      6          1           0       -1.352227   -0.393783    1.802590
      7          1           0       -0.675219   -0.407382    0.178067
      8          1           0       -0.336085   -2.896778    0.334820
      9          1           0       -1.016940   -2.883102    1.968573
     10          1           0        0.517059   -2.058720    1.642150
     11          6           0       -3.418190   -0.023739   -0.014870
     12          6           0       -4.806109   -0.306302   -0.590910
     13          6           0       -5.579115    0.970209   -0.923740
     14          1           0       -3.522669    0.589458    0.890927
     15          1           0       -2.844859    0.576745   -0.734353
     16          1           0       -5.376135   -0.906346    0.129946
     17          1           0       -4.699127   -0.919944   -1.494577
     18          1           0       -5.034415    1.569374   -1.660560
     19          1           0       -5.715269    1.583050   -0.026807
     20          1           0       -6.568413    0.744993   -1.334137
     21          6           0        3.661970    0.240272   -0.083186
     22          6           0        3.636400   -1.049980   -0.903297
     23          6           0        4.916259   -1.872556   -0.751236
     24          1           0        4.526646    0.844823   -0.389451
     25          1           0        3.814673   -0.009623    0.975884
     26          1           0        3.482407   -0.797810   -1.960327
     27          1           0        2.771575   -1.651441   -0.595178
     28          1           0        5.071979   -2.152824    0.295570
     29          1           0        5.786849   -1.294342   -1.077336
     30          1           0        4.876546   -2.790511   -1.345913
     31          6           0        2.389385    1.073455   -0.224827
     32          6           0        2.414954    2.363707    0.595284
     33          6           0        1.135095    3.186284    0.443223
     34          1           0        2.236682    1.323350   -1.283897
     35          1           0        1.524708    0.468905    0.081438
     36          1           0        3.279779    2.965169    0.287165
     37          1           0        2.568948    2.111538    1.652314
     38          1           0        0.264505    2.608070    0.769323
     39          1           0        0.979376    3.466551   -0.603583
     40          1           0        1.174809    4.104239    1.037900
 ---------------------------------------------------------------------

 SCF Done:  E(RHF) =  -470.733336909     A.U. after   11 cycles
 E2 =    -0.1583409659D+01 EUMP2 =    -0.47231674656820D+03

 The electronic state is 1-A.
 Alpha  occ. eigenvalues --  -11.21660 -11.21614 -11.21579 -11.21574 -11.21437
 Alpha  occ. eigenvalues --  -11.21376 -11.21374 -11.21309 -11.21167 -11.21073
 Alpha  occ. eigenvalues --  -11.21055 -11.21036  -1.08475  -1.08401  -1.03578
 Alpha  occ. eigenvalues --   -1.03503  -0.96026  -0.95951  -0.87039  -0.86969
 Alpha  occ. eigenvalues --   -0.79678  -0.79539  -0.78351  -0.78156  -0.65185
 Alpha  occ. eigenvalues --   -0.64971  -0.60984  -0.60893  -0.59401  -0.59317
 Alpha  occ. eigenvalues --   -0.57667  -0.57539  -0.55326  -0.55220  -0.52726
 Alpha  occ. eigenvalues --   -0.52644  -0.52445  -0.52384  -0.50008  -0.49859
 Alpha  occ. eigenvalues --   -0.48062  -0.47832  -0.46821  -0.46528  -0.46044
 Alpha  occ. eigenvalues --   -0.45769  -0.45724  -0.45291  -0.43823  -0.43759
 Alpha virt. eigenvalues --    0.20392   0.23043   0.23702   0.24232   0.26031
 Alpha virt. eigenvalues --    0.26669   0.26803   0.27219   0.28488   0.29643
 Alpha virt. eigenvalues --    0.30941   0.31253   0.31776   0.31879   0.32392

 Mulliken charges:
               1
     1  C   -0.297514
     2  C   -0.307077
     3  C   -0.477375
     4  H    0.149741
     5  H    0.149805
     6  H    0.151752
     7  H    0.158239
     8  H    0.155897
     9  H    0.155922
    10  H    0.160467
    11  C   -0.298792
    12  C   -0.299678
    13  C   -0.475755
    14  H    0.149495
    15  H    0.150382
    16  H    0.151935
    17  H    0.151997
    18  H    0.155397
    19  H    0.155264
    20  H    0.160268
    21  C   -0.297270
    22  C   -0.301780
    23  C   -0.475546
    24  H    0.149611
    25  H    0.149028
    26  H    0.151570
    27  H    0.153922
    28  H    0.155158
    29  H    0.155111
    30  H    0.160192
    31  C   -0.308679
    32  C   -0.298742
    33  C   -0.477346
    34  H    0.148653
    35  H    0.160520
    36  H    0.151778
    37  H    0.151624
    38  H    0.157040
    39  H    0.154678
    40  H    0.160107
 Sum of Mulliken charges =  -0.00000

 Dipole moment (field-independent basis, Debye):
    X=             -0.0378    Y=             -0.0166    Z=              0.0004  Tot=              0.0413
 Quadrupole moment (field-independent basis, Debye-Ang):
   XX=            -85.7389   YY=            -85.7552   ZZ=            -83.3355
   XY=              1.3612   XZ=             -0.8958   YZ=             -0.1488

 Normal termination of Gaussian 16 at Wed May  5 21:25:59 2021.
