 Gaussian 16, Revision A.03,
 Gaussian 16:  EM64L-G16RevA.03 25-Dec-2016

 -------------
 #p 6-31g* mp2
 -------------

 ------------------------------------------------------
 Input file generated by CHIRIPA (05-May-2021 14:51:09)
 ------------------------------------------------------
 Symbolic Z-matrix:
 Charge =  0 Multiplicity = 1

                         Standard orientation:
 ---------------------------------------------------------------------
 Center     Atomic      Atomic             Coordinates (Angstroms)
 Number     Number       Type             X           Y           Z
 ---------------------------------------------------------------------
      1          6           0        2.315676   -1.479233    0.187464
      2          6           0        0.800401   -1.307073    0.298316
      3          6           0        0.076889   -2.619608    0.600933
      4          1           0        2.538389   -2.212322   -0.599888
      5          1           0        2.699254   -1.902459    1.126156
      6          1           0        0.419980   -0.883007   -0.639801
      7          1           0        0.581276   -0.574166    1.085366
      8          1           0        0.428415   -3.044040    1.546918
      9          1           0        0.266202   -3.354636   -0.188050
     10          1           0       -1.005186   -2.473508    0.675948
     11          6           0        3.052966   -0.175865   -0.114800
     12          6           0        4.568241   -0.348025   -0.225652
     13          6           0        5.291753    0.964510   -0.528269
     14          1           0        2.669388    0.247361   -1.053492
     15          1           0        2.830253    0.557224    0.672553
     16          1           0        4.787366   -1.080932   -1.012701
     17          1           0        4.948662   -0.772091    0.712465
     18          1           0        5.102440    1.699538    0.260715
     19          1           0        4.940227    1.388942   -1.474254
     20          1           0        6.373828    0.818410   -0.603283
     21          6           0       -2.507903    1.570504   -0.054393
     22          6           0       -1.080572    1.866205    0.407423
     23          6           0       -0.742587    3.356780    0.365672
     24          1           0       -2.641703    1.949781   -1.076739
     25          1           0       -3.213334    2.125280    0.579631
     26          1           0       -0.378105    1.309951   -0.226404
     27          1           0       -0.950097    1.486008    1.428718
     28          1           0       -1.420158    3.923693    1.012288
     29          1           0       -0.844916    3.746635   -0.652239
     30          1           0        0.282390    3.545538    0.699815
     31          6           0       -2.860739    0.084594   -0.018271
     32          6           0       -4.288069   -0.211106   -0.480087
     33          6           0       -4.626055   -1.701683   -0.438337
     34          1           0       -2.155309   -0.470182   -0.652295
     35          1           0       -2.726939   -0.294684    1.004074
     36          1           0       -4.418545    0.169089   -1.501383
     37          1           0       -4.990537    0.345147    0.153740
     38          1           0       -4.523727   -2.091537    0.579575
     39          1           0       -3.948485   -2.268594   -1.084952
     40          1           0       -5.651033   -1.890440   -0.772480
 ---------------------------------------------------------------------

 SCF Done:  E(RHF) =  -470.731001355     A.U. after   11 cycles
 E2 =    -0.1585562371D+01 EUMP2 =    -0.47231656372602D+03

 The electronic state is 1-A.
 Alpha  occ. eigenvalues --  -11.21601 -11.21600 -11.21469 -11.21447 -11.21390
 Alpha  occ. eigenvalues --  -11.21372 -11.21313 -11.21311 -11.21088 -11.21073
 Alpha  occ. eigenvalues --  -11.21001 -11.20947  -1.08481  -1.08335  -1.03535
 Alpha  occ. eigenvalues --   -1.03458  -0.95988  -0.95911  -0.87026  -0.86909
 Alpha  occ. eigenvalues --   -0.79837  -0.79400  -0.78529  -0.77871  -0.65171
 Alpha  occ. eigenvalues --   -0.64925  -0.60947  -0.60854  -0.59372  -0.59294
 Alpha  occ. eigenvalues --   -0.57726  -0.57416  -0.55278  -0.55203  -0.52711
 Alpha  occ. eigenvalues --   -0.52593  -0.52537  -0.52215  -0.49917  -0.49879
 Alpha  occ. eigenvalues --   -0.48386  -0.47540  -0.46771  -0.46532  -0.46158
 Alpha  occ. eigenvalues --   -0.45892  -0.45418  -0.44967  -0.43756  -0.43720
 Alpha virt. eigenvalues --    0.21470   0.22830   0.23563   0.24391   0.24723
 Alpha virt. eigenvalues --    0.26251   0.26888   0.27418   0.28156   0.29777
 Alpha virt. eigenvalues --    0.30485   0.31373   0.31677   0.31944   0.32216

 Mulliken charges:
               1
     1  C   -0.297734
     2  C   -0.303276
     3  C   -0.480480
     4  H    0.148972
     5  H    0.149161
     6  H    0.151119
     7  H    0.158659
     8  H    0.154299
     9  H    0.153832
    10  H    0.165692
    11  C   -0.299009
    12  C   -0.299470
    13  C   -0.475668
    14  H    0.148765
    15  H    0.149889
    16  H    0.151958
    17  H    0.152036
    18  H    0.155110
    19  H    0.155117
    20  H    0.160269
    21  C   -0.297894
    22  C   -0.304546
    23  C   -0.475097
    24  H    0.148876
    25  H    0.148896
    26  H    0.160918
    27  H    0.150276
    28  H    0.154346
    29  H    0.154575
    30  H    0.159742
    31  C   -0.303414
    32  C   -0.299230
    33  C   -0.476764
    34  H    0.155142
    35  H    0.149941
    36  H    0.151756
    37  H    0.151901
    38  H    0.155120
    39  H    0.155607
    40  H    0.160606
 Sum of Mulliken charges =  -0.00000

 Dipole moment (field-independent basis, Debye):
    X=             -0.0062    Y=             -0.0042    Z=             -0.0012  Tot=              0.0076
 Quadrupole moment (field-independent basis, Debye-Ang):
   XX=            -85.3886   YY=            -86.8694   ZZ=            -82.8647
   XY=             -0.8977   XZ=             -0.0572   YZ=              0.4240

 Normal termination of Gaussian 16 at Thu May  6 02:10:07 2021.
