 Gaussian 16, Revision A.03,
 Gaussian 16:  EM64L-G16RevA.03 25-Dec-2016

 -------------
 #p 6-31g* mp2
 -------------

 ------------------------------------------------------
 Input file generated by CHIRIPA (05-May-2021 14:57:26)
 ------------------------------------------------------
 Symbolic Z-matrix:
 Charge =  0 Multiplicity = 1

                         Standard orientation:
 ---------------------------------------------------------------------
 Center     Atomic      Atomic             Coordinates (Angstroms)
 Number     Number       Type             X           Y           Z
 ---------------------------------------------------------------------
      1          6           0        5.803189    1.047173   -0.608105
      2          6           0        4.699146    1.861221   -0.334360
      3          6           0        3.489960    1.299733    0.086530
      4          6           0        3.419727   -0.085742    0.223702
      5          6           0        4.502032   -0.923389   -0.041350
      6          6           0        5.701288   -0.340088   -0.460985
      7          1           0        6.738657    1.491822   -0.934575
      8          1           0        4.775389    2.938892   -0.447745
      9          1           0        2.619646    1.906479    0.305235
     10          1           0        4.395532   -1.994437    0.080844
     11          1           0        6.557067   -0.974748   -0.672868
     12          7           0        2.144872   -0.691710    0.668616
     13          8           0        2.108746   -1.915040    0.781726
     14          8           0        1.205907    0.068137    0.895804
     15          6           0       -4.745832    2.226612    0.165161
     16          6           0       -3.355520    2.149539    0.032448
     17          6           0       -2.726455    0.913374   -0.142833
     18          6           0       -3.521948   -0.230755   -0.180880
     19          6           0       -4.909258   -0.186611   -0.051597
     20          6           0       -5.516905    1.060347    0.122789
     21          1           0       -5.226186    3.191086    0.300976
     22          1           0       -2.754174    3.053624    0.064969
     23          1           0       -1.651982    0.824903   -0.248170
     24          1           0       -5.482148   -1.105242   -0.088078
     25          1           0       -6.596834    1.117183    0.225584
     26          7           0       -2.867324   -1.545141   -0.365969
     27          8           0       -3.590578   -2.538435   -0.396059
     28          8           0       -1.643370   -1.557173   -0.477448
 ---------------------------------------------------------------------

 SCF Done:  E(RHF) =  -868.336728246     A.U. after   16 cycles
 E2 =    -0.2600102038D+01 EUMP2 =    -0.87093683028371D+03

 The electronic state is 1-A.
 Alpha  occ. eigenvalues --  -20.60402 -20.60325 -20.59575 -20.59469 -15.85429
 Alpha  occ. eigenvalues --  -15.84580 -11.30979 -11.30176 -11.27613 -11.27530
 Alpha  occ. eigenvalues --  -11.27339 -11.26853 -11.26686 -11.26663 -11.26649
 Alpha  occ. eigenvalues --  -11.26597 -11.25923 -11.25871  -1.59401  -1.58605
 Alpha  occ. eigenvalues --   -1.38967  -1.38143  -1.19163  -1.18400  -1.08517
 Alpha  occ. eigenvalues --   -1.07769  -1.04600  -1.03838  -0.95325  -0.94550
 Alpha  occ. eigenvalues --   -0.85989  -0.85227  -0.82168  -0.81376  -0.77186
 Alpha  occ. eigenvalues --   -0.76363  -0.71650  -0.70852  -0.70663  -0.70278
 Alpha  occ. eigenvalues --   -0.69939  -0.69515  -0.64821  -0.64606  -0.64052
 Alpha  occ. eigenvalues --   -0.63859  -0.61952  -0.61159  -0.55089  -0.54372
 Alpha  occ. eigenvalues --   -0.52911  -0.52699  -0.52168  -0.51934  -0.48406
 Alpha  occ. eigenvalues --   -0.48357  -0.47596  -0.47504  -0.44324  -0.43489
 Alpha  occ. eigenvalues --   -0.37148  -0.36429  -0.36211  -0.35453
 Alpha virt. eigenvalues --    0.05346   0.06169   0.11441   0.12195   0.16781
 Alpha virt. eigenvalues --    0.17588   0.21499   0.22275   0.27402   0.27994
 Alpha virt. eigenvalues --    0.28428   0.29281   0.31015   0.31782   0.32587

 Mulliken charges:
               1
     1  C   -0.171386
     2  C   -0.218210
     3  C   -0.171051
     4  C    0.159829
     5  C   -0.170374
     6  C   -0.218330
     7  H    0.224681
     8  H    0.221267
     9  H    0.270110
    10  H    0.277583
    11  H    0.223480
    12  N    0.491806
    13  O   -0.449297
    14  O   -0.467490
    15  C   -0.171499
    16  C   -0.220277
    17  C   -0.172536
    18  C    0.156461
    19  C   -0.171423
    20  C   -0.219529
    21  H    0.221306
    22  H    0.219158
    23  H    0.290559
    24  H    0.273446
    25  H    0.219717
    26  N    0.486236
    27  O   -0.467587
    28  O   -0.446649
 Sum of Mulliken charges =  -0.00000

 Dipole moment (field-independent basis, Debye):
    X=              2.5398    Y=              6.4961    Z=             -0.8922  Tot=              7.0317
 Quadrupole moment (field-independent basis, Debye-Ang):
   XX=            -55.5925   YY=           -103.1076   ZZ=           -107.5918
   XY=             -9.0445   XZ=             -6.7854   YZ=             -0.3169

 Normal termination of Gaussian 16 at Thu May  6 14:48:13 2021.
