 Gaussian 16, Revision A.03,
 Gaussian 16:  EM64L-G16RevA.03 25-Dec-2016

 -------------
 #p 6-31g* mp2
 -------------

 ------------------------------------------------------
 Input file generated by CHIRIPA (05-May-2021 14:53:16)
 ------------------------------------------------------
 Symbolic Z-matrix:
 Charge =  0 Multiplicity = 1

                         Standard orientation:
 ---------------------------------------------------------------------
 Center     Atomic      Atomic             Coordinates (Angstroms)
 Number     Number       Type             X           Y           Z
 ---------------------------------------------------------------------
      1          6           0        2.483459    1.181452   -0.543277
      2          6           0        1.953930    2.156818    0.508504
      3          6           0        1.867373    3.593368   -0.007856
      4          1           0        3.476597    1.513738   -0.875252
      5          1           0        1.830897    1.215847   -1.426665
      6          1           0        2.606507    2.119577    1.390191
      7          1           0        0.962019    1.822065    0.838154
      8          1           0        1.200412    3.651846   -0.874080
      9          1           0        2.854244    3.951048   -0.318906
     10          1           0        1.486469    4.273769    0.760146
     11          6           0        2.575736   -0.258676   -0.042032
     12          6           0        3.105266   -1.234042   -1.093813
     13          6           0        3.191822   -2.670592   -0.577453
     14          1           0        3.228298   -0.293071    0.841357
     15          1           0        1.582598   -0.590962    0.289944
     16          1           0        4.097176   -0.899289   -1.423463
     17          1           0        2.452688   -1.196801   -1.975500
     18          1           0        2.204951   -3.028272   -0.266403
     19          1           0        3.858783   -2.729070    0.288771
     20          1           0        3.572726   -3.350993   -1.345455
     21          6           0       -0.670101   -1.159938    2.233814
     22          6           0       -1.338279    0.068114    2.277893
     23          6           0       -2.065027    0.521066    1.172804
     24          6           0       -2.102522   -0.283168    0.034783
     25          6           0       -1.447360   -1.511370   -0.039884
     26          6           0       -0.726674   -1.944379    1.077105
     27          1           0       -0.107900   -1.504056    3.096895
     28          1           0       -1.296089    0.679418    3.174873
     29          1           0       -2.591628    1.467670    1.179798
     30          1           0       -1.507809   -2.098649   -0.948107
     31          1           0       -0.208735   -2.898533    1.040028
     32          7           0       -2.868688    0.185794   -1.141423
     33          8           0       -2.886195   -0.541396   -2.132144
     34          8           0       -3.437196    1.271676   -1.050343
 ---------------------------------------------------------------------

 SCF Done:  E(RHF) =  -669.534629412     A.U. after   15 cycles
 E2 =    -0.2095117873D+01 EUMP2 =    -0.67162974728522D+03

 The electronic state is 1-A.
 Alpha  occ. eigenvalues --  -20.60902 -20.60897 -15.85958 -11.31377 -11.27955
 Alpha  occ. eigenvalues --  -11.27932 -11.27653 -11.26961 -11.26925 -11.21862
 Alpha  occ. eigenvalues --  -11.21662 -11.21618 -11.21457 -11.21394 -11.21097
 Alpha  occ. eigenvalues --   -1.59978  -1.39529  -1.19563  -1.08942  -1.08568
 Alpha  occ. eigenvalues --   -1.04972  -1.03736  -0.96191  -0.95755  -0.87211
 Alpha  occ. eigenvalues --   -0.86349  -0.82587  -0.79801  -0.78396  -0.77627
 Alpha  occ. eigenvalues --   -0.72172  -0.71304  -0.70628  -0.65259  -0.65198
 Alpha  occ. eigenvalues --   -0.64935  -0.62313  -0.61138  -0.59564  -0.57809
 Alpha  occ. eigenvalues --   -0.55535  -0.55419  -0.53407  -0.53050  -0.52869
 Alpha  occ. eigenvalues --   -0.52600  -0.50148  -0.48937  -0.48926  -0.48140
 Alpha  occ. eigenvalues --   -0.46861  -0.45907  -0.45748  -0.44922  -0.43950
 Alpha  occ. eigenvalues --   -0.37456  -0.36475
 Alpha virt. eigenvalues --    0.04878   0.11007   0.16270   0.20347   0.22952
 Alpha virt. eigenvalues --    0.23717   0.25836   0.26749   0.27480   0.28221
 Alpha virt. eigenvalues --    0.28322   0.30096   0.31437   0.31721   0.32124

 Mulliken charges:
               1
     1  C   -0.297530
     2  C   -0.304368
     3  C   -0.476035
     4  H    0.149304
     5  H    0.152356
     6  H    0.147740
     7  H    0.153489
     8  H    0.159454
     9  H    0.155315
    10  H    0.157866
    11  C   -0.309366
    12  C   -0.299603
    13  C   -0.475286
    14  H    0.144102
    15  H    0.161782
    16  H    0.153508
    17  H    0.154283
    18  H    0.144197
    19  H    0.154767
    20  H    0.163030
    21  C   -0.168426
    22  C   -0.216578
    23  C   -0.171657
    24  C    0.159670
    25  C   -0.170687
    26  C   -0.223161
    27  H    0.227646
    28  H    0.225223
    29  H    0.276857
    30  H    0.276566
    31  H    0.227252
    32  N    0.487987
    33  O   -0.459900
    34  O   -0.459795
 Sum of Mulliken charges =  -0.00000

 Dipole moment (field-independent basis, Debye):
    X=              2.5349    Y=             -1.6579    Z=              4.1505  Tot=              5.1382
 Quadrupole moment (field-independent basis, Debye-Ang):
   XX=           -105.8865   YY=            -91.9473   ZZ=            -93.4420
   XY=              1.7951   XZ=             -9.3734   YZ=              1.2569

 Normal termination of Gaussian 16 at Thu May  6 07:31:49 2021.
