 Gaussian 16, Revision A.03,
 Gaussian 16:  EM64L-G16RevA.03 25-Dec-2016

 -------------
 #p 6-31g* mp2
 -------------

 ------------------------------------------------------
 Input file generated by CHIRIPA (05-May-2021 14:53:12)
 ------------------------------------------------------
 Symbolic Z-matrix:
 Charge =  0 Multiplicity = 1

                         Standard orientation:
 ---------------------------------------------------------------------
 Center     Atomic      Atomic             Coordinates (Angstroms)
 Number     Number       Type             X           Y           Z
 ---------------------------------------------------------------------
      1          6           0       -3.012094   -0.375821   -0.658335
      2          6           0       -3.629754   -1.680844   -0.154952
      3          6           0       -3.340994   -2.865818   -1.077042
      4          1           0       -3.395297   -0.160648   -1.665212
      5          1           0       -1.925801   -0.507236   -0.758801
      6          1           0       -4.714387   -1.546579   -0.054147
      7          1           0       -3.245183   -1.892836    0.850921
      8          1           0       -2.262237   -3.028193   -1.169341
      9          1           0       -3.739789   -2.679969   -2.079551
     10          1           0       -3.791764   -3.788422   -0.698269
     11          6           0       -3.292057    0.817957    0.252842
     12          6           0       -2.674396    2.122981   -0.250541
     13          6           0       -2.963156    3.307954    0.671548
     14          1           0       -4.378349    0.949372    0.353308
     15          1           0       -2.908853    0.602785    1.259718
     16          1           0       -3.058968    2.334972   -1.256414
     17          1           0       -1.589764    1.988715   -0.351347
     18          1           0       -2.564362    3.122105    1.674057
     19          1           0       -4.041913    3.470329    0.763848
     20          1           0       -2.512386    4.230558    0.292776
     21          6           0        4.022391    0.609532   -1.663950
     22          6           0        2.660821    0.437341   -1.934130
     23          6           0        1.787337    0.004357   -0.932083
     24          6           0        2.311760   -0.248334    0.334574
     25          6           0        3.663369   -0.086198    0.634831
     26          6           0        4.518446    0.347675   -0.382591
     27          1           0        4.693784    0.946230   -2.448336
     28          1           0        2.272786    0.639944   -2.928326
     29          1           0        0.728881   -0.137262   -1.113831
     30          1           0        4.020757   -0.296159    1.635635
     31          1           0        5.575401    0.480529   -0.169892
     32          7           0        1.396786   -0.707185    1.403535
     33          8           0        1.883645   -0.923055    2.511237
     34          8           0        0.210095   -0.842274    1.113442
 ---------------------------------------------------------------------

 SCF Done:  E(RHF) =  -669.536274288     A.U. after   15 cycles
 E2 =    -0.2092242784D+01 EUMP2 =    -0.67162851707251D+03

 The electronic state is 1-A.
 Alpha  occ. eigenvalues --  -20.60999 -20.60984 -15.86029 -11.31319 -11.27877
 Alpha  occ. eigenvalues --  -11.27873 -11.27606 -11.26880 -11.26868 -11.21120
 Alpha  occ. eigenvalues --  -11.20735 -11.20625 -11.20606 -11.20545 -11.20400
 Alpha  occ. eigenvalues --   -1.60057  -1.39615  -1.19484  -1.08894  -1.07686
 Alpha  occ. eigenvalues --   -1.04875  -1.02870  -0.95744  -0.95320  -0.86351
 Alpha  occ. eigenvalues --   -0.86279  -0.82578  -0.78948  -0.77710  -0.77450
 Alpha  occ. eigenvalues --   -0.72266  -0.71368  -0.70594  -0.65156  -0.64887
 Alpha  occ. eigenvalues --   -0.64238  -0.62222  -0.60246  -0.58712  -0.56951
 Alpha  occ. eigenvalues --   -0.55381  -0.54585  -0.53208  -0.52971  -0.52063
 Alpha  occ. eigenvalues --   -0.51773  -0.49289  -0.49010  -0.48989  -0.47281
 Alpha  occ. eigenvalues --   -0.45952  -0.45099  -0.44990  -0.44893  -0.43101
 Alpha  occ. eigenvalues --   -0.37461  -0.36473
 Alpha virt. eigenvalues --    0.04875   0.11150   0.16390   0.20315   0.23190
 Alpha virt. eigenvalues --    0.24849   0.25137   0.27525   0.27890   0.28560
 Alpha virt. eigenvalues --    0.29419   0.31309   0.31903   0.32375   0.32453

 Mulliken charges:
               1
     1  C   -0.305012
     2  C   -0.299811
     3  C   -0.475881
     4  H    0.140894
     5  H    0.161044
     6  H    0.147618
     7  H    0.164434
     8  H    0.155989
     9  H    0.149713
    10  H    0.159004
    11  C   -0.298467
    12  C   -0.299011
    13  C   -0.475726
    14  H    0.145609
    15  H    0.163096
    16  H    0.146867
    17  H    0.147861
    18  H    0.158772
    19  H    0.154400
    20  H    0.156145
    21  C   -0.170090
    22  C   -0.221162
    23  C   -0.173102
    24  C    0.155588
    25  C   -0.170034
    26  C   -0.218850
    27  H    0.226201
    28  H    0.224933
    29  H    0.283674
    30  H    0.275840
    31  H    0.223929
    32  N    0.491985
    33  O   -0.458652
    34  O   -0.467796
 Sum of Mulliken charges =  -0.00000

 Dipole moment (field-independent basis, Debye):
    X=              3.4271    Y=              1.5354    Z=             -3.5559  Tot=              5.1717
 Quadrupole moment (field-independent basis, Debye-Ang):
   XX=            -76.8310   YY=            -97.7373   ZZ=            -95.6963
   XY=              2.9703   XZ=             -5.1548   YZ=              0.5315

 Normal termination of Gaussian 16 at Thu May  6 04:05:50 2021.
