 Gaussian 16, Revision A.03,
 Gaussian 16:  EM64L-G16RevA.03 25-Dec-2016

 -------------
 #p 6-31g* mp2
 -------------

 ------------------------------------------------------
 Input file generated by CHIRIPA (05-May-2021 14:57:25)
 ------------------------------------------------------
 Symbolic Z-matrix:
 Charge =  0 Multiplicity = 1

                         Standard orientation:
 ---------------------------------------------------------------------
 Center     Atomic      Atomic             Coordinates (Angstroms)
 Number     Number       Type             X           Y           Z
 ---------------------------------------------------------------------
      1          6           0        2.922482    2.167638   -1.282258
      2          6           0        1.804849    1.326558   -1.280872
      3          6           0        1.865810    0.065759   -0.679857
      4          6           0        3.065771   -0.323670   -0.086790
      5          6           0        4.196443    0.491588   -0.071798
      6          6           0        4.112614    1.748208   -0.678780
      7          1           0        2.866243    3.145433   -1.751458
      8          1           0        0.879263    1.649660   -1.748783
      9          1           0        1.015706   -0.605434   -0.664339
     10          1           0        5.105272    0.141768    0.402622
     11          1           0        4.982168    2.399299   -0.678342
     12          7           0        3.142413   -1.656209    0.552637
     13          8           0        4.211266   -1.975881    1.068389
     14          8           0        2.132181   -2.355749    0.525959
     15          6           0       -1.799753    1.865939    1.492444
     16          6           0       -3.138044    2.073689    1.142676
     17          6           0       -3.842343    1.104356    0.422326
     18          6           0       -3.174312   -0.066281    0.066470
     19          6           0       -1.841606   -0.302581    0.400152
     20          6           0       -1.156938    0.680556    1.120721
     21          1           0       -1.260263    2.624303    2.052114
     22          1           0       -3.639814    2.993312    1.430020
     23          1           0       -4.878991    1.239324    0.138489
     24          1           0       -1.368293   -1.229432    0.099582
     25          1           0       -0.117665    0.516504    1.390986
     26          7           0       -3.909530   -1.099779   -0.696249
     27          8           0       -3.298303   -2.122563   -0.997827
     28          8           0       -5.083099   -0.867478   -0.978047
 ---------------------------------------------------------------------

 SCF Done:  E(RHF) =  -868.336739430     A.U. after   16 cycles
 E2 =    -0.2602275790D+01 EUMP2 =    -0.87093901522011D+03

 The electronic state is 1-A.
 Alpha  occ. eigenvalues --  -20.61427 -20.61410 -20.60930 -20.60914 -15.86469
 Alpha  occ. eigenvalues --  -15.85979 -11.31898 -11.31471 -11.28452 -11.28397
 Alpha  occ. eigenvalues --  -11.28127 -11.28025 -11.28003 -11.27769 -11.27429
 Alpha  occ. eigenvalues --  -11.27416 -11.27078 -11.26998  -1.60492  -1.60001
 Alpha  occ. eigenvalues --   -1.40046  -1.39548  -1.20057  -1.19642  -1.09422
 Alpha  occ. eigenvalues --   -1.09009  -1.05484  -1.05031  -0.96257  -0.95825
 Alpha  occ. eigenvalues --   -0.86845  -0.86434  -0.83084  -0.82648  -0.78181
 Alpha  occ. eigenvalues --   -0.77646  -0.72674  -0.72190  -0.71825  -0.71333
 Alpha  occ. eigenvalues --   -0.71166  -0.70707  -0.65686  -0.65480  -0.65237
 Alpha  occ. eigenvalues --   -0.65037  -0.62965  -0.62182  -0.55917  -0.55530
 Alpha  occ. eigenvalues --   -0.53907  -0.53509  -0.53351  -0.53020  -0.49447
 Alpha  occ. eigenvalues --   -0.49429  -0.48962  -0.48941  -0.45432  -0.44927
 Alpha  occ. eigenvalues --   -0.38029  -0.37699  -0.37195  -0.36430
 Alpha virt. eigenvalues --    0.04333   0.04832   0.10485   0.10942   0.15801
 Alpha virt. eigenvalues --    0.16352   0.20221   0.21592   0.25272   0.27153
 Alpha virt. eigenvalues --    0.27540   0.28810   0.30590   0.30825   0.31388

 Mulliken charges:
               1
     1  C   -0.172104
     2  C   -0.220101
     3  C   -0.183987
     4  C    0.158416
     5  C   -0.170818
     6  C   -0.218137
     7  H    0.227735
     8  H    0.229279
     9  H    0.278235
    10  H    0.277592
    11  H    0.225797
    12  N    0.487901
    13  O   -0.456479
    14  O   -0.462587
    15  C   -0.173904
    16  C   -0.218593
    17  C   -0.171596
    18  C    0.160226
    19  C   -0.186140
    20  C   -0.222015
    21  H    0.226155
    22  H    0.223888
    23  H    0.276405
    24  H    0.284096
    25  H    0.230425
    26  N    0.487752
    27  O   -0.457212
    28  O   -0.460230
 Sum of Mulliken charges =  -0.00000

 Dipole moment (field-independent basis, Debye):
    X=              2.4267    Y=              8.3510    Z=              0.4127  Tot=              8.7062
 Quadrupole moment (field-independent basis, Debye-Ang):
   XX=           -114.4496   YY=           -107.3481   ZZ=           -105.1212
   XY=              1.2548   XZ=            -14.1907   YZ=              0.5678

 Normal termination of Gaussian 16 at Fri May  7 11:07:56 2021.
