 Gaussian 16, Revision A.03,
 Gaussian 16:  EM64L-G16RevA.03 25-Dec-2016

 -------------
 #p 6-31g* mp2
 -------------

 ------------------------------------------------------
 Input file generated by CHIRIPA (05-May-2021 14:51:09)
 ------------------------------------------------------
 Symbolic Z-matrix:
 Charge =  0 Multiplicity = 1

                         Standard orientation:
 ---------------------------------------------------------------------
 Center     Atomic      Atomic             Coordinates (Angstroms)
 Number     Number       Type             X           Y           Z
 ---------------------------------------------------------------------
      1          6           0        2.403844   -1.059563    0.215938
      2          6           0        1.205038   -0.917473    1.154372
      3          6           0        0.283133   -2.136897    1.124516
      4          1           0        2.042147   -1.222563   -0.808538
      5          1           0        2.973123   -1.957637    0.493026
      6          1           0        0.638966   -0.019169    0.876471
      7          1           0        1.569630   -0.754601    2.176704
      8          1           0        0.827478   -3.038763    1.422722
      9          1           0       -0.108474   -2.299152    0.115101
     10          1           0       -0.567145   -2.014055    1.802599
     11          6           0        3.334744    0.151553    0.234656
     12          6           0        4.533550    0.009463   -0.703778
     13          6           0        5.455455    1.228887   -0.673922
     14          1           0        2.765465    1.049628   -0.042432
     15          1           0        3.696441    0.314553    1.259132
     16          1           0        4.168958   -0.153408   -1.726110
     17          1           0        5.099622   -0.888840   -0.425877
     18          1           0        5.847062    1.391143    0.335493
     19          1           0        4.911110    2.130754   -0.972128
     20          1           0        6.305733    1.106045   -1.352005
     21          6           0       -2.831607   -0.146445   -0.695905
     22          6           0       -3.307030   -1.450439   -0.054379
     23          6           0       -3.225653   -2.642585   -1.008297
     24          1           0       -3.435946    0.056196   -1.590698
     25          1           0       -1.795663   -0.271706   -1.040178
     26          1           0       -4.341305   -1.322313    0.289824
     27          1           0       -2.701615   -1.649900    0.839100
     28          1           0       -2.194917   -2.798772   -1.342648
     29          1           0       -3.843924   -2.469324   -1.895045
     30          1           0       -3.570279   -3.564326   -0.529250
     31          6           0       -2.906981    1.054455    0.245311
     32          6           0       -2.431558    2.358449   -0.396215
     33          6           0       -2.512935    3.550595    0.557703
     34          1           0       -3.942925    1.179715    0.589585
     35          1           0       -2.302642    0.851814    1.140105
     36          1           0       -3.036973    2.557909   -1.289694
     37          1           0       -1.397283    2.230323   -0.740418
     38          1           0       -1.894665    3.377334    1.444451
     39          1           0       -3.543671    3.706781    0.892054
     40          1           0       -2.168310    4.472336    0.078656
 ---------------------------------------------------------------------

 SCF Done:  E(RHF) =  -470.732479719     A.U. after   11 cycles
 E2 =    -0.1584370502D+01 EUMP2 =    -0.47231685022129D+03

 The electronic state is 1-A.
 Alpha  occ. eigenvalues --  -11.21694 -11.21641 -11.21621 -11.21484 -11.21471
 Alpha  occ. eigenvalues --  -11.21409 -11.21392 -11.21329 -11.21137 -11.21100
 Alpha  occ. eigenvalues --  -11.21080 -11.21025  -1.08511  -1.08398  -1.03623
 Alpha  occ. eigenvalues --   -1.03480  -0.96054  -0.95954  -0.87075  -0.86970
 Alpha  occ. eigenvalues --   -0.79686  -0.79549  -0.78307  -0.78230  -0.65344
 Alpha  occ. eigenvalues --   -0.64890  -0.61198  -0.60730  -0.59455  -0.59277
 Alpha  occ. eigenvalues --   -0.57680  -0.57554  -0.55380  -0.55193  -0.52774
 Alpha  occ. eigenvalues --   -0.52646  -0.52473  -0.52378  -0.49977  -0.49901
 Alpha  occ. eigenvalues --   -0.48003  -0.47881  -0.46678  -0.46571  -0.45895
 Alpha  occ. eigenvalues --   -0.45777  -0.45713  -0.45659  -0.43807  -0.43749
 Alpha virt. eigenvalues --    0.19245   0.23033   0.23285   0.24881   0.25506
 Alpha virt. eigenvalues --    0.26142   0.27003   0.27698   0.28372   0.29512
 Alpha virt. eigenvalues --    0.30314   0.30879   0.31765   0.32369   0.32520

 Mulliken charges:
               1
     1  C   -0.298573
     2  C   -0.302627
     3  C   -0.481272
     4  H    0.149440
     5  H    0.150049
     6  H    0.153525
     7  H    0.152400
     8  H    0.155786
     9  H    0.159578
    10  H    0.162387
    11  C   -0.298320
    12  C   -0.299730
    13  C   -0.475760
    14  H    0.149396
    15  H    0.149858
    16  H    0.152060
    17  H    0.152057
    18  H    0.155248
    19  H    0.155288
    20  H    0.160424
    21  C   -0.299352
    22  C   -0.304318
    23  C   -0.477057
    24  H    0.149518
    25  H    0.149811
    26  H    0.151350
    27  H    0.158706
    28  H    0.155672
    29  H    0.154825
    30  H    0.160378
    31  C   -0.299631
    32  C   -0.299946
    33  C   -0.475728
    34  H    0.149748
    35  H    0.150678
    36  H    0.152140
    37  H    0.151145
    38  H    0.155332
    39  H    0.155314
    40  H    0.160204
 Sum of Mulliken charges =  -0.00000

 Dipole moment (field-independent basis, Debye):
    X=              0.0282    Y=             -0.0208    Z=              0.0246  Tot=              0.0429
 Quadrupole moment (field-independent basis, Debye-Ang):
   XX=            -84.1871   YY=            -86.1085   ZZ=            -84.4387
   XY=             -1.0494   XZ=              0.7413   YZ=             -0.9058

 Normal termination of Gaussian 16 at Wed May  5 21:22:23 2021.
