 Gaussian 16, Revision A.03,
 Gaussian 16:  EM64L-G16RevA.03 25-Dec-2016

 -------------
 #p 6-31g* mp2
 -------------

 ------------------------------------------------------
 Input file generated by CHIRIPA (05-May-2021 14:55:25)
 ------------------------------------------------------
 Symbolic Z-matrix:
 Charge =  0 Multiplicity = 1

                         Standard orientation:
 ---------------------------------------------------------------------
 Center     Atomic      Atomic             Coordinates (Angstroms)
 Number     Number       Type             X           Y           Z
 ---------------------------------------------------------------------
      1          6           0        3.890841    0.302742   -1.828465
      2          6           0        3.788926   -1.040841   -1.453075
      3          6           0        3.011406   -1.413557   -0.352578
      4          6           0        2.346264   -0.412154    0.353161
      5          6           0        2.428013    0.934942    0.003962
      6          6           0        3.211257    1.284614   -1.100033
      7          1           0        4.497061    0.583327   -2.684716
      8          1           0        4.315595   -1.805516   -2.016934
      9          1           0        2.915042   -2.446258   -0.040071
     10          1           0        1.891362    1.674657    0.585551
     11          1           0        3.288575    2.328841   -1.389271
     12          7           0        1.520108   -0.794535    1.520059
     13          8           0        0.943946    0.106742    2.125348
     14          8           0        1.464373   -1.988280    1.807290
     15          6           0       -3.026278    1.195548   -0.197223
     16          6           0       -1.667370    1.532600    0.417390
     17          6           0       -1.379241    3.034157    0.427567
     18          1           0       -3.063812    1.584523   -1.223982
     19          1           0       -3.814105    1.717224    0.363649
     20          1           0       -0.882457    1.009344   -0.143619
     21          1           0       -1.632995    1.142610    1.442740
     22          1           0       -2.141146    3.568721    1.004059
     23          1           0       -1.386343    3.434699   -0.591313
     24          1           0       -0.402840    3.252590    0.871173
     25          6           0       -3.328730   -0.301767   -0.214533
     26          6           0       -4.687638   -0.638819   -0.829146
     27          6           0       -4.975766   -2.140376   -0.839324
     28          1           0       -2.540902   -0.823443   -0.775406
     29          1           0       -3.291195   -0.690742    0.812226
     30          1           0       -4.722013   -0.248830   -1.854496
     31          1           0       -5.472551   -0.115564   -0.268137
     32          1           0       -4.968664   -2.540918    0.179556
     33          1           0       -4.213861   -2.674940   -1.415816
     34          1           0       -5.952168   -2.358809   -1.282929
 ---------------------------------------------------------------------

 SCF Done:  E(RHF) =  -669.535568185     A.U. after   15 cycles
 E2 =    -0.2092804224D+01 EUMP2 =    -0.67162837240947D+03

 The electronic state is 1-A.
 Alpha  occ. eigenvalues --  -20.60872 -20.60845 -15.85885 -11.31247 -11.27808
 Alpha  occ. eigenvalues --  -11.27799 -11.27550 -11.26825 -11.26811 -11.21165
 Alpha  occ. eigenvalues --  -11.20874 -11.20834 -11.20793 -11.20767 -11.20659
 Alpha  occ. eigenvalues --   -1.59919  -1.39475  -1.19416  -1.08813  -1.07894
 Alpha  occ. eigenvalues --   -1.04814  -1.03042  -0.95664  -0.95527  -0.86557
 Alpha  occ. eigenvalues --   -0.86213  -0.82489  -0.79092  -0.77756  -0.77452
 Alpha  occ. eigenvalues --   -0.72120  -0.71228  -0.70523  -0.65069  -0.64826
 Alpha  occ. eigenvalues --   -0.64524  -0.62176  -0.60439  -0.58893  -0.57129
 Alpha  occ. eigenvalues --   -0.55315  -0.54838  -0.53144  -0.52911  -0.52248
 Alpha  occ. eigenvalues --   -0.51949  -0.49480  -0.48887  -0.48877  -0.47454
 Alpha  occ. eigenvalues --   -0.46097  -0.45448  -0.45149  -0.44557  -0.43290
 Alpha  occ. eigenvalues --   -0.37390  -0.36407
 Alpha virt. eigenvalues --    0.04973   0.11151   0.16455   0.20725   0.23274
 Alpha virt. eigenvalues --    0.24061   0.26539   0.27117   0.27675   0.28135
 Alpha virt. eigenvalues --    0.29243   0.30440   0.31525   0.31737   0.32370

 Mulliken charges:
               1
     1  C   -0.170614
     2  C   -0.218665
     3  C   -0.170719
     4  C    0.157391
     5  C   -0.172791
     6  C   -0.220222
     7  H    0.225845
     8  H    0.223653
     9  H    0.275736
    10  H    0.281035
    11  H    0.224196
    12  N    0.488687
    13  O   -0.458815
    14  O   -0.459830
    15  C   -0.298998
    16  C   -0.299516
    17  C   -0.477849
    18  H    0.144417
    19  H    0.148313
    20  H    0.142589
    21  H    0.174513
    22  H    0.156906
    23  H    0.149234
    24  H    0.154580
    25  C   -0.298121
    26  C   -0.299231
    27  C   -0.475365
    28  H    0.147225
    29  H    0.156151
    30  H    0.149232
    31  H    0.151351
    32  H    0.157309
    33  H    0.154162
    34  H    0.158209
 Sum of Mulliken charges =  -0.00000

 Dipole moment (field-independent basis, Debye):
    X=              2.9980    Y=              1.2430    Z=             -3.9214  Tot=              5.0903
 Quadrupole moment (field-independent basis, Debye-Ang):
   XX=            -81.6708   YY=            -92.8378   ZZ=            -97.3290
   XY=              0.3435   XZ=            -10.0256   YZ=              3.0786

 Normal termination of Gaussian 16 at Thu May  6 19:22:22 2021.
