 Gaussian 16, Revision A.03,
 Gaussian 16:  EM64L-G16RevA.03 25-Dec-2016

 -------------
 #p 6-31g* mp2
 -------------

 ------------------------------------------------------
 Input file generated by CHIRIPA (05-May-2021 14:57:24)
 ------------------------------------------------------
 Symbolic Z-matrix:
 Charge =  0 Multiplicity = 1

                         Standard orientation:
 ---------------------------------------------------------------------
 Center     Atomic      Atomic             Coordinates (Angstroms)
 Number     Number       Type             X           Y           Z
 ---------------------------------------------------------------------
      1          6           0        3.722606    2.086154    0.393113
      2          6           0        2.633577    1.586085    1.114548
      3          6           0        2.186133    0.277652    0.908773
      4          6           0        2.854050   -0.506629   -0.030419
      5          6           0        3.941962   -0.037153   -0.764810
      6          6           0        4.372178    1.274370   -0.542613
      7          1           0        4.063499    3.103776    0.559343
      8          1           0        2.127193    2.214260    1.841884
      9          1           0        1.345589   -0.134857    1.453512
     10          1           0        4.426545   -0.687245   -1.483125
     11          1           0        5.218199    1.660070   -1.104333
     12          7           0        2.389481   -1.893444   -0.256956
     13          8           0        2.994974   -2.564220   -1.090067
     14          8           0        1.428654   -2.283393    0.402884
     15          6           0       -2.160576    2.651790   -0.378926
     16          6           0       -1.383522    1.775521    0.385836
     17          6           0       -1.800373    0.458119    0.598516
     18          6           0       -3.005061    0.048582    0.029048
     19          6           0       -3.801393    0.897842   -0.737699
     20          6           0       -3.364909    2.210930   -0.937268
     21          1           0       -1.829131    3.673504   -0.539048
     22          1           0       -0.447778    2.115152    0.820671
     23          1           0       -1.218333   -0.241248    1.186339
     24          1           0       -4.729529    0.530336   -1.158322
     25          1           0       -3.970427    2.889251   -1.531636
     26          7           0       -3.456755   -1.343810    0.247263
     27          8           0       -4.522022   -1.680174   -0.265283
     28          8           0       -2.736974   -2.072437    0.926713
 ---------------------------------------------------------------------

 SCF Done:  E(RHF) =  -868.335099378     A.U. after   16 cycles
 E2 =    -0.2602320089D+01 EUMP2 =    -0.87093741946634D+03

 The electronic state is 1-A.
 Alpha  occ. eigenvalues --  -20.61036 -20.61008 -20.60419 -20.60362 -15.86081
 Alpha  occ. eigenvalues --  -15.85455 -11.31755 -11.31089 -11.28477 -11.28314
 Alpha  occ. eigenvalues --  -11.28149 -11.27724 -11.27685 -11.27529 -11.27529
 Alpha  occ. eigenvalues --  -11.27366 -11.26836 -11.26757  -1.60091  -1.59466
 Alpha  occ. eigenvalues --   -1.39638  -1.39008  -1.19966  -1.19299  -1.09289
 Alpha  occ. eigenvalues --   -1.08648  -1.05445  -1.04755  -0.96076  -0.95436
 Alpha  occ. eigenvalues --   -0.86810  -0.86140  -0.82928  -0.82274  -0.77954
 Alpha  occ. eigenvalues --   -0.77244  -0.72285  -0.71670  -0.71423  -0.71079
 Alpha  occ. eigenvalues --   -0.70793  -0.70411  -0.65628  -0.65485  -0.64956
 Alpha  occ. eigenvalues --   -0.64757  -0.62920  -0.61976  -0.55891  -0.55260
 Alpha  occ. eigenvalues --   -0.53748  -0.53570  -0.53038  -0.52802  -0.49069
 Alpha  occ. eigenvalues --   -0.49037  -0.48459  -0.48403  -0.44973  -0.44352
 Alpha  occ. eigenvalues --   -0.37932  -0.37312  -0.37075  -0.36290
 Alpha virt. eigenvalues --    0.04571   0.05315   0.10544   0.11291   0.15870
 Alpha virt. eigenvalues --    0.16733   0.18860   0.22240   0.24911   0.25796
 Alpha virt. eigenvalues --    0.27981   0.28938   0.30648   0.31577   0.32457

 Mulliken charges:
               1
     1  C   -0.171058
     2  C   -0.224716
     3  C   -0.171745
     4  C    0.159452
     5  C   -0.168959
     6  C   -0.218160
     7  H    0.226524
     8  H    0.219147
     9  H    0.274772
    10  H    0.278714
    11  H    0.225839
    12  N    0.487465
    13  O   -0.457827
    14  O   -0.455543
    15  C   -0.172140
    16  C   -0.218501
    17  C   -0.176501
    18  C    0.159753
    19  C   -0.170124
    20  C   -0.218481
    21  H    0.222955
    22  H    0.214610
    23  H    0.281726
    24  H    0.276468
    25  H    0.223025
    26  N    0.487472
    27  O   -0.462287
    28  O   -0.451880
 Sum of Mulliken charges =  -0.00000

 Dipole moment (field-independent basis, Debye):
    X=              3.3634    Y=              9.4718    Z=             -0.1058  Tot=             10.0518
 Quadrupole moment (field-independent basis, Debye-Ang):
   XX=            -98.7984   YY=           -110.3138   ZZ=           -102.2080
   XY=             -2.7556   XZ=              4.0916   YZ=             -0.7535

 Normal termination of Gaussian 16 at Fri May  7 08:04:41 2021.
