 Gaussian 16, Revision A.03,
 Gaussian 16:  EM64L-G16RevA.03 25-Dec-2016

 -------------
 #p 6-31g* mp2
 -------------

 ------------------------------------------------------
 Input file generated by CHIRIPA (05-May-2021 14:53:13)
 ------------------------------------------------------
 Symbolic Z-matrix:
 Charge =  0 Multiplicity = 1

                         Standard orientation:
 ---------------------------------------------------------------------
 Center     Atomic      Atomic             Coordinates (Angstroms)
 Number     Number       Type             X           Y           Z
 ---------------------------------------------------------------------
      1          6           0        3.688900   -0.084159   -0.637341
      2          6           0        3.998784   -1.376738    0.118434
      3          6           0        4.597018   -2.458647   -0.781223
      4          1           0        2.994188   -0.305034   -1.459250
      5          1           0        4.611679    0.291767   -1.100539
      6          1           0        3.075970   -1.749373    0.581222
      7          1           0        4.692689   -1.152727    0.938758
      8          1           0        5.531907   -2.110882   -1.232492
      9          1           0        3.906002   -2.710919   -1.592059
     10          1           0        4.810834   -3.373977   -0.220585
     11          6           0        3.090301    1.006971    0.248574
     12          6           0        2.780417    2.299550   -0.507201
     13          6           0        2.182183    3.381459    0.392456
     14          1           0        2.167522    0.631045    0.711772
     15          1           0        3.785013    1.227846    1.070483
     16          1           0        2.086512    2.075539   -1.327525
     17          1           0        3.703231    2.672185   -0.969989
     18          1           0        2.873199    3.633731    1.203293
     19          1           0        1.247294    3.033694    0.843725
     20          1           0        1.968367    4.296789   -0.168182
     21          6           0       -4.671122    0.809425   -0.799317
     22          6           0       -4.563820   -0.582700   -0.882963
     23          6           0       -3.447407   -1.241501   -0.359373
     24          6           0       -2.452549   -0.473575    0.243819
     25          6           0       -2.530498    0.914754    0.342595
     26          6           0       -3.655909    1.552399   -0.187883
     27          1           0       -5.541875    1.312981   -1.208730
     28          1           0       -5.350711   -1.162263   -1.357256
     29          1           0       -3.338783   -2.318072   -0.410506
     30          1           0       -1.729883    1.465512    0.821237
     31          1           0       -3.736563    2.633663   -0.121495
     32          7           0       -1.265890   -1.159820    0.801766
     33          8           0       -0.403099   -0.460499    1.328245
     34          8           0       -1.221045   -2.384027    0.702041
 ---------------------------------------------------------------------

 SCF Done:  E(RHF) =  -669.536474151     A.U. after   15 cycles
 E2 =    -0.2091404163D+01 EUMP2 =    -0.67162787831390D+03

 The electronic state is 1-A.
 Alpha  occ. eigenvalues --  -20.61047 -20.61040 -15.86072 -11.31349 -11.27908
 Alpha  occ. eigenvalues --  -11.27903 -11.27635 -11.26903 -11.26893 -11.20947
 Alpha  occ. eigenvalues --  -11.20663 -11.20468 -11.20391 -11.20212 -11.20152
 Alpha  occ. eigenvalues --   -1.60102  -1.39659  -1.19512  -1.08925  -1.07474
 Alpha  occ. eigenvalues --   -1.04902  -1.02699  -0.95774  -0.95160  -0.86305
 Alpha  occ. eigenvalues --   -0.86191  -0.82610  -0.78754  -0.77675  -0.77239
 Alpha  occ. eigenvalues --   -0.72297  -0.71412  -0.70621  -0.65171  -0.64904
 Alpha  occ. eigenvalues --   -0.64088  -0.62251  -0.60100  -0.58546  -0.56759
 Alpha  occ. eigenvalues --   -0.55408  -0.54450  -0.53236  -0.52992  -0.51911
 Alpha  occ. eigenvalues --   -0.51596  -0.49142  -0.49059  -0.49031  -0.47080
 Alpha  occ. eigenvalues --   -0.45777  -0.45190  -0.44832  -0.44477  -0.42906
 Alpha  occ. eigenvalues --   -0.37488  -0.36500
 Alpha virt. eigenvalues --    0.04825   0.11152   0.16303   0.20762   0.23406
 Alpha virt. eigenvalues --    0.24631   0.26479   0.27466   0.27885   0.28916
 Alpha virt. eigenvalues --    0.29119   0.30581   0.31503   0.32297   0.32731

 Mulliken charges:
               1
     1  C   -0.295953
     2  C   -0.303397
     3  C   -0.474894
     4  H    0.146822
     5  H    0.143918
     6  H    0.167900
     7  H    0.148588
     8  H    0.150733
     9  H    0.154103
    10  H    0.159244
    11  C   -0.311922
    12  C   -0.297606
    13  C   -0.475222
    14  H    0.178004
    15  H    0.145634
    16  H    0.147701
    17  H    0.148919
    18  H    0.155965
    19  H    0.152654
    20  H    0.154769
    21  C   -0.170400
    22  C   -0.218623
    23  C   -0.170516
    24  C    0.157625
    25  C   -0.171543
    26  C   -0.218756
    27  H    0.226277
    28  H    0.224022
    29  H    0.275913
    30  H    0.276720
    31  H    0.224439
    32  N    0.491389
    33  O   -0.464024
    34  O   -0.458482
 Sum of Mulliken charges =  -0.00000

 Dipole moment (field-independent basis, Debye):
    X=             -4.4637    Y=              2.2575    Z=             -1.8418  Tot=              5.3304
 Quadrupole moment (field-independent basis, Debye-Ang):
   XX=            -74.1942   YY=            -94.4727   ZZ=            -96.4622
   XY=             -1.6680   XZ=              5.5146   YZ=              2.5789

 Normal termination of Gaussian 16 at Wed May  5 17:01:44 2021.
