 Gaussian 16, Revision A.03,
 Gaussian 16:  EM64L-G16RevA.03 25-Dec-2016

 -------------
 #p 6-31g* mp2
 -------------

 ------------------------------------------------------
 Input file generated by CHIRIPA (05-May-2021 14:55:22)
 ------------------------------------------------------
 Symbolic Z-matrix:
 Charge =  0 Multiplicity = 1

                         Standard orientation:
 ---------------------------------------------------------------------
 Center     Atomic      Atomic             Coordinates (Angstroms)
 Number     Number       Type             X           Y           Z
 ---------------------------------------------------------------------
      1          6           0        0.621166   -1.625407    0.001703
      2          6           0        1.712808   -2.131892   -0.711257
      3          6           0        2.951919   -1.486073   -0.665762
      4          6           0        3.064396   -0.330809    0.106252
      5          6           0        1.995435    0.198443    0.827710
      6          6           0        0.765709   -0.463904    0.767561
      7          1           0       -0.337760   -2.133515   -0.039331
      8          1           0        1.603471   -3.033748   -1.306862
      9          1           0        3.813504   -1.856444   -1.207901
     10          1           0        2.135159    1.099380    1.412697
     11          1           0       -0.080348   -0.068284    1.322283
     12          7           0        4.371220    0.361639    0.162172
     13          8           0        4.444367    1.377806    0.849698
     14          8           0        5.297617   -0.124898   -0.482582
     15          6           0       -2.910514    0.745151   -0.226939
     16          6           0       -2.667996    2.239330   -0.442803
     17          6           0       -1.190325    2.574958   -0.646859
     18          1           0       -2.332817    0.408589    0.644805
     19          1           0       -2.523352    0.189210   -1.092058
     20          1           0       -3.056745    2.792398    0.421839
     21          1           0       -3.246487    2.572415   -1.314020
     22          1           0       -0.792946    2.048970   -1.520946
     23          1           0       -0.602125    2.270203    0.224775
     24          1           0       -1.039752    3.648242   -0.799333
     25          6           0       -4.382967    0.393878   -0.021472
     26          6           0       -4.625486   -1.100301    0.194393
     27          6           0       -6.103156   -1.435930    0.398448
     28          1           0       -4.770129    0.949819    0.843647
     29          1           0       -4.960664    0.730440   -0.893215
     30          1           0       -4.046994   -1.433387    1.065609
     31          1           0       -4.236737   -1.653370   -0.670250
     32          1           0       -6.691356   -1.131175   -0.473186
     33          1           0       -6.500535   -0.909941    1.272535
     34          1           0       -6.253729   -2.509214    0.550923
 ---------------------------------------------------------------------

 SCF Done:  E(RHF) =  -669.534737980     A.U. after   15 cycles
 E2 =    -0.2092829479D+01 EUMP2 =    -0.67162756745854D+03

 The electronic state is 1-A.
 Alpha  occ. eigenvalues --  -20.60713 -20.60707 -15.85765 -11.31125 -11.27689
 Alpha  occ. eigenvalues --  -11.27680 -11.27407 -11.26710 -11.26668 -11.22493
 Alpha  occ. eigenvalues --  -11.22410 -11.22314 -11.22201 -11.21774 -11.21662
 Alpha  occ. eigenvalues --   -1.59788  -1.39342  -1.19294  -1.09294  -1.08685
 Alpha  occ. eigenvalues --   -1.04708  -1.04291  -0.96735  -0.95522  -0.87747
 Alpha  occ. eigenvalues --   -0.86102  -0.82365  -0.80368  -0.79158  -0.77404
 Alpha  occ. eigenvalues --   -0.71984  -0.71110  -0.70389  -0.65968  -0.64947
 Alpha  occ. eigenvalues --   -0.64699  -0.62131  -0.61621  -0.60094  -0.58361
 Alpha  occ. eigenvalues --   -0.56030  -0.55184  -0.53393  -0.53240  -0.52964
 Alpha  occ. eigenvalues --   -0.52807  -0.50684  -0.48764  -0.48739  -0.48645
 Alpha  occ. eigenvalues --   -0.47398  -0.46639  -0.46577  -0.44749  -0.44576
 Alpha  occ. eigenvalues --   -0.37256  -0.36258
 Alpha virt. eigenvalues --    0.05100   0.11299   0.16497   0.19526   0.22636
 Alpha virt. eigenvalues --    0.23474   0.24988   0.25537   0.26614   0.28450
 Alpha virt. eigenvalues --    0.29860   0.30198   0.31066   0.31311   0.31466

 Mulliken charges:
               1
     1  C   -0.173674
     2  C   -0.218884
     3  C   -0.171373
     4  C    0.158362
     5  C   -0.171349
     6  C   -0.216116
     7  H    0.226889
     8  H    0.223059
     9  H    0.275283
    10  H    0.275318
    11  H    0.226474
    12  N    0.488047
    13  O   -0.460451
    14  O   -0.460707
    15  C   -0.300697
    16  C   -0.301235
    17  C   -0.474719
    18  H    0.139468
    19  H    0.150291
    20  H    0.153454
    21  H    0.155529
    22  H    0.159252
    23  H    0.147995
    24  H    0.164775
    25  C   -0.297964
    26  C   -0.300382
    27  C   -0.475907
    28  H    0.152006
    29  H    0.153385
    30  H    0.147835
    31  H    0.149888
    32  H    0.157508
    33  H    0.157249
    34  H    0.161391
 Sum of Mulliken charges =  -0.00000

 Dipole moment (field-independent basis, Debye):
    X=             -4.7795    Y=             -2.3568    Z=             -0.2874  Tot=              5.3367
 Quadrupole moment (field-independent basis, Debye-Ang):
   XX=           -123.1673   YY=            -91.0716   ZZ=            -92.4574
   XY=             -8.0791   XZ=             -2.0557   YZ=              2.3328

 Normal termination of Gaussian 16 at Thu May  6 06:14:09 2021.
