 Gaussian 16, Revision A.03,
 Gaussian 16:  EM64L-G16RevA.03 25-Dec-2016

 -------------
 #p 6-31g* mp2
 -------------

 ------------------------------------------------------
 Input file generated by CHIRIPA (05-May-2021 14:51:10)
 ------------------------------------------------------
 Symbolic Z-matrix:
 Charge =  0 Multiplicity = 1

                         Standard orientation:
 ---------------------------------------------------------------------
 Center     Atomic      Atomic             Coordinates (Angstroms)
 Number     Number       Type             X           Y           Z
 ---------------------------------------------------------------------
      1          6           0       -2.508276   -0.520814    0.053586
      2          6           0       -1.954279   -1.638559    0.937734
      3          6           0       -0.445115   -1.825237    0.778450
      4          1           0       -2.273581   -0.742255   -0.996570
      5          1           0       -1.993871    0.419058    0.297352
      6          1           0       -2.470549   -2.575763    0.693336
      7          1           0       -2.190486   -1.414528    1.985891
      8          1           0        0.086768   -0.905248    1.041740
      9          1           0       -0.194886   -2.073081   -0.258159
     10          1           0       -0.070166   -2.629194    1.419486
     11          6           0       -4.015693   -0.322082    0.201661
     12          6           0       -4.569690    0.795663   -0.682488
     13          6           0       -6.078853    0.982341   -0.523204
     14          1           0       -4.530098   -1.261954   -0.042105
     15          1           0       -4.250387   -0.100641    1.251817
     16          1           0       -4.333482    0.571632   -1.730644
     17          1           0       -4.053420    1.732867   -0.438089
     18          1           0       -6.329083    1.230185    0.513406
     19          1           0       -6.610737    0.062352   -0.786493
     20          1           0       -6.453803    1.786298   -1.164239
     21          6           0        3.327260   -0.294832    0.129501
     22          6           0        3.614876   -1.311878   -0.975434
     23          6           0        3.742761   -2.740329   -0.445373
     24          1           0        4.130221   -0.339199    0.877986
     25          1           0        2.400886   -0.578948    0.647676
     26          1           0        4.539694   -1.025157   -1.492272
     27          1           0        2.811236   -1.264950   -1.721474
     28          1           0        2.818574   -3.050528    0.052881
     29          1           0        4.556853   -2.809372    0.283385
     30          1           0        3.948309   -3.450958   -1.251982
     31          6           0        3.196709    1.137729   -0.384748
     32          6           0        2.909092    2.154773    0.720187
     33          6           0        2.781208    3.583225    0.190127
     34          1           0        4.123082    1.421844   -0.902923
     35          1           0        2.393748    1.182095   -1.133233
     36          1           0        3.712733    2.107847    1.466227
     37          1           0        1.984275    1.868053    1.237025
     38          1           0        1.967116    3.652269   -0.538632
     39          1           0        3.705394    3.893424   -0.308128
     40          1           0        2.575660    4.293855    0.996735
 ---------------------------------------------------------------------

 SCF Done:  E(RHF) =  -470.733153753     A.U. after   11 cycles
 E2 =    -0.1583172864D+01 EUMP2 =    -0.47231632661724D+03

 The electronic state is 1-A.
 Alpha  occ. eigenvalues --  -11.21689 -11.21644 -11.21590 -11.21510 -11.21473
 Alpha  occ. eigenvalues --  -11.21409 -11.21323 -11.21219 -11.21196 -11.21103
 Alpha  occ. eigenvalues --  -11.21060 -11.20971  -1.08500  -1.08356  -1.03606
 Alpha  occ. eigenvalues --   -1.03466  -0.96061  -0.95913  -0.87085  -0.86928
 Alpha  occ. eigenvalues --   -0.79690  -0.79522  -0.78324  -0.78152  -0.65143
 Alpha  occ. eigenvalues --   -0.64988  -0.61005  -0.60870  -0.59427  -0.59280
 Alpha  occ. eigenvalues --   -0.57684  -0.57514  -0.55452  -0.55109  -0.52758
 Alpha  occ. eigenvalues --   -0.52618  -0.52520  -0.52313  -0.50073  -0.49789
 Alpha  occ. eigenvalues --   -0.48033  -0.47832  -0.46739  -0.46562  -0.45950
 Alpha  occ. eigenvalues --   -0.45790  -0.45690  -0.45403  -0.43846  -0.43715
 Alpha virt. eigenvalues --    0.20796   0.22919   0.23608   0.24533   0.25462
 Alpha virt. eigenvalues --    0.26589   0.27257   0.27343   0.27890   0.29291
 Alpha virt. eigenvalues --    0.30293   0.31034   0.31787   0.32179   0.32277

 Mulliken charges:
               1
     1  C   -0.298470
     2  C   -0.300388
     3  C   -0.479856
     4  H    0.149676
     5  H    0.149294
     6  H    0.152427
     7  H    0.152414
     8  H    0.157787
     9  H    0.156208
    10  H    0.161134
    11  C   -0.298336
    12  C   -0.299723
    13  C   -0.475753
    14  H    0.149742
    15  H    0.149846
    16  H    0.151981
    17  H    0.152001
    18  H    0.155277
    19  H    0.155263
    20  H    0.160421
    21  C   -0.306551
    22  C   -0.298532
    23  C   -0.478285
    24  H    0.148786
    25  H    0.159756
    26  H    0.151324
    27  H    0.151400
    28  H    0.158419
    29  H    0.154670
    30  H    0.159496
    31  C   -0.298035
    32  C   -0.299750
    33  C   -0.475680
    34  H    0.149278
    35  H    0.149596
    36  H    0.152102
    37  H    0.150555
    38  H    0.155168
    39  H    0.155355
    40  H    0.159980
 Sum of Mulliken charges =  -0.00000

 Dipole moment (field-independent basis, Debye):
    X=             -0.0570    Y=             -0.0184    Z=              0.0153  Tot=              0.0618
 Quadrupole moment (field-independent basis, Debye-Ang):
   XX=            -85.0525   YY=            -85.5821   ZZ=            -84.2629
   XY=              0.6920   XZ=              0.2731   YZ=              0.7419

 Normal termination of Gaussian 16 at Thu May  6 00:36:46 2021.
