 Gaussian 16, Revision A.03,
 Gaussian 16:  EM64L-G16RevA.03 25-Dec-2016

 -------------
 #p 6-31g* mp2
 -------------

 ------------------------------------------------------
 Input file generated by CHIRIPA (05-May-2021 14:53:17)
 ------------------------------------------------------
 Symbolic Z-matrix:
 Charge =  0 Multiplicity = 1

                         Standard orientation:
 ---------------------------------------------------------------------
 Center     Atomic      Atomic             Coordinates (Angstroms)
 Number     Number       Type             X           Y           Z
 ---------------------------------------------------------------------
      1          6           0       -3.408493    0.945251   -0.629673
      2          6           0       -2.313420    1.629092    0.189571
      3          6           0       -1.452617    2.575528   -0.647729
      4          1           0       -2.945716    0.388164   -1.455770
      5          1           0       -4.046473    1.712925   -1.089078
      6          1           0       -1.678525    0.860337    0.648419
      7          1           0       -2.778844    2.184460    1.013927
      8          1           0       -2.068314    3.363327   -1.093701
      9          1           0       -0.961744    2.031681   -1.461286
     10          1           0       -0.676224    3.053573   -0.042299
     11          6           0       -4.277411   -0.004024    0.193483
     12          6           0       -5.372484   -0.687865   -0.625762
     13          6           0       -6.233287   -1.634301    0.211538
     14          1           0       -3.639431   -0.771698    0.652888
     15          1           0       -4.740188    0.553063    1.019579
     16          1           0       -4.907059   -1.243233   -1.450118
     17          1           0       -6.007378    0.080890   -1.084610
     18          1           0       -6.724160   -1.090454    1.025095
     19          1           0       -5.617589   -2.422100    0.657510
     20          1           0       -7.009680   -2.112346   -0.393892
     21          6           0        5.338743    0.070148   -0.675369
     22          6           0        4.750494    0.947198    0.241836
     23          6           0        3.456503    0.714506    0.717221
     24          6           0        2.776428   -0.409993    0.252151
     25          6           0        3.335376   -1.302316   -0.661426
     26          6           0        4.630555   -1.049836   -1.123284
     27          1           0        6.344407    0.258596   -1.039406
     28          1           0        5.298122    1.817791    0.591431
     29          1           0        2.977154    1.377168    1.427518
     30          1           0        2.764612   -2.161754   -0.991597
     31          1           0        5.084888   -1.732675   -1.835575
     32          7           0        1.405909   -0.666809    0.748260
     33          8           0        0.827751   -1.664596    0.323063
     34          8           0        0.935805    0.134548    1.552912
 ---------------------------------------------------------------------

 SCF Done:  E(RHF) =  -669.536624441     A.U. after   15 cycles
 E2 =    -0.2091345713D+01 EUMP2 =    -0.67162797015482D+03

 The electronic state is 1-A.
 Alpha  occ. eigenvalues --  -20.61050 -20.61024 -15.86050 -11.31334 -11.27891
 Alpha  occ. eigenvalues --  -11.27886 -11.27622 -11.26888 -11.26878 -11.20723
 Alpha  occ. eigenvalues --  -11.20299 -11.20293 -11.20231 -11.20136 -11.20074
 Alpha  occ. eigenvalues --   -1.60087  -1.39644  -1.19496  -1.08909  -1.07326
 Alpha  occ. eigenvalues --   -1.04886  -1.02479  -0.95757  -0.94985  -0.86289
 Alpha  occ. eigenvalues --   -0.86010  -0.82592  -0.78540  -0.77651  -0.77109
 Alpha  occ. eigenvalues --   -0.72267  -0.71396  -0.70606  -0.65152  -0.64890
 Alpha  occ. eigenvalues --   -0.63947  -0.62234  -0.59874  -0.58350  -0.56575
 Alpha  occ. eigenvalues --   -0.55394  -0.54290  -0.53218  -0.52978  -0.51708
 Alpha  occ. eigenvalues --   -0.51410  -0.49135  -0.49030  -0.48877  -0.46857
 Alpha  occ. eigenvalues --   -0.45568  -0.45076  -0.44688  -0.44424  -0.42733
 Alpha  occ. eigenvalues --   -0.37471  -0.36484
 Alpha virt. eigenvalues --    0.04847   0.11171   0.16345   0.21295   0.23944
 Alpha virt. eigenvalues --    0.25238   0.27218   0.27742   0.28141   0.28751
 Alpha virt. eigenvalues --    0.28935   0.30880   0.32174   0.32356   0.32885

 Mulliken charges:
               1
     1  C   -0.296838
     2  C   -0.310183
     3  C   -0.473872
     4  H    0.148368
     5  H    0.143181
     6  H    0.181137
     7  H    0.146722
     8  H    0.149371
     9  H    0.149714
    10  H    0.157936
    11  C   -0.299518
    12  C   -0.298781
    13  C   -0.475366
    14  H    0.158493
    15  H    0.146877
    16  H    0.151184
    17  H    0.148618
    18  H    0.153659
    19  H    0.156733
    20  H    0.156921
    21  C   -0.170401
    22  C   -0.218539
    23  C   -0.170301
    24  C    0.158759
    25  C   -0.170767
    26  C   -0.218593
    27  H    0.226185
    28  H    0.224047
    29  H    0.275963
    30  H    0.275766
    31  H    0.223943
    32  N    0.488412
    33  O   -0.459981
    34  O   -0.458852
 Sum of Mulliken charges =  -0.00000

 Dipole moment (field-independent basis, Debye):
    X=              5.1547    Y=              0.7484    Z=             -1.6104  Tot=              5.4520
 Quadrupole moment (field-independent basis, Debye-Ang):
   XX=            -69.6074   YY=            -92.8136   ZZ=            -94.9400
   XY=              0.1654   XZ=             -3.8001   YZ=              4.4019

 Normal termination of Gaussian 16 at Thu May  6 04:23:14 2021.
