 Gaussian 16, Revision A.03,
 Gaussian 16:  EM64L-G16RevA.03 25-Dec-2016

 -------------
 #p 6-31g* mp2
 -------------

 ------------------------------------------------------
 Input file generated by CHIRIPA (05-May-2021 14:55:20)
 ------------------------------------------------------
 Symbolic Z-matrix:
 Charge =  0 Multiplicity = 1

                         Standard orientation:
 ---------------------------------------------------------------------
 Center     Atomic      Atomic             Coordinates (Angstroms)
 Number     Number       Type             X           Y           Z
 ---------------------------------------------------------------------
      1          6           0        2.603647    2.541664    0.672342
      2          6           0        1.567986    1.608436    0.786414
      3          6           0        1.735045    0.301653    0.318483
      4          6           0        2.956361   -0.039296   -0.260680
      5          6           0        4.007121    0.867794   -0.388675
      6          6           0        3.817769    2.169021    0.086195
      7          1           0        2.465213    3.554646    1.038537
      8          1           0        0.624006    1.895030    1.241177
      9          1           0        0.949952   -0.440858    0.394139
     10          1           0        4.936767    0.552550   -0.846711
     11          1           0        4.623825    2.891678   -0.003721
     12          7           0        3.145019   -1.419787   -0.759731
     13          8           0        4.230592   -1.695214   -1.266000
     14          8           0        2.203744   -2.200250   -0.635167
     15          6           0       -3.268956   -0.811707    0.406298
     16          6           0       -2.456099   -0.550759    1.674822
     17          6           0       -1.509670   -1.701639    2.017669
     18          1           0       -3.846227   -1.737882    0.532399
     19          1           0       -2.580788   -0.984116   -0.432807
     20          1           0       -3.145597   -0.377524    2.511003
     21          1           0       -1.880841    0.375004    1.545760
     22          1           0       -0.799000   -1.871869    1.202456
     23          1           0       -2.070941   -2.628673    2.173184
     24          1           0       -0.938470   -1.494115    2.927901
     25          6           0       -4.219731    0.329848    0.050485
     26          6           0       -5.032588    0.068901   -1.218040
     27          6           0       -5.979016    1.219781   -1.560886
     28          1           0       -4.907899    0.502258    0.889589
     29          1           0       -3.642459    1.256024   -0.075617
     30          1           0       -5.607845   -0.856863   -1.088977
     31          1           0       -4.343090   -0.104334   -2.054221
     32          1           0       -5.417745    2.146815   -1.716402
     33          1           0       -6.689687    1.390011   -0.745674
     34          1           0       -6.550217    1.012257   -2.471119
 ---------------------------------------------------------------------

 SCF Done:  E(RHF) =  -669.535549589     A.U. after   15 cycles
 E2 =    -0.2091690096D+01 EUMP2 =    -0.67162723968418D+03

 The electronic state is 1-A.
 Alpha  occ. eigenvalues --  -20.60774 -20.60769 -15.85823 -11.31167 -11.27744
 Alpha  occ. eigenvalues --  -11.27713 -11.27489 -11.26760 -11.26744 -11.22172
 Alpha  occ. eigenvalues --  -11.21814 -11.21736 -11.21676 -11.21436 -11.21269
 Alpha  occ. eigenvalues --   -1.59846  -1.39401  -1.19345  -1.08785  -1.08745
 Alpha  occ. eigenvalues --   -1.04748  -1.03880  -0.96303  -0.95581  -0.87314
 Alpha  occ. eigenvalues --   -0.86147  -0.82414  -0.79940  -0.78581  -0.77467
 Alpha  occ. eigenvalues --   -0.72044  -0.71167  -0.70468  -0.65443  -0.64996
 Alpha  occ. eigenvalues --   -0.64759  -0.62201  -0.61189  -0.59672  -0.57907
 Alpha  occ. eigenvalues --   -0.55634  -0.55205  -0.53080  -0.52995  -0.52873
 Alpha  occ. eigenvalues --   -0.52678  -0.50223  -0.48803  -0.48797  -0.48240
 Alpha  occ. eigenvalues --   -0.46990  -0.46125  -0.46038  -0.44809  -0.44119
 Alpha  occ. eigenvalues --   -0.37330  -0.36348
 Alpha virt. eigenvalues --    0.05069   0.11300   0.16562   0.18833   0.22915
 Alpha virt. eigenvalues --    0.23757   0.25044   0.26053   0.27428   0.28257
 Alpha virt. eigenvalues --    0.29178   0.29748   0.31419   0.31553   0.32249

 Mulliken charges:
               1
     1  C   -0.170504
     2  C   -0.225073
     3  C   -0.177263
     4  C    0.156966
     5  C   -0.169910
     6  C   -0.219070
     7  H    0.225677
     8  H    0.226003
     9  H    0.288177
    10  H    0.275564
    11  H    0.223367
    12  N    0.487199
    13  O   -0.460117
    14  O   -0.462129
    15  C   -0.299027
    16  C   -0.301940
    17  C   -0.485381
    18  H    0.153614
    19  H    0.152313
    20  H    0.154814
    21  H    0.139884
    22  H    0.163819
    23  H    0.162414
    24  H    0.160170
    25  C   -0.297880
    26  C   -0.300211
    27  C   -0.475835
    28  H    0.149843
    29  H    0.146021
    30  H    0.153623
    31  H    0.153830
    32  H    0.154173
    33  H    0.155148
    34  H    0.161718
 Sum of Mulliken charges =  -0.00000

 Dipole moment (field-independent basis, Debye):
    X=             -0.7775    Y=              4.7366    Z=              1.7439  Tot=              5.1070
 Quadrupole moment (field-independent basis, Debye-Ang):
   XX=            -93.9800   YY=            -95.6141   ZZ=            -95.8524
   XY=             17.0590   XZ=              3.1930   YZ=             -1.8027

 Normal termination of Gaussian 16 at Thu May  6 06:07:24 2021.
