 Gaussian 16, Revision A.03,
 Gaussian 16:  EM64L-G16RevA.03 25-Dec-2016

 -------------
 #p 6-31g* mp2
 -------------

 ------------------------------------------------------
 Input file generated by CHIRIPA (05-May-2021 14:55:19)
 ------------------------------------------------------
 Symbolic Z-matrix:
 Charge =  0 Multiplicity = 1

                         Standard orientation:
 ---------------------------------------------------------------------
 Center     Atomic      Atomic             Coordinates (Angstroms)
 Number     Number       Type             X           Y           Z
 ---------------------------------------------------------------------
      1          6           0       -1.213406   -2.533540   -0.119758
      2          6           0       -0.591086   -1.310682   -0.391526
      3          6           0       -1.319996   -0.118404   -0.350171
      4          6           0       -2.675566   -0.186052   -0.032141
      5          6           0       -3.324100   -1.388843    0.243521
      6          6           0       -2.575525   -2.568656    0.196340
      7          1           0       -0.639533   -3.454889   -0.154147
      8          1           0        0.466612   -1.280390   -0.637299
      9          1           0       -0.863365    0.842033   -0.556247
     10          1           0       -4.379969   -1.387208    0.485505
     11          1           0       -3.061463   -3.516903    0.407851
     12          7           0       -3.457640    1.069561    0.014723
     13          8           0       -4.650629    0.983089    0.297453
     14          8           0       -2.862831    2.116407   -0.232161
     15          6           0        3.825183    0.009234    0.191988
     16          6           0        3.469283   -1.436100   -0.157768
     17          6           0        4.610553   -2.412110    0.129811
     18          1           0        4.717017    0.308188   -0.375643
     19          1           0        4.097857    0.065422    1.254949
     20          1           0        3.196025   -1.489296   -1.219426
     21          1           0        2.578080   -1.731585    0.410616
     22          1           0        4.879464   -2.388541    1.190816
     23          1           0        5.500922   -2.144875   -0.448487
     24          1           0        4.334629   -3.439493   -0.127502
     25          6           0        2.694295    0.996827   -0.089934
     26          6           0        3.050195    2.442162    0.259822
     27          6           0        1.908925    3.418171   -0.027757
     28          1           0        2.421621    0.940638   -1.152895
     29          1           0        1.802461    0.697874    0.477697
     30          1           0        3.941399    2.737646   -0.308562
     31          1           0        3.323453    2.495356    1.321480
     32          1           0        1.018557    3.150935    0.550541
     33          1           0        1.640014    3.394601   -1.088762
     34          1           0        2.184849    4.445554    0.229556
 ---------------------------------------------------------------------

 SCF Done:  E(RHF) =  -669.535367341     A.U. after   15 cycles
 E2 =    -0.2093113902D+01 EUMP2 =    -0.67162848124276D+03

 The electronic state is 1-A.
 Alpha  occ. eigenvalues --  -20.60694 -20.60689 -15.85744 -11.31085 -11.27662
 Alpha  occ. eigenvalues --  -11.27607 -11.27379 -11.26679 -11.26542 -11.22688
 Alpha  occ. eigenvalues --  -11.22244 -11.22181 -11.22055 -11.21928 -11.21276
 Alpha  occ. eigenvalues --   -1.59770  -1.39324  -1.19251  -1.09240  -1.08650
 Alpha  occ. eigenvalues --   -1.04643  -1.04227  -0.96636  -0.95492  -0.87655
 Alpha  occ. eigenvalues --   -0.86048  -0.82333  -0.80344  -0.79121  -0.77334
 Alpha  occ. eigenvalues --   -0.71962  -0.71093  -0.70362  -0.65867  -0.64898
 Alpha  occ. eigenvalues --   -0.64645  -0.61993  -0.61604  -0.60049  -0.58267
 Alpha  occ. eigenvalues --   -0.55896  -0.55156  -0.53343  -0.53075  -0.52975
 Alpha  occ. eigenvalues --   -0.52717  -0.50578  -0.48756  -0.48719  -0.48573
 Alpha  occ. eigenvalues --   -0.47363  -0.46524  -0.46482  -0.44734  -0.44494
 Alpha  occ. eigenvalues --   -0.37238  -0.36232
 Alpha virt. eigenvalues --    0.05121   0.11324   0.16536   0.20312   0.22683
 Alpha virt. eigenvalues --    0.22711   0.25097   0.25878   0.26596   0.28031
 Alpha virt. eigenvalues --    0.30183   0.30675   0.30786   0.31430   0.31914

 Mulliken charges:
               1
     1  C   -0.174106
     2  C   -0.227627
     3  C   -0.177379
     4  C    0.158715
     5  C   -0.171305
     6  C   -0.218439
     7  H    0.225347
     8  H    0.239140
     9  H    0.279195
    10  H    0.275124
    11  H    0.222872
    12  N    0.487997
    13  O   -0.460835
    14  O   -0.460684
    15  C   -0.296224
    16  C   -0.308723
    17  C   -0.474755
    18  H    0.153727
    19  H    0.153554
    20  H    0.150066
    21  H    0.148138
    22  H    0.158600
    23  H    0.159086
    24  H    0.159491
    25  C   -0.308254
    26  C   -0.299785
    27  C   -0.479806
    28  H    0.147118
    29  H    0.149453
    30  H    0.153761
    31  H    0.154423
    32  H    0.161312
    33  H    0.156132
    34  H    0.164670
 Sum of Mulliken charges =  -0.00000

 Dipole moment (field-independent basis, Debye):
    X=              2.9924    Y=             -4.2877    Z=             -0.1123  Tot=              5.2299
 Quadrupole moment (field-independent basis, Debye-Ang):
   XX=           -105.9611   YY=            -92.3529   ZZ=            -94.4152
   XY=             14.6356   XZ=             -1.0677   YZ=             -0.5190

 Normal termination of Gaussian 16 at Thu May  6 15:43:40 2021.
