 Gaussian 16, Revision A.03,
 Gaussian 16:  EM64L-G16RevA.03 25-Dec-2016

 -------------
 #p 6-31g* mp2
 -------------

 ------------------------------------------------------
 Input file generated by CHIRIPA (05-May-2021 14:53:16)
 ------------------------------------------------------
 Symbolic Z-matrix:
 Charge =  0 Multiplicity = 1

                         Standard orientation:
 ---------------------------------------------------------------------
 Center     Atomic      Atomic             Coordinates (Angstroms)
 Number     Number       Type             X           Y           Z
 ---------------------------------------------------------------------
      1          6           0       -3.963754   -0.043232    0.194897
      2          6           0       -4.733432    0.604220   -0.956792
      3          6           0       -5.723010    1.668649   -0.481904
      4          1           0       -4.678221   -0.492497    0.898205
      5          1           0       -3.425752    0.736684    0.751386
      6          1           0       -5.268714   -0.176856   -1.511778
      7          1           0       -4.017041    1.051829   -1.657539
      8          1           0       -5.201124    2.468237    0.053721
      9          1           0       -6.459909    1.232571    0.200310
     10          1           0       -6.262317    2.118461   -1.321355
     11          6           0       -2.970567   -1.109432   -0.263933
     12          6           0       -2.200890   -1.756883    0.887756
     13          6           0       -1.211312   -2.821313    0.412868
     14          1           0       -3.508570   -1.889348   -0.820422
     15          1           0       -2.256100   -0.660167   -0.967241
     16          1           0       -2.917281   -2.204493    1.588503
     17          1           0       -1.665607   -0.975807    1.442742
     18          1           0       -0.474413   -2.385234   -0.269346
     19          1           0       -1.733198   -3.620901   -0.122757
     20          1           0       -0.672005   -3.271124    1.252319
     21          6           0        1.408084    2.507618    0.691459
     22          6           0        0.857463    1.237126    0.889420
     23          6           0        1.569093    0.090241    0.525023
     24          6           0        2.834460    0.251361   -0.037273
     25          6           0        3.410093    1.503508   -0.247187
     26          6           0        2.680400    2.636526    0.124786
     27          1           0        0.848257    3.393159    0.977473
     28          1           0       -0.130425    1.133991    1.329293
     29          1           0        1.166677   -0.905397    0.667089
     30          1           0        4.397083    1.574465   -0.687909
     31          1           0        3.110520    3.621942   -0.030125
     32          7           0        3.597393   -0.955454   -0.427054
     33          8           0        4.710313   -0.786614   -0.920551
     34          8           0        3.068014   -2.047345   -0.231687
 ---------------------------------------------------------------------

 SCF Done:  E(RHF) =  -669.535241157     A.U. after   15 cycles
 E2 =    -0.2092459841D+01 EUMP2 =    -0.67162770099821D+03

 The electronic state is 1-A.
 Alpha  occ. eigenvalues --  -20.60758 -20.60753 -15.85807 -11.31167 -11.27749
 Alpha  occ. eigenvalues --  -11.27694 -11.27494 -11.26767 -11.26747 -11.22289
 Alpha  occ. eigenvalues --  -11.22097 -11.21999 -11.21918 -11.21538 -11.21429
 Alpha  occ. eigenvalues --   -1.59831  -1.39385  -1.19347  -1.09011  -1.08744
 Alpha  occ. eigenvalues --   -1.04757  -1.04063  -0.96486  -0.95576  -0.87492
 Alpha  occ. eigenvalues --   -0.86148  -0.82412  -0.80122  -0.78820  -0.77463
 Alpha  occ. eigenvalues --   -0.72027  -0.71154  -0.70472  -0.65689  -0.64994
 Alpha  occ. eigenvalues --   -0.64768  -0.62295  -0.61275  -0.59841  -0.58092
 Alpha  occ. eigenvalues --   -0.55815  -0.55214  -0.53147  -0.53081  -0.52906
 Alpha  occ. eigenvalues --   -0.52840  -0.50390  -0.48787  -0.48782  -0.48420
 Alpha  occ. eigenvalues --   -0.47180  -0.46352  -0.46288  -0.44788  -0.44310
 Alpha  occ. eigenvalues --   -0.37333  -0.36351
 Alpha virt. eigenvalues --    0.05047   0.11256   0.16523   0.18710   0.22862
 Alpha virt. eigenvalues --    0.23664   0.24646   0.26331   0.26978   0.28534
 Alpha virt. eigenvalues --    0.29578   0.30858   0.31222   0.31551   0.32310

 Mulliken charges:
               1
     1  C   -0.297161
     2  C   -0.300213
     3  C   -0.475646
     4  H    0.151958
     5  H    0.141606
     6  H    0.154621
     7  H    0.152366
     8  H    0.152816
     9  H    0.156420
    10  H    0.162065
    11  C   -0.299585
    12  C   -0.303480
    13  C   -0.484006
    14  H    0.154107
    15  H    0.150875
    16  H    0.156360
    17  H    0.140022
    18  H    0.159997
    19  H    0.161948
    20  H    0.165258
    21  C   -0.170726
    22  C   -0.225341
    23  C   -0.179375
    24  C    0.157844
    25  C   -0.170306
    26  C   -0.218783
    27  H    0.225651
    28  H    0.227333
    29  H    0.287993
    30  H    0.275562
    31  H    0.223393
    32  N    0.487556
    33  O   -0.460388
    34  O   -0.460739
 Sum of Mulliken charges =  -0.00000

 Dipole moment (field-independent basis, Debye):
    X=             -2.8018    Y=              4.0995    Z=              1.2863  Tot=              5.1293
 Quadrupole moment (field-independent basis, Debye-Ang):
   XX=           -107.0203   YY=            -90.9119   ZZ=            -95.2342
   XY=             15.4030   XZ=              2.9337   YZ=             -1.0466

 Normal termination of Gaussian 16 at Thu May  6 04:18:35 2021.
