 Gaussian 16, Revision A.03,
 Gaussian 16:  EM64L-G16RevA.03 25-Dec-2016

 -------------
 #p 6-31g* mp2
 -------------

 ------------------------------------------------------
 Input file generated by CHIRIPA (05-May-2021 14:55:20)
 ------------------------------------------------------
 Symbolic Z-matrix:
 Charge =  0 Multiplicity = 1

                         Standard orientation:
 ---------------------------------------------------------------------
 Center     Atomic      Atomic             Coordinates (Angstroms)
 Number     Number       Type             X           Y           Z
 ---------------------------------------------------------------------
      1          6           0       -2.151661    2.310274   -0.434513
      2          6           0       -1.201594    1.289966   -0.321084
      3          6           0       -1.601500   -0.030993   -0.098171
      4          6           0       -2.965850   -0.297169    0.006653
      5          6           0       -3.936494    0.697500   -0.101852
      6          6           0       -3.513678    2.011312   -0.324728
      7          1           0       -1.832105    3.333650   -0.607663
      8          1           0       -0.143155    1.519214   -0.405923
      9          1           0       -0.887228   -0.840195   -0.006381
     10          1           0       -4.984446    0.438094   -0.012839
     11          1           0       -4.253738    2.801672   -0.412402
     12          7           0       -3.401340   -1.691825    0.242621
     13          8           0       -4.609373   -1.900254    0.331222
     14          8           0       -2.526398   -2.550120    0.334505
     15          6           0        3.253663    0.677672   -0.132991
     16          6           0        3.580894    1.943571    0.659730
     17          6           0        2.670595    3.118192    0.299989
     18          1           0        3.337917    0.893189   -1.206954
     19          1           0        2.206161    0.400070    0.048866
     20          1           0        4.627865    2.217919    0.477519
     21          1           0        3.496039    1.724964    1.731936
     22          1           0        1.623247    2.868838    0.498696
     23          1           0        2.761505    3.364595   -0.762848
     24          1           0        2.921985    4.012718    0.878337
     25          6           0        4.155173   -0.505353    0.215519
     26          6           0        3.827941   -1.771251   -0.577201
     27          6           0        4.738240   -2.945873   -0.217460
     28          1           0        5.202674   -0.227750    0.033663
     29          1           0        4.070919   -0.720870    1.289483
     30          1           0        3.912797   -1.552644   -1.649407
     31          1           0        2.780970   -2.045599   -0.394990
     32          1           0        4.647330   -3.192275    0.845377
     33          1           0        5.785589   -2.696518   -0.416167
     34          1           0        4.486851   -3.840399   -0.795809
 ---------------------------------------------------------------------

 SCF Done:  E(RHF) =  -669.535448421     A.U. after   15 cycles
 E2 =    -0.2091707418D+01 EUMP2 =    -0.67162715583947D+03

 The electronic state is 1-A.
 Alpha  occ. eigenvalues --  -20.60736 -20.60731 -15.85789 -11.31143 -11.27712
 Alpha  occ. eigenvalues --  -11.27704 -11.27439 -11.26723 -11.26662 -11.22432
 Alpha  occ. eigenvalues --  -11.22264 -11.22139 -11.21996 -11.21916 -11.21291
 Alpha  occ. eigenvalues --   -1.59812  -1.39366  -1.19311  -1.09115  -1.08706
 Alpha  occ. eigenvalues --   -1.04713  -1.04165  -0.96640  -0.95545  -0.87656
 Alpha  occ. eigenvalues --   -0.86113  -0.82381  -0.80257  -0.78911  -0.77425
 Alpha  occ. eigenvalues --   -0.72008  -0.71134  -0.70419  -0.65776  -0.64961
 Alpha  occ. eigenvalues --   -0.64720  -0.62117  -0.61504  -0.60015  -0.58234
 Alpha  occ. eigenvalues --   -0.55950  -0.55209  -0.53300  -0.53116  -0.53033
 Alpha  occ. eigenvalues --   -0.52785  -0.50584  -0.48786  -0.48764  -0.48526
 Alpha  occ. eigenvalues --   -0.47269  -0.46433  -0.46335  -0.44774  -0.44424
 Alpha  occ. eigenvalues --   -0.37289  -0.36313
 Alpha virt. eigenvalues --    0.05105   0.11281   0.16584   0.19104   0.22632
 Alpha virt. eigenvalues --    0.23487   0.24655   0.26267   0.26513   0.28584
 Alpha virt. eigenvalues --    0.29765   0.30183   0.31027   0.31283   0.31740

 Mulliken charges:
               1
     1  C   -0.172737
     2  C   -0.228164
     3  C   -0.173227
     4  C    0.159003
     5  C   -0.171201
     6  C   -0.218458
     7  H    0.226158
     8  H    0.236693
     9  H    0.275003
    10  H    0.275430
    11  H    0.223240
    12  N    0.488039
    13  O   -0.460583
    14  O   -0.460694
    15  C   -0.301008
    16  C   -0.299982
    17  C   -0.480849
    18  H    0.151131
    19  H    0.141619
    20  H    0.156322
    21  H    0.155655
    22  H    0.147773
    23  H    0.156100
    24  H    0.165595
    25  C   -0.298882
    26  C   -0.300411
    27  C   -0.476252
    28  H    0.151920
    29  H    0.152358
    30  H    0.152376
    31  H    0.152227
    32  H    0.157058
    33  H    0.155236
    34  H    0.163512
 Sum of Mulliken charges =  -0.00000

 Dipole moment (field-independent basis, Debye):
    X=              1.7761    Y=              4.8839    Z=             -0.8100  Tot=              5.2596
 Quadrupole moment (field-independent basis, Debye-Ang):
   XX=            -98.2031   YY=            -98.3021   ZZ=            -95.1133
   XY=            -16.1381   XZ=              2.0766   YZ=              0.2408

 Normal termination of Gaussian 16 at Wed May  5 17:23:26 2021.
