 Gaussian 16, Revision A.03,
 Gaussian 16:  EM64L-G16RevA.03 25-Dec-2016

 -------------
 #p 6-31g* mp2
 -------------

 ------------------------------------------------------
 Input file generated by CHIRIPA (05-May-2021 14:55:19)
 ------------------------------------------------------
 Symbolic Z-matrix:
 Charge =  0 Multiplicity = 1

                         Standard orientation:
 ---------------------------------------------------------------------
 Center     Atomic      Atomic             Coordinates (Angstroms)
 Number     Number       Type             X           Y           Z
 ---------------------------------------------------------------------
      1          6           0        0.610281   -1.253202    1.772179
      2          6           0        1.322776   -0.127177    2.197550
      3          6           0        2.255653    0.483216    1.353921
      4          6           0        2.451847   -0.061248    0.085711
      5          6           0        1.757541   -1.182089   -0.366997
      6          6           0        0.829551   -1.776142    0.493517
      7          1           0       -0.112502   -1.721023    2.434088
      8          1           0        1.154548    0.281114    3.190043
      9          1           0        2.820980    1.355869    1.657729
     10          1           0        1.946942   -1.566244   -1.361969
     11          1           0        0.277659   -2.650531    0.160495
     12          7           0        3.436855    0.576298   -0.816338
     13          8           0        3.591379    0.077334   -1.928900
     14          8           0        4.035729    1.562900   -0.393723
     15          6           0       -2.885771    0.917817   -0.590710
     16          6           0       -3.166630    2.015928    0.435572
     17          6           0       -3.073242    3.420587   -0.161091
     18          1           0       -1.884983    1.070742   -1.017306
     19          1           0       -3.597770    1.012034   -1.422319
     20          1           0       -2.455199    1.918818    1.265664
     21          1           0       -4.166790    1.860260    0.859913
     22          1           0       -3.794230    3.541693   -0.976022
     23          1           0       -2.072915    3.600584   -0.567965
     24          1           0       -3.277586    4.190144    0.589833
     25          6           0       -2.975365   -0.492029   -0.009302
     26          6           0       -2.694504   -1.590140   -1.035584
     27          6           0       -2.787892   -2.994799   -0.438923
     28          1           0       -2.263364   -0.586245    0.822307
     29          1           0       -3.976152   -0.644954    0.417293
     30          1           0       -1.694345   -1.434472   -1.459926
     31          1           0       -3.405935   -1.493030   -1.865676
     32          1           0       -3.788220   -3.174796   -0.032047
     33          1           0       -2.066905   -3.115905    0.376008
     34          1           0       -2.583549   -3.764356   -1.189845
 ---------------------------------------------------------------------

 SCF Done:  E(RHF) =  -669.535037131     A.U. after   15 cycles
 E2 =    -0.2093825467D+01 EUMP2 =    -0.67162886259855D+03

 The electronic state is 1-A.
 Alpha  occ. eigenvalues --  -20.60837 -20.60831 -15.85890 -11.31286 -11.27849
 Alpha  occ. eigenvalues --  -11.27843 -11.27596 -11.26880 -11.26834 -11.22280
 Alpha  occ. eigenvalues --  -11.22071 -11.21941 -11.21921 -11.21725 -11.21285
 Alpha  occ. eigenvalues --   -1.59912  -1.39464  -1.19463  -1.08968  -1.08819
 Alpha  occ. eigenvalues --   -1.04869  -1.04074  -0.96535  -0.95683  -0.87550
 Alpha  occ. eigenvalues --   -0.86262  -0.82509  -0.80143  -0.78716  -0.77554
 Alpha  occ. eigenvalues --   -0.72108  -0.71236  -0.70572  -0.65703  -0.65109
 Alpha  occ. eigenvalues --   -0.64806  -0.62313  -0.61348  -0.59917  -0.58128
 Alpha  occ. eigenvalues --   -0.55892  -0.55326  -0.53233  -0.53188  -0.53022
 Alpha  occ. eigenvalues --   -0.52844  -0.50473  -0.48866  -0.48861  -0.48450
 Alpha  occ. eigenvalues --   -0.47184  -0.46265  -0.46168  -0.44863  -0.44296
 Alpha  occ. eigenvalues --   -0.37400  -0.36442
 Alpha virt. eigenvalues --    0.04932   0.11106   0.16301   0.19607   0.22908
 Alpha virt. eigenvalues --    0.23972   0.25613   0.26339   0.26615   0.28169
 Alpha virt. eigenvalues --    0.28936   0.30379   0.31089   0.31432   0.31736

 Mulliken charges:
               1
     1  C   -0.173002
     2  C   -0.219578
     3  C   -0.171067
     4  C    0.158785
     5  C   -0.173331
     6  C   -0.218628
     7  H    0.226531
     8  H    0.224138
     9  H    0.276035
    10  H    0.276271
    11  H    0.231168
    12  N    0.487955
    13  O   -0.460026
    14  O   -0.460109
    15  C   -0.298849
    16  C   -0.299536
    17  C   -0.476372
    18  H    0.153708
    19  H    0.150848
    20  H    0.149406
    21  H    0.151274
    22  H    0.156248
    23  H    0.158025
    24  H    0.160354
    25  C   -0.299742
    26  C   -0.301946
    27  C   -0.478294
    28  H    0.146889
    29  H    0.149368
    30  H    0.151933
    31  H    0.156526
    32  H    0.160587
    33  H    0.141856
    34  H    0.162572
 Sum of Mulliken charges =  -0.00000

 Dipole moment (field-independent basis, Debye):
    X=             -3.4854    Y=             -2.1729    Z=              3.1162  Tot=              5.1556
 Quadrupole moment (field-independent basis, Debye-Ang):
   XX=           -111.1654   YY=            -93.7323   ZZ=            -92.0277
   XY=             -4.5721   XZ=              8.8604   YZ=              2.7057

 Normal termination of Gaussian 16 at Thu May  6 04:29:13 2021.
