 Gaussian 16, Revision A.03,
 Gaussian 16:  EM64L-G16RevA.03 25-Dec-2016

 -------------
 #p 6-31g* mp2
 -------------

 ------------------------------------------------------
 Input file generated by CHIRIPA (05-May-2021 14:51:13)
 ------------------------------------------------------
 Symbolic Z-matrix:
 Charge =  0 Multiplicity = 1

                         Standard orientation:
 ---------------------------------------------------------------------
 Center     Atomic      Atomic             Coordinates (Angstroms)
 Number     Number       Type             X           Y           Z
 ---------------------------------------------------------------------
      1          6           0        3.412969    0.547952    0.711178
      2          6           0        1.894610    0.703382    0.619473
      3          6           0        1.358646    1.815428    1.521632
      4          1           0        3.691847    0.342635    1.753779
      5          1           0        3.889037    1.501046    0.442169
      6          1           0        1.421588   -0.250121    0.887237
      7          1           0        1.619297    0.908163   -0.423064
      8          1           0        1.803436    2.778640    1.251475
      9          1           0        1.604604    1.613775    2.569221
     10          1           0        0.271229    1.909191    1.440438
     11          6           0        3.963769   -0.559851   -0.184992
     12          6           0        5.482129   -0.715282   -0.093287
     13          6           0        6.018093   -1.827328   -0.995446
     14          1           0        3.487701   -1.512945    0.084017
     15          1           0        3.684892   -0.354535   -1.227593
     16          1           0        5.757442   -0.920062    0.949250
     17          1           0        5.955151    0.238222   -0.361051
     18          1           0        5.772135   -1.625675   -2.043035
     19          1           0        5.573303   -2.790540   -0.725289
     20          1           0        7.105510   -1.921090   -0.914252
     21          6           0       -3.996580   -0.667517   -0.449858
     22          6           0       -4.619418   -1.399921    0.739109
     23          6           0       -5.231893   -2.745623    0.349552
     24          1           0       -4.764311   -0.513259   -1.220403
     25          1           0       -3.224506   -1.305895   -0.901264
     26          1           0       -5.389130   -0.759788    1.188986
     27          1           0       -3.850162   -1.552283    1.506994
     28          1           0       -4.470909   -3.405465   -0.079532
     29          1           0       -6.018621   -2.608467   -0.399346
     30          1           0       -5.671438   -3.252103    1.214501
     31          6           0       -3.380159    0.679416   -0.076328
     32          6           0       -2.757321    1.411821   -1.265296
     33          6           0       -2.144845    2.757522   -0.875737
     34          1           0       -4.152233    1.317796    0.375078
     35          1           0       -2.612428    0.525159    0.694217
     36          1           0       -3.526578    1.564183   -2.033180
     37          1           0       -1.987609    0.771688   -1.715172
     38          1           0       -1.358117    2.620367   -0.126839
     39          1           0       -2.905830    3.417364   -0.446654
     40          1           0       -1.705302    3.264003   -1.740687
 ---------------------------------------------------------------------

 SCF Done:  E(RHF) =  -470.733307574     A.U. after   11 cycles
 E2 =    -0.1582548590D+01 EUMP2 =    -0.47231585616395D+03

 The electronic state is 1-A.
 Alpha  occ. eigenvalues --  -11.21655 -11.21624 -11.21598 -11.21586 -11.21439
 Alpha  occ. eigenvalues --  -11.21402 -11.21379 -11.21343 -11.21120 -11.21090
 Alpha  occ. eigenvalues --  -11.21068 -11.21030  -1.08467  -1.08422  -1.03576
 Alpha  occ. eigenvalues --   -1.03512  -0.96036  -0.95953  -0.87059  -0.86963
 Alpha  occ. eigenvalues --   -0.79644  -0.79567  -0.78276  -0.78237  -0.65100
 Alpha  occ. eigenvalues --   -0.65053  -0.61013  -0.60907  -0.59435  -0.59299
 Alpha  occ. eigenvalues --   -0.57705  -0.57516  -0.55350  -0.55205  -0.52778
 Alpha  occ. eigenvalues --   -0.52660  -0.52486  -0.52300  -0.49977  -0.49869
 Alpha  occ. eigenvalues --   -0.48003  -0.47843  -0.46666  -0.46594  -0.45820
 Alpha  occ. eigenvalues --   -0.45775  -0.45744  -0.45696  -0.43803  -0.43772
 Alpha virt. eigenvalues --    0.20685   0.23093   0.23519   0.25154   0.26193
 Alpha virt. eigenvalues --    0.26555   0.27029   0.27657   0.27767   0.28921
 Alpha virt. eigenvalues --    0.30420   0.31261   0.31629   0.31824   0.32119

 Mulliken charges:
               1
     1  C   -0.298323
     2  C   -0.300301
     3  C   -0.481119
     4  H    0.149830
     5  H    0.149833
     6  H    0.151422
     7  H    0.152701
     8  H    0.155951
     9  H    0.155619
    10  H    0.164526
    11  C   -0.298320
    12  C   -0.299698
    13  C   -0.475733
    14  H    0.149431
    15  H    0.149717
    16  H    0.151995
    17  H    0.152042
    18  H    0.155222
    19  H    0.155171
    20  H    0.160353
    21  C   -0.298326
    22  C   -0.299661
    23  C   -0.475711
    24  H    0.149718
    25  H    0.149707
    26  H    0.151934
    27  H    0.151911
    28  H    0.155175
    29  H    0.155188
    30  H    0.160224
    31  C   -0.299073
    32  C   -0.299272
    33  C   -0.482870
    34  H    0.149592
    35  H    0.149672
    36  H    0.151869
    37  H    0.152104
    38  H    0.162329
    39  H    0.155117
    40  H    0.160057
 Sum of Mulliken charges =  -0.00000

 Dipole moment (field-independent basis, Debye):
    X=              0.0223    Y=              0.0035    Z=              0.0043  Tot=              0.0229
 Quadrupole moment (field-independent basis, Debye-Ang):
   XX=            -84.4657   YY=            -85.7025   ZZ=            -84.5506
   XY=             -0.3730   XZ=              0.3372   YZ=             -1.1754

 Normal termination of Gaussian 16 at Wed May  5 19:56:35 2021.
