 Gaussian 16, Revision A.03,
 Gaussian 16:  EM64L-G16RevA.03 25-Dec-2016

 -------------
 #p 6-31g* mp2
 -------------

 ------------------------------------------------------
 Input file generated by CHIRIPA (05-May-2021 14:57:26)
 ------------------------------------------------------
 Symbolic Z-matrix:
 Charge =  0 Multiplicity = 1

                         Standard orientation:
 ---------------------------------------------------------------------
 Center     Atomic      Atomic             Coordinates (Angstroms)
 Number     Number       Type             X           Y           Z
 ---------------------------------------------------------------------
      1          6           0        3.323039    2.658646   -0.249231
      2          6           0        4.629698    2.170260   -0.352404
      3          6           0        4.883569    0.798070   -0.267610
      4          6           0        3.802265   -0.061187   -0.078531
      5          6           0        2.489230    0.394748    0.028005
      6          6           0        2.258852    1.770896   -0.059690
      7          1           0        3.134951    3.726134   -0.316228
      8          1           0        5.458104    2.857365   -0.499626
      9          1           0        5.885275    0.392929   -0.344181
     10          1           0        1.683925   -0.314781    0.174534
     11          1           0        1.243050    2.147347    0.020781
     12          7           0        4.058592   -1.515959    0.012773
     13          8           0        3.088662   -2.252206    0.179545
     14          8           0        5.224577   -1.892416   -0.084164
     15          6           0       -1.477290   -0.984381    0.804735
     16          6           0       -2.069067   -1.493385   -0.355970
     17          6           0       -3.333483   -1.054159   -0.759558
     18          6           0       -3.980706   -0.100674    0.024827
     19          6           0       -3.417387    0.425488    1.186341
     20          6           0       -2.152149   -0.028256    1.570836
     21          1           0       -0.494742   -1.331222    1.110836
     22          1           0       -1.547289   -2.236005   -0.952885
     23          1           0       -3.814809   -1.431419   -1.653659
     24          1           0       -3.962036    1.164918    1.760813
     25          1           0       -1.694997    0.368802    2.472724
     26          7           0       -5.319721    0.371999   -0.392327
     27          8           0       -5.869228    1.212738    0.316077
     28          8           0       -5.794379   -0.107208   -1.419799
 ---------------------------------------------------------------------

 SCF Done:  E(RHF) =  -868.338335487     A.U. after   16 cycles
 E2 =    -0.2599557261D+01 EUMP2 =    -0.87093789274862D+03

 The electronic state is 1-A.
 Alpha  occ. eigenvalues --  -20.61558 -20.61515 -20.61027 -20.61018 -15.86588
 Alpha  occ. eigenvalues --  -15.86078 -11.31884 -11.31508 -11.28505 -11.28385
 Alpha  occ. eigenvalues --  -11.28106 -11.28078 -11.28020 -11.27802 -11.27424
 Alpha  occ. eigenvalues --  -11.27380 -11.27138 -11.27033  -1.60607  -1.60099
 Alpha  occ. eigenvalues --   -1.40168  -1.39651  -1.20033  -1.19674  -1.09428
 Alpha  occ. eigenvalues --   -1.09062  -1.05428  -1.05070  -0.96287  -0.95885
 Alpha  occ. eigenvalues --   -0.86828  -0.86461  -0.83123  -0.82706  -0.78199
 Alpha  occ. eigenvalues --   -0.77742  -0.72811  -0.72293  -0.71924  -0.71424
 Alpha  occ. eigenvalues --   -0.71197  -0.70724  -0.65683  -0.65423  -0.65315
 Alpha  occ. eigenvalues --   -0.65048  -0.62795  -0.62399  -0.55941  -0.55536
 Alpha  occ. eigenvalues --   -0.53751  -0.53516  -0.53395  -0.53143  -0.49581
 Alpha  occ. eigenvalues --   -0.49542  -0.49057  -0.49047  -0.45588  -0.45041
 Alpha  occ. eigenvalues --   -0.37985  -0.37681  -0.37029  -0.36678
 Alpha virt. eigenvalues --    0.04343   0.04725   0.10620   0.10955   0.15875
 Alpha virt. eigenvalues --    0.16043   0.19491   0.21793   0.25368   0.26929
 Alpha virt. eigenvalues --    0.27348   0.29160   0.30080   0.31013   0.32318

 Mulliken charges:
               1
     1  C   -0.170225
     2  C   -0.218193
     3  C   -0.169929
     4  C    0.159397
     5  C   -0.174938
     6  C   -0.220682
     7  H    0.228483
     8  H    0.226054
     9  H    0.277296
    10  H    0.269778
    11  H    0.226058
    12  N    0.488295
    13  O   -0.467570
    14  O   -0.456066
    15  C   -0.183133
    16  C   -0.219437
    17  C   -0.171212
    18  C    0.159182
    19  C   -0.171907
    20  C   -0.221507
    21  H    0.234090
    22  H    0.230815
    23  H    0.277370
    24  H    0.275759
    25  H    0.223523
    26  N    0.487907
    27  O   -0.460298
    28  O   -0.458911
 Sum of Mulliken charges =  -0.00000

 Dipole moment (field-independent basis, Debye):
    X=              3.8999    Y=              3.5139    Z=              1.0638  Tot=              5.3561
 Quadrupole moment (field-independent basis, Debye-Ang):
   XX=           -143.9756   YY=           -103.8075   ZZ=           -102.5781
   XY=             27.2301   XZ=             -7.7740   YZ=              2.1130

 Normal termination of Gaussian 16 at Thu May  6 01:59:13 2021.
