 Gaussian 16, Revision A.03,
 Gaussian 16:  EM64L-G16RevA.03 25-Dec-2016

 -------------
 #p 6-31g* mp2
 -------------

 ------------------------------------------------------
 Input file generated by CHIRIPA (05-May-2021 14:55:20)
 ------------------------------------------------------
 Symbolic Z-matrix:
 Charge =  0 Multiplicity = 1

                         Standard orientation:
 ---------------------------------------------------------------------
 Center     Atomic      Atomic             Coordinates (Angstroms)
 Number     Number       Type             X           Y           Z
 ---------------------------------------------------------------------
      1          6           0        4.322726   -1.801455   -0.998215
      2          6           0        3.329223   -1.098080   -1.687226
      3          6           0        2.563604   -0.127674   -1.034012
      4          6           0        2.819397    0.114941    0.314690
      5          6           0        3.802134   -0.569130    1.028529
      6          6           0        4.555600   -1.535204    0.355078
      7          1           0        4.912756   -2.553608   -1.513507
      8          1           0        3.146171   -1.302758   -2.738246
      9          1           0        1.788190    0.431608   -1.543280
     10          1           0        3.961439   -0.343015    2.075865
     11          1           0        5.326509   -2.079908    0.892704
     12          7           0        2.015304    1.139974    1.016930
     13          8           0        2.260219    1.335075    2.205454
     14          8           0        1.155366    1.728884    0.365525
     15          6           0       -3.286472    0.283826   -0.798057
     16          6           0       -2.606219    1.621686   -0.505879
     17          6           0       -1.624851    2.037724   -1.602064
     18          1           0       -2.518302   -0.492314   -0.918338
     19          1           0       -3.815535    0.351510   -1.758737
     20          1           0       -2.079745    1.551935    0.454630
     21          1           0       -3.376105    2.394694   -0.386089
     22          1           0       -2.139674    2.135056   -2.563359
     23          1           0       -0.835948    1.287509   -1.717863
     24          1           0       -1.149975    2.996806   -1.372899
     25          6           0       -4.270446   -0.145593    0.288738
     26          6           0       -4.950700   -1.483454   -0.003440
     27          6           0       -5.932067   -1.899492    1.092747
     28          1           0       -3.741384   -0.213278    1.249419
     29          1           0       -5.038616    0.630547    0.409020
     30          1           0       -4.180813   -2.256461   -0.123229
     31          1           0       -5.477174   -1.413703   -0.963948
     32          1           0       -6.720970   -1.149276    1.208544
     33          1           0       -5.417244   -1.996823    2.054040
     34          1           0       -6.406943   -2.858573    0.863581
 ---------------------------------------------------------------------

 SCF Done:  E(RHF) =  -669.535696810     A.U. after   15 cycles
 E2 =    -0.2091708090D+01 EUMP2 =    -0.67162740489910D+03

 The electronic state is 1-A.
 Alpha  occ. eigenvalues --  -20.60909 -20.60903 -15.85941 -11.31279 -11.27843
 Alpha  occ. eigenvalues --  -11.27839 -11.27581 -11.26854 -11.26843 -11.21208
 Alpha  occ. eigenvalues --  -11.20832 -11.20734 -11.20720 -11.20562 -11.20045
 Alpha  occ. eigenvalues --   -1.59977  -1.39531  -1.19449  -1.08851  -1.07789
 Alpha  occ. eigenvalues --   -1.04846  -1.02831  -0.95703  -0.95291  -0.86335
 Alpha  occ. eigenvalues --   -0.86246  -0.82521  -0.78933  -0.77613  -0.77542
 Alpha  occ. eigenvalues --   -0.72175  -0.71293  -0.70558  -0.65110  -0.64852
 Alpha  occ. eigenvalues --   -0.64412  -0.62201  -0.60206  -0.58687  -0.56891
 Alpha  occ. eigenvalues --   -0.55351  -0.54595  -0.53178  -0.52941  -0.51973
 Alpha  occ. eigenvalues --   -0.51745  -0.49361  -0.48921  -0.48835  -0.47245
 Alpha  occ. eigenvalues --   -0.45954  -0.45161  -0.45043  -0.44874  -0.43097
 Alpha  occ. eigenvalues --   -0.37429  -0.36448
 Alpha virt. eigenvalues --    0.04930   0.11193   0.16419   0.20854   0.23415
 Alpha virt. eigenvalues --    0.24387   0.26177   0.27428   0.27730   0.28165
 Alpha virt. eigenvalues --    0.29278   0.30437   0.31494   0.32385   0.32661

 Mulliken charges:
               1
     1  C   -0.170369
     2  C   -0.220032
     3  C   -0.173359
     4  C    0.156253
     5  C   -0.170359
     6  C   -0.218756
     7  H    0.225982
     8  H    0.224299
     9  H    0.281532
    10  H    0.275768
    11  H    0.223754
    12  N    0.491375
    13  O   -0.459639
    14  O   -0.463333
    15  C   -0.297500
    16  C   -0.302211
    17  C   -0.469218
    18  H    0.145012
    19  H    0.145695
    20  H    0.166628
    21  H    0.148248
    22  H    0.144121
    23  H    0.149868
    24  H    0.169125
    25  C   -0.298104
    26  C   -0.298847
    27  C   -0.475367
    28  H    0.151342
    29  H    0.149271
    30  H    0.149726
    31  H    0.150386
    32  H    0.155108
    33  H    0.155408
    34  H    0.158194
 Sum of Mulliken charges =  -0.00000

 Dipole moment (field-independent basis, Debye):
    X=              3.0498    Y=             -3.5128    Z=             -2.3357  Tot=              5.2054
 Quadrupole moment (field-independent basis, Debye-Ang):
   XX=            -78.6709   YY=            -96.0100   ZZ=            -93.5441
   XY=            -11.5800   XZ=             -3.2000   YZ=             -1.9870

 Normal termination of Gaussian 16 at Wed May  5 18:53:17 2021.
