 Gaussian 16, Revision A.03,
 Gaussian 16:  EM64L-G16RevA.03 25-Dec-2016

 -------------
 #p 6-31g* mp2
 -------------

 ------------------------------------------------------
 Input file generated by CHIRIPA (05-May-2021 14:51:13)
 ------------------------------------------------------
 Symbolic Z-matrix:
 Charge =  0 Multiplicity = 1

                         Standard orientation:
 ---------------------------------------------------------------------
 Center     Atomic      Atomic             Coordinates (Angstroms)
 Number     Number       Type             X           Y           Z
 ---------------------------------------------------------------------
      1          6           0       -4.541010    0.495016    0.032526
      2          6           0       -5.187497   -0.849324   -0.303318
      3          6           0       -6.710163   -0.823542   -0.166869
      4          1           0       -4.813922    0.779949    1.057844
      5          1           0       -4.956210    1.268829   -0.627941
      6          1           0       -4.770190   -1.620624    0.356656
      7          1           0       -4.912858   -1.131182   -1.327888
      8          1           0       -7.144385   -0.074702   -0.837160
      9          1           0       -7.000906   -0.566926    0.856956
     10          1           0       -7.151670   -1.794637   -0.411627
     11          6           0       -3.019082    0.485097   -0.099251
     12          6           0       -2.372596    1.829437    0.236593
     13          6           0       -0.849930    1.803655    0.100144
     14          1           0       -2.603883   -0.288716    0.561216
     15          1           0       -2.746171    0.200164   -1.124569
     16          1           0       -2.647235    2.111295    1.261164
     17          1           0       -2.789903    2.600738   -0.423381
     18          1           0       -0.559187    1.547039   -0.923681
     19          1           0       -0.415708    1.054815    0.770435
     20          1           0       -0.408423    2.774750    0.344902
     21          6           0        3.297724   -1.082123    0.017420
     22          6           0        1.855824   -0.698771    0.352012
     23          6           0        0.902847   -1.893901    0.316018
     24          1           0        3.325613   -1.545284   -0.978396
     25          1           0        3.640601   -1.847195    0.727698
     26          1           0        1.516234    0.066353   -0.357831
     27          1           0        1.831391   -0.236295    1.347067
     28          1           0        1.214532   -2.656984    1.036544
     29          1           0        0.897584   -2.352616   -0.678041
     30          1           0       -0.122438   -1.597262    0.558205
     31          6           0        4.262369    0.102010    0.049305
     32          6           0        5.704269   -0.281342   -0.285288
     33          6           0        6.657246    0.913788   -0.249293
     34          1           0        3.919491    0.867081   -0.660973
     35          1           0        4.234480    0.565171    1.045121
     36          1           0        5.728702   -0.743818   -1.280342
     37          1           0        6.043859   -1.046466    0.424557
     38          1           0        6.662509    1.372503    0.744766
     39          1           0        6.345561    1.676871   -0.969819
     40          1           0        7.682531    0.617149   -0.491480
 ---------------------------------------------------------------------

 SCF Done:  E(RHF) =  -470.732032949     A.U. after   11 cycles
 E2 =    -0.1583858372D+01 EUMP2 =    -0.47231589132088D+03

 The electronic state is 1-A.
 Alpha  occ. eigenvalues --  -11.21599 -11.21576 -11.21562 -11.21463 -11.21414
 Alpha  occ. eigenvalues --  -11.21354 -11.21341 -11.21277 -11.21068 -11.21041
 Alpha  occ. eigenvalues --  -11.21011 -11.20982  -1.08440  -1.08361  -1.03573
 Alpha  occ. eigenvalues --   -1.03428  -0.96018  -0.95888  -0.87018  -0.86925
 Alpha  occ. eigenvalues --   -0.79737  -0.79418  -0.78298  -0.78121  -0.65069
 Alpha  occ. eigenvalues --   -0.65001  -0.60958  -0.60870  -0.59474  -0.59208
 Alpha  occ. eigenvalues --   -0.57793  -0.57340  -0.55256  -0.55205  -0.52676
 Alpha  occ. eigenvalues --   -0.52632  -0.52410  -0.52349  -0.49934  -0.49852
 Alpha  occ. eigenvalues --   -0.48086  -0.47669  -0.46647  -0.46513  -0.45877
 Alpha  occ. eigenvalues --   -0.45734  -0.45644  -0.45477  -0.43780  -0.43714
 Alpha virt. eigenvalues --    0.21428   0.23036   0.23458   0.25201   0.25471
 Alpha virt. eigenvalues --    0.26477   0.26823   0.27250   0.28134   0.29366
 Alpha virt. eigenvalues --    0.30104   0.31014   0.31318   0.31838   0.31988

 Mulliken charges:
               1
     1  C   -0.298156
     2  C   -0.299664
     3  C   -0.475715
     4  H    0.149629
     5  H    0.149692
     6  H    0.152004
     7  H    0.152015
     8  H    0.155155
     9  H    0.155165
    10  H    0.160308
    11  C   -0.300733
    12  C   -0.300136
    13  C   -0.480797
    14  H    0.151137
    15  H    0.149842
    16  H    0.151562
    17  H    0.151524
    18  H    0.153770
    19  H    0.165231
    20  H    0.159773
    21  C   -0.297650
    22  C   -0.304791
    23  C   -0.480493
    24  H    0.149138
    25  H    0.148803
    26  H    0.160334
    27  H    0.150087
    28  H    0.154781
    29  H    0.155187
    30  H    0.163428
    31  C   -0.298125
    32  C   -0.299576
    33  C   -0.475645
    34  H    0.149523
    35  H    0.149477
    36  H    0.151787
    37  H    0.151815
    38  H    0.155101
    39  H    0.155123
    40  H    0.160090
 Sum of Mulliken charges =  -0.00000

 Dipole moment (field-independent basis, Debye):
    X=             -0.0159    Y=              0.0209    Z=             -0.0057  Tot=              0.0269
 Quadrupole moment (field-independent basis, Debye-Ang):
   XX=            -86.8413   YY=            -85.3918   ZZ=            -82.8110
   XY=             -0.7352   XZ=              0.3187   YZ=             -0.4175

 Normal termination of Gaussian 16 at Thu May  6 07:09:18 2021.
