 Gaussian 16, Revision A.03,
 Gaussian 16:  EM64L-G16RevA.03 25-Dec-2016

 -------------
 #p 6-31g* mp2
 -------------

 ------------------------------------------------------
 Input file generated by CHIRIPA (05-May-2021 14:55:20)
 ------------------------------------------------------
 Symbolic Z-matrix:
 Charge =  0 Multiplicity = 1

                         Standard orientation:
 ---------------------------------------------------------------------
 Center     Atomic      Atomic             Coordinates (Angstroms)
 Number     Number       Type             X           Y           Z
 ---------------------------------------------------------------------
      1          6           0        3.913421    1.519773   -0.413546
      2          6           0        2.524881    1.622322   -0.547564
      3          6           0        1.707845    0.505685   -0.347257
      4          6           0        2.315604   -0.703379   -0.012468
      5          6           0        3.695997   -0.837424    0.128377
      6          6           0        4.493525    0.292391   -0.076597
      7          1           0        4.540537    2.392322   -0.570962
      8          1           0        2.071610    2.574246   -0.809158
      9          1           0        0.630198    0.556951   -0.444551
     10          1           0        4.118811   -1.799805    0.390045
     11          1           0        5.571602    0.209803    0.028160
     12          7           0        1.460971   -1.892489    0.202059
     13          8           0        2.020916   -2.946315    0.496250
     14          8           0        0.247348   -1.748170    0.071952
     15          6           0       -3.855955    0.381483   -0.010291
     16          6           0       -3.914265   -1.126863   -0.254180
     17          6           0       -5.344756   -1.648040   -0.395109
     18          1           0       -4.426450    0.622072    0.897231
     19          1           0       -4.355879    0.899678   -0.840318
     20          1           0       -3.413165   -1.641993    0.575372
     21          1           0       -3.343404   -1.363912   -1.161120
     22          1           0       -5.851392   -1.160686   -1.234398
     23          1           0       -5.921550   -1.440347    0.511961
     24          1           0       -5.363106   -2.728471   -0.568866
     25          6           0       -2.432577    0.917461    0.132722
     26          6           0       -2.374267    2.425805    0.376610
     27          6           0       -0.943775    2.946983    0.517539
     28          1           0       -1.932653    0.399265    0.962749
     29          1           0       -1.862082    0.676871   -0.774800
     30          1           0       -2.945128    2.662855    1.283551
     31          1           0       -2.875367    2.940936   -0.452941
     32          1           0       -0.366982    2.739289   -0.389529
     33          1           0       -0.437140    2.459629    1.356829
     34          1           0       -0.925426    4.027414    0.691296
 ---------------------------------------------------------------------

 SCF Done:  E(RHF) =  -669.534436301     A.U. after   15 cycles
 E2 =    -0.2093909367D+01 EUMP2 =    -0.67162834566851D+03

 The electronic state is 1-A.
 Alpha  occ. eigenvalues --  -20.60748 -20.60742 -15.85787 -11.31083 -11.27674
 Alpha  occ. eigenvalues --  -11.27564 -11.27407 -11.26681 -11.26621 -11.21802
 Alpha  occ. eigenvalues --  -11.21737 -11.21186 -11.21017 -11.20831 -11.20480
 Alpha  occ. eigenvalues --   -1.59818  -1.39372  -1.19264  -1.08675  -1.08228
 Alpha  occ. eigenvalues --   -1.04668  -1.03382  -0.95896  -0.95517  -0.86939
 Alpha  occ. eigenvalues --   -0.86061  -0.82355  -0.79517  -0.78008  -0.77283
 Alpha  occ. eigenvalues --   -0.72002  -0.71138  -0.70388  -0.64959  -0.64839
 Alpha  occ. eigenvalues --   -0.64675  -0.62109  -0.60751  -0.59291  -0.57436
 Alpha  occ. eigenvalues --   -0.55247  -0.55135  -0.53031  -0.52832  -0.52525
 Alpha  occ. eigenvalues --   -0.52284  -0.49875  -0.48771  -0.48766  -0.47725
 Alpha  occ. eigenvalues --   -0.46480  -0.45444  -0.45349  -0.44746  -0.43592
 Alpha  occ. eigenvalues --   -0.37256  -0.36239
 Alpha virt. eigenvalues --    0.05092   0.11365   0.16569   0.20571   0.23225
 Alpha virt. eigenvalues --    0.24251   0.25910   0.26655   0.27313   0.28350
 Alpha virt. eigenvalues --    0.29363   0.30148   0.31579   0.32033   0.32113

 Mulliken charges:
               1
     1  C   -0.170397
     2  C   -0.224794
     3  C   -0.177339
     4  C    0.154495
     5  C   -0.170070
     6  C   -0.219454
     7  H    0.225272
     8  H    0.226649
     9  H    0.291671
    10  H    0.275036
    11  H    0.222947
    12  N    0.488250
    13  O   -0.460477
    14  O   -0.462677
    15  C   -0.298377
    16  C   -0.299585
    17  C   -0.476344
    18  H    0.148263
    19  H    0.146339
    20  H    0.162541
    21  H    0.156522
    22  H    0.151782
    23  H    0.152801
    24  H    0.161955
    25  C   -0.304907
    26  C   -0.298714
    27  C   -0.482610
    28  H    0.162145
    29  H    0.147959
    30  H    0.154615
    31  H    0.151796
    32  H    0.141525
    33  H    0.160655
    34  H    0.162529
 Sum of Mulliken charges =  -0.00000

 Dipole moment (field-independent basis, Debye):
    X=              2.9146    Y=              4.0511    Z=             -0.6580  Tot=              5.0338
 Quadrupole moment (field-independent basis, Debye-Ang):
   XX=            -78.9643   YY=           -100.0493   ZZ=            -94.3707
   XY=              4.9129   XZ=             -1.2754   YZ=             -0.2576

 Normal termination of Gaussian 16 at Thu May  6 15:45:55 2021.
