 Gaussian 16, Revision A.03,
 Gaussian 16:  EM64L-G16RevA.03 25-Dec-2016

 -------------
 #p 6-31g* mp2
 -------------

 ------------------------------------------------------
 Input file generated by CHIRIPA (05-May-2021 14:57:23)
 ------------------------------------------------------
 Symbolic Z-matrix:
 Charge =  0 Multiplicity = 1

                         Standard orientation:
 ---------------------------------------------------------------------
 Center     Atomic      Atomic             Coordinates (Angstroms)
 Number     Number       Type             X           Y           Z
 ---------------------------------------------------------------------
      1          6           0       -2.571095   -2.132116    1.003950
      2          6           0       -1.586355   -1.347525    1.613231
      3          6           0       -1.366703   -0.031974    1.194151
      4          6           0       -2.153590    0.469214    0.158337
      5          6           0       -3.142364   -0.287487   -0.468575
      6          6           0       -3.344593   -1.600530   -0.033180
      7          1           0       -2.734959   -3.153093    1.335838
      8          1           0       -0.984145   -1.757730    2.418911
      9          1           0       -0.611103    0.597495    1.648303
     10          1           0       -3.726857    0.149147   -1.269285
     11          1           0       -4.110063   -2.207541   -0.508194
     12          7           0       -1.930276    1.860601   -0.293960
     13          8           0       -2.636879    2.278745   -1.208566
     14          8           0       -1.052868    2.506680    0.274700
     15          6           0        2.774197    1.983100    0.807976
     16          6           0        2.233112    1.934216   -0.480960
     17          6           0        1.905879    0.708114   -1.067595
     18          6           0        2.133954   -0.454807   -0.333508
     19          6           0        2.671624   -0.438865    0.952552
     20          6           0        2.991344    0.798492    1.519364
     21          1           0        3.025482    2.939936    1.255990
     22          1           0        2.063388    2.852595   -1.035774
     23          1           0        1.485728    0.641364   -2.063805
     24          1           0        2.829383   -1.371241    1.480947
     25          1           0        3.411427    0.833425    2.520541
     26          7           0        1.791504   -1.758784   -0.944059
     27          8           0        2.002089   -2.769059   -0.276500
     28          8           0        1.318992   -1.745875   -2.078609
 ---------------------------------------------------------------------

 SCF Done:  E(RHF) =  -868.339646385     A.U. after   16 cycles
 E2 =    -0.2602754932D+01 EUMP2 =    -0.87094240131789D+03

 The electronic state is 1-A.
 Alpha  occ. eigenvalues --  -20.60929 -20.60924 -20.60792 -20.60763 -15.85948
 Alpha  occ. eigenvalues --  -15.85823 -11.31033 -11.31026 -11.27604 -11.27577
 Alpha  occ. eigenvalues --  -11.27569 -11.27421 -11.27241 -11.27159 -11.26633
 Alpha  occ. eigenvalues --  -11.26522 -11.26490 -11.26370  -1.60004  -1.59854
 Alpha  occ. eigenvalues --   -1.39563  -1.39414  -1.19197  -1.19140  -1.08621
 Alpha  occ. eigenvalues --   -1.08559  -1.04549  -1.04515  -0.95506  -0.95436
 Alpha  occ. eigenvalues --   -0.85957  -0.85905  -0.82367  -0.82259  -0.77448
 Alpha  occ. eigenvalues --   -0.77352  -0.72201  -0.72047  -0.71348  -0.71152
 Alpha  occ. eigenvalues --   -0.70271  -0.70225  -0.64837  -0.64789  -0.64544
 Alpha  occ. eigenvalues --   -0.64488  -0.61915  -0.61860  -0.55041  -0.54979
 Alpha  occ. eigenvalues --   -0.53107  -0.52774  -0.52586  -0.52483  -0.48963
 Alpha  occ. eigenvalues --   -0.48925  -0.48814  -0.48785  -0.45043  -0.44856
 Alpha  occ. eigenvalues --   -0.37344  -0.36971  -0.36109  -0.35949
 Alpha virt. eigenvalues --    0.05027   0.05157   0.11334   0.11750   0.16458
 Alpha virt. eigenvalues --    0.16916   0.21507   0.21883   0.27302   0.27758
 Alpha virt. eigenvalues --    0.28498   0.28634   0.30989   0.31496   0.32520

 Mulliken charges:
               1
     1  C   -0.165666
     2  C   -0.218483
     3  C   -0.174795
     4  C    0.156663
     5  C   -0.168544
     6  C   -0.216781
     7  H    0.228413
     8  H    0.223284
     9  H    0.274629
    10  H    0.274931
    11  H    0.224649
    12  N    0.487251
    13  O   -0.460789
    14  O   -0.466154
    15  C   -0.170555
    16  C   -0.198375
    17  C   -0.178237
    18  C    0.160165
    19  C   -0.181284
    20  C   -0.222691
    21  H    0.228127
    22  H    0.232672
    23  H    0.276488
    24  H    0.270366
    25  H    0.221309
    26  N    0.489159
    27  O   -0.466106
    28  O   -0.459647
 Sum of Mulliken charges =  -0.00000

 Dipole moment (field-independent basis, Debye):
    X=              0.3258    Y=             -0.1599    Z=              3.5930  Tot=              3.6113
 Quadrupole moment (field-independent basis, Debye-Ang):
   XX=            -94.1566   YY=           -113.0477   ZZ=           -100.7995
   XY=             20.4773   XZ=              4.7671   YZ=             -4.5641

 Normal termination of Gaussian 16 at Wed May  5 16:19:21 2021.
