 Gaussian 16, Revision A.03,
 Gaussian 16:  EM64L-G16RevA.03 25-Dec-2016

 -------------
 #p 6-31g* mp2
 -------------

 ------------------------------------------------------
 Input file generated by CHIRIPA (05-May-2021 14:51:14)
 ------------------------------------------------------
 Symbolic Z-matrix:
 Charge =  0 Multiplicity = 1

                         Standard orientation:
 ---------------------------------------------------------------------
 Center     Atomic      Atomic             Coordinates (Angstroms)
 Number     Number       Type             X           Y           Z
 ---------------------------------------------------------------------
      1          6           0        2.733580    0.422182   -0.479176
      2          6           0        2.771610    1.856613   -1.007331
      3          6           0        1.377850    2.464028   -1.169422
      4          1           0        2.139021   -0.198194   -1.163704
      5          1           0        2.211952    0.408614    0.487837
      6          1           0        3.294228    1.867680   -1.972404
      7          1           0        3.366308    2.473604   -0.321568
      8          1           0        0.851539    2.482215   -0.209596
      9          1           0        0.779049    1.872848   -1.869812
     10          1           0        1.428451    3.489658   -1.548080
     11          6           0        4.119300   -0.198699   -0.311792
     12          6           0        4.081270   -1.633129    0.216363
     13          6           0        5.475030   -2.240544    0.378454
     14          1           0        4.640928   -0.185130   -1.278805
     15          1           0        4.713859    0.421677    0.372736
     16          1           0        3.486572   -2.250121   -0.469401
     17          1           0        3.558652   -1.644196    1.181435
     18          1           0        6.073831   -1.649365    1.078843
     19          1           0        6.001341   -2.258732   -0.581373
     20          1           0        5.424429   -3.266174    0.757111
     21          6           0       -2.716882   -0.142748    0.676549
     22          6           0       -2.337306    1.087205    1.501851
     23          6           0       -0.914877    1.010389    2.057357
     24          1           0       -2.613324   -1.041182    1.300277
     25          1           0       -2.004066   -0.253781   -0.152281
     26          1           0       -3.051445    1.196679    2.328070
     27          1           0       -2.441965    1.982835    0.876143
     28          1           0       -0.187579    0.924795    1.243531
     29          1           0       -0.800522    0.134174    2.703709
     30          1           0       -0.664426    1.899740    2.644034
     31          6           0       -4.135998   -0.080735    0.114419
     32          6           0       -4.515574   -1.310689   -0.710882
     33          6           0       -5.938003   -1.233873   -1.266388
     34          1           0       -4.848814    0.030298    0.943249
     35          1           0       -4.239557    0.817698   -0.509309
     36          1           0       -4.410915   -2.206318   -0.085174
     37          1           0       -3.801435   -1.420163   -1.537102
     38          1           0       -6.052358   -0.357657   -1.912739
     39          1           0       -6.665301   -1.148279   -0.452562
     40          1           0       -6.188453   -2.123224   -1.853065
 ---------------------------------------------------------------------

 SCF Done:  E(RHF) =  -470.732945277     A.U. after   11 cycles
 E2 =    -0.1583149438D+01 EUMP2 =    -0.47231609471468D+03

 The electronic state is 1-A.
 Alpha  occ. eigenvalues --  -11.21612 -11.21590 -11.21587 -11.21582 -11.21406
 Alpha  occ. eigenvalues --  -11.21380 -11.21346 -11.21321 -11.21071 -11.21062
 Alpha  occ. eigenvalues --  -11.21059 -11.21034  -1.08441  -1.08404  -1.03557
 Alpha  occ. eigenvalues --   -1.03493  -0.96005  -0.95950  -0.87021  -0.86971
 Alpha  occ. eigenvalues --   -0.79655  -0.79529  -0.78283  -0.78187  -0.65122
 Alpha  occ. eigenvalues --   -0.64995  -0.61087  -0.60789  -0.59368  -0.59321
 Alpha  occ. eigenvalues --   -0.57606  -0.57570  -0.55407  -0.55137  -0.52680
 Alpha  occ. eigenvalues --   -0.52664  -0.52415  -0.52397  -0.50063  -0.49821
 Alpha  occ. eigenvalues --   -0.48048  -0.47787  -0.46766  -0.46487  -0.45886
 Alpha  occ. eigenvalues --   -0.45749  -0.45711  -0.45430  -0.43787  -0.43769
 Alpha virt. eigenvalues --    0.21356   0.23053   0.23559   0.24957   0.25933
 Alpha virt. eigenvalues --    0.26528   0.27099   0.27729   0.28048   0.29188
 Alpha virt. eigenvalues --    0.30865   0.31441   0.31607   0.31788   0.31927

 Mulliken charges:
               1
     1  C   -0.303461
     2  C   -0.299339
     3  C   -0.481619
     4  H    0.149034
     5  H    0.154872
     6  H    0.151920
     7  H    0.152073
     8  H    0.161708
     9  H    0.154036
    10  H    0.160455
    11  C   -0.297982
    12  C   -0.299762
    13  C   -0.475726
    14  H    0.149528
    15  H    0.149764
    16  H    0.151896
    17  H    0.152374
    18  H    0.155202
    19  H    0.155109
    20  H    0.160259
    21  C   -0.298495
    22  C   -0.299611
    23  C   -0.485412
    24  H    0.149503
    25  H    0.150168
    26  H    0.151873
    27  H    0.152585
    28  H    0.164961
    29  H    0.155019
    30  H    0.159263
    31  C   -0.298382
    32  C   -0.299609
    33  C   -0.475698
    34  H    0.149429
    35  H    0.149816
    36  H    0.151896
    37  H    0.151822
    38  H    0.155199
    39  H    0.155164
    40  H    0.160167
 Sum of Mulliken charges =  -0.00000

 Dipole moment (field-independent basis, Debye):
    X=              0.0119    Y=              0.0020    Z=              0.0043  Tot=              0.0129
 Quadrupole moment (field-independent basis, Debye-Ang):
   XX=            -86.5789   YY=            -84.8043   ZZ=            -83.4713
   XY=              0.6326   XZ=             -0.8336   YZ=              0.0099

 Normal termination of Gaussian 16 at Wed May  5 21:38:22 2021.
