 Gaussian 16, Revision A.03,
 Gaussian 16:  EM64L-G16RevA.03 25-Dec-2016

 -------------
 #p 6-31g* mp2
 -------------

 ------------------------------------------------------
 Input file generated by CHIRIPA (05-May-2021 14:51:14)
 ------------------------------------------------------
 Symbolic Z-matrix:
 Charge =  0 Multiplicity = 1

                         Standard orientation:
 ---------------------------------------------------------------------
 Center     Atomic      Atomic             Coordinates (Angstroms)
 Number     Number       Type             X           Y           Z
 ---------------------------------------------------------------------
      1          6           0       -2.617739   -0.729454    0.131165
      2          6           0       -2.496878   -1.927038   -0.811793
      3          6           0       -1.372895   -2.883316   -0.411807
      4          1           0       -1.662346   -0.187389    0.149471
      5          1           0       -2.790643   -1.092728    1.153678
      6          1           0       -2.325633   -1.561577   -1.832444
      7          1           0       -3.452730   -2.466205   -0.828004
      8          1           0       -1.541500   -3.275809    0.596222
      9          1           0       -0.408000   -2.366041   -0.413926
     10          1           0       -1.304291   -3.732141   -1.099302
     11          6           0       -3.737010    0.235618   -0.255612
     12          6           0       -3.857871    1.433202    0.687346
     13          6           0       -4.981854    2.389480    0.287360
     14          1           0       -3.564106    0.598892   -1.278125
     15          1           0       -4.692403   -0.306446   -0.273918
     16          1           0       -2.902019    1.972369    0.703556
     17          1           0       -4.029116    1.067741    1.707997
     18          1           0       -5.946749    1.872205    0.289479
     19          1           0       -4.813248    2.781973   -0.720669
     20          1           0       -5.050457    3.238306    0.974855
     21          6           0        3.172232    0.854012   -0.401286
     22          6           0        3.548565    2.157918    0.303121
     23          6           0        3.533798    3.363427   -0.637263
     24          1           0        3.868060    0.680217   -1.233490
     25          1           0        2.173246    0.960892   -0.846258
     26          1           0        4.545968    2.048137    0.747814
     27          1           0        2.851877    2.328531    1.133863
     28          1           0        2.538235    3.501177   -1.071405
     29          1           0        4.241952    3.219189   -1.459647
     30          1           0        3.805772    4.284882   -0.113038
     31          6           0        3.182517   -0.360177    0.525734
     32          6           0        2.806183   -1.664081   -0.178673
     33          6           0        2.820950   -2.869592    0.761710
     34          1           0        4.181502   -0.467056    0.970706
     35          1           0        2.486688   -0.186381    1.357937
     36          1           0        3.502872   -1.834696   -1.009416
     37          1           0        1.808780   -1.554302   -0.623366
     38          1           0        2.112797   -2.725354    1.584095
     39          1           0        3.816514   -3.007341    1.195852
     40          1           0        2.548977   -3.791046    0.237486
 ---------------------------------------------------------------------

 SCF Done:  E(RHF) =  -470.733296307     A.U. after   11 cycles
 E2 =    -0.1582777814D+01 EUMP2 =    -0.47231607412103D+03

 The electronic state is 1-A.
 Alpha  occ. eigenvalues --  -11.21633 -11.21624 -11.21622 -11.21601 -11.21443
 Alpha  occ. eigenvalues --  -11.21425 -11.21383 -11.21363 -11.21095 -11.21092
 Alpha  occ. eigenvalues --  -11.21060 -11.21035  -1.08467  -1.08442  -1.03573
 Alpha  occ. eigenvalues --   -1.03520  -0.96024  -0.95962  -0.87021  -0.86996
 Alpha  occ. eigenvalues --   -0.79646  -0.79575  -0.78292  -0.78245  -0.65166
 Alpha  occ. eigenvalues --   -0.65021  -0.61113  -0.60807  -0.59369  -0.59352
 Alpha  occ. eigenvalues --   -0.57651  -0.57557  -0.55396  -0.55168  -0.52706
 Alpha  occ. eigenvalues --   -0.52661  -0.52421  -0.52400  -0.50015  -0.49874
 Alpha  occ. eigenvalues --   -0.48018  -0.47844  -0.46806  -0.46491  -0.45897
 Alpha  occ. eigenvalues --   -0.45773  -0.45767  -0.45575  -0.43815  -0.43787
 Alpha virt. eigenvalues --    0.20832   0.23188   0.23586   0.24846   0.25954
 Alpha virt. eigenvalues --    0.26847   0.27235   0.27395   0.28284   0.28902
 Alpha virt. eigenvalues --    0.30530   0.31489   0.31698   0.31938   0.32055

 Mulliken charges:
               1
     1  C   -0.298111
     2  C   -0.299428
     3  C   -0.483572
     4  H    0.148397
     5  H    0.149667
     6  H    0.151797
     7  H    0.152126
     8  H    0.155361
     9  H    0.163123
    10  H    0.160372
    11  C   -0.298322
    12  C   -0.299635
    13  C   -0.475729
    14  H    0.149579
    15  H    0.149894
    16  H    0.151659
    17  H    0.151986
    18  H    0.155283
    19  H    0.155242
    20  H    0.160342
    21  C   -0.298163
    22  C   -0.299705
    23  C   -0.475678
    24  H    0.149834
    25  H    0.148633
    26  H    0.152115
    27  H    0.152001
    28  H    0.154936
    29  H    0.155254
    30  H    0.160378
    31  C   -0.298122
    32  C   -0.305903
    33  C   -0.475541
    34  H    0.149765
    35  H    0.149799
    36  H    0.152293
    37  H    0.156041
    38  H    0.155920
    39  H    0.154918
    40  H    0.161198
 Sum of Mulliken charges =  -0.00000

 Dipole moment (field-independent basis, Debye):
    X=              0.0056    Y=             -0.0143    Z=              0.0064  Tot=              0.0167
 Quadrupole moment (field-independent basis, Debye-Ang):
   XX=            -83.9047   YY=            -85.9957   ZZ=            -84.7317
   XY=              0.7368   XZ=             -0.7185   YZ=              0.3779

 Normal termination of Gaussian 16 at Wed May  5 18:25:41 2021.
