 Gaussian 16, Revision A.03,
 Gaussian 16:  EM64L-G16RevA.03 25-Dec-2016

 -------------
 #p 6-31g* mp2
 -------------

 ------------------------------------------------------
 Input file generated by CHIRIPA (05-May-2021 14:55:19)
 ------------------------------------------------------
 Symbolic Z-matrix:
 Charge =  0 Multiplicity = 1

                         Standard orientation:
 ---------------------------------------------------------------------
 Center     Atomic      Atomic             Coordinates (Angstroms)
 Number     Number       Type             X           Y           Z
 ---------------------------------------------------------------------
      1          6           0        3.415202    2.361276    0.911027
      2          6           0        2.495491    1.471975    1.476533
      3          6           0        2.267401    0.221269    0.894934
      4          6           0        2.979630   -0.109007   -0.256993
      5          6           0        3.902483    0.755238   -0.844117
      6          6           0        4.114529    2.000704   -0.245454
      7          1           0        3.586156    3.330819    1.369455
      8          1           0        1.950952    1.749320    2.374644
      9          1           0        1.561146   -0.486422    1.311821
     10          1           0        4.430227    0.450533   -1.739695
     11          1           0        4.829392    2.689332   -0.686826
     12          7           0        2.746654   -1.430300   -0.881739
     13          8           0        3.386859   -1.697437   -1.896338
     14          8           0        1.928253   -2.173773   -0.344985
     15          6           0       -3.257965   -0.175580    0.661861
     16          6           0       -2.808317   -1.606059    0.961077
     17          6           0       -1.596752   -1.662372    1.892062
     18          1           0       -2.422350    0.378232    0.212433
     19          1           0       -3.496718    0.331568    1.606950
     20          1           0       -2.571806   -2.110794    0.015602
     21          1           0       -3.645158   -2.156585    1.409669
     22          1           0       -1.824329   -1.183422    2.849880
     23          1           0       -0.744880   -1.137371    1.447893
     24          1           0       -1.292205   -2.694301    2.092649
     25          6           0       -4.468185   -0.102842   -0.267550
     26          6           0       -4.917833    1.327637   -0.566765
     27          6           0       -6.129398    1.383952   -1.497751
     28          1           0       -4.229433   -0.609989   -1.212639
     29          1           0       -5.303800   -0.656654    0.181878
     30          1           0       -4.080992    1.878164   -1.015357
     31          1           0       -5.154343    1.832372    0.378709
     32          1           0       -6.981271    0.858949   -1.053582
     33          1           0       -5.901822    0.905001   -2.455569
     34          1           0       -6.433945    2.415879   -1.698338
 ---------------------------------------------------------------------

 SCF Done:  E(RHF) =  -669.535609577     A.U. after   15 cycles
 E2 =    -0.2091125318D+01 EUMP2 =    -0.67162673489574D+03

 The electronic state is 1-A.
 Alpha  occ. eigenvalues --  -20.60789 -20.60784 -15.85838 -11.31198 -11.27768
 Alpha  occ. eigenvalues --  -11.27743 -11.27510 -11.26787 -11.26772 -11.21568
 Alpha  occ. eigenvalues --  -11.21417 -11.21326 -11.21264 -11.21025 -11.21001
 Alpha  occ. eigenvalues --   -1.59863  -1.39416  -1.19371  -1.08768  -1.08341
 Alpha  occ. eigenvalues --   -1.04773  -1.03437  -0.95905  -0.95602  -0.86928
 Alpha  occ. eigenvalues --   -0.86171  -0.82433  -0.79511  -0.78163  -0.77480
 Alpha  occ. eigenvalues --   -0.72057  -0.71185  -0.70487  -0.65024  -0.64979
 Alpha  occ. eigenvalues --   -0.64770  -0.62152  -0.60811  -0.59254  -0.57510
 Alpha  occ. eigenvalues --   -0.55341  -0.55139  -0.53104  -0.52902  -0.52573
 Alpha  occ. eigenvalues --   -0.52307  -0.49844  -0.48816  -0.48809  -0.47828
 Alpha  occ. eigenvalues --   -0.46526  -0.45709  -0.45615  -0.44818  -0.43689
 Alpha  occ. eigenvalues --   -0.37355  -0.36374
 Alpha virt. eigenvalues --    0.05025   0.11234   0.16544   0.20861   0.22998
 Alpha virt. eigenvalues --    0.24188   0.25764   0.26964   0.27699   0.27784
 Alpha virt. eigenvalues --    0.29173   0.30487   0.31491   0.31854   0.32116

 Mulliken charges:
               1
     1  C   -0.170672
     2  C   -0.221004
     3  C   -0.178352
     4  C    0.157134
     5  C   -0.170500
     6  C   -0.218688
     7  H    0.225690
     8  H    0.224257
     9  H    0.287590
    10  H    0.275576
    11  H    0.223482
    12  N    0.487291
    13  O   -0.460252
    14  O   -0.461275
    15  C   -0.298510
    16  C   -0.299791
    17  C   -0.479105
    18  H    0.148272
    19  H    0.146482
    20  H    0.159880
    21  H    0.151640
    22  H    0.149295
    23  H    0.152886
    24  H    0.167930
    25  C   -0.298550
    26  C   -0.299463
    27  C   -0.475714
    28  H    0.152072
    29  H    0.149765
    30  H    0.151220
    31  H    0.150442
    32  H    0.155299
    33  H    0.156253
    34  H    0.159419
 Sum of Mulliken charges =  -0.00000

 Dipole moment (field-independent basis, Debye):
    X=              0.8189    Y=              4.5672    Z=              2.1488  Tot=              5.1135
 Quadrupole moment (field-independent basis, Debye-Ang):
   XX=            -88.4861   YY=            -95.9744   ZZ=            -93.6934
   XY=             15.3546   XZ=              2.7273   YZ=             -2.1747

 Normal termination of Gaussian 16 at Thu May  6 20:37:36 2021.
