 Gaussian 16, Revision A.03,
 Gaussian 16:  EM64L-G16RevA.03 25-Dec-2016

 -------------
 #p 6-31g* mp2
 -------------

 ------------------------------------------------------
 Input file generated by CHIRIPA (05-May-2021 14:55:24)
 ------------------------------------------------------
 Symbolic Z-matrix:
 Charge =  0 Multiplicity = 1

                         Standard orientation:
 ---------------------------------------------------------------------
 Center     Atomic      Atomic             Coordinates (Angstroms)
 Number     Number       Type             X           Y           Z
 ---------------------------------------------------------------------
      1          6           0        1.610051   -2.789725    0.509225
      2          6           0        0.918721   -1.692324    1.032957
      3          6           0        1.369582   -0.390318    0.796204
      4          6           0        2.520498   -0.221502    0.027970
      5          6           0        3.231162   -1.294565   -0.507550
      6          6           0        2.762035   -2.587699   -0.258004
      7          1           0        1.252717   -3.797708    0.698109
      8          1           0        0.023782   -1.846218    1.629151
      9          1           0        0.853678    0.477168    1.189560
     10          1           0        4.120195   -1.109516   -1.098139
     11          1           0        3.300955   -3.438076   -0.666010
     12          7           0        3.007474    1.152177   -0.229441
     13          8           0        4.024038    1.274192   -0.909403
     14          8           0        2.363380    2.080842    0.253635
     15          6           0       -2.423846    0.878950   -0.067863
     16          6           0       -2.427563    2.382676    0.209226
     17          6           0       -1.020532    2.979618    0.250697
     18          1           0       -1.831355    0.371478    0.705682
     19          1           0       -1.916313    0.690623   -1.024073
     20          1           0       -2.936159    2.568230    1.163959
     21          1           0       -3.020274    2.886607   -0.564959
     22          1           0       -0.507622    2.823702   -0.703878
     23          1           0       -0.423029    2.503516    1.034865
     24          1           0       -1.046578    4.055457    0.450078
     25          6           0       -3.823165    0.267675   -0.112348
     26          6           0       -3.819449   -1.236051   -0.389437
     27          6           0       -5.226479   -1.832992   -0.430908
     28          1           0       -4.330698    0.456002    0.843862
     29          1           0       -4.415657    0.775147   -0.885893
     30          1           0       -3.226738   -1.739981    0.384749
     31          1           0       -3.310852   -1.421605   -1.344170
     32          1           0       -5.823982   -1.356891   -1.215076
     33          1           0       -5.739389   -1.677076    0.523667
     34          1           0       -5.200433   -2.908831   -0.630289
 ---------------------------------------------------------------------

 SCF Done:  E(RHF) =  -669.534761255     A.U. after   15 cycles
 E2 =    -0.2093245725D+01 EUMP2 =    -0.67162800698013D+03

 The electronic state is 1-A.
 Alpha  occ. eigenvalues --  -20.60765 -20.60753 -15.85800 -11.31149 -11.27731
 Alpha  occ. eigenvalues --  -11.27699 -11.27472 -11.26743 -11.26729 -11.22024
 Alpha  occ. eigenvalues --  -11.21689 -11.21630 -11.21473 -11.21431 -11.20539
 Alpha  occ. eigenvalues --   -1.59834  -1.39388  -1.19329  -1.08729  -1.08644
 Alpha  occ. eigenvalues --   -1.04733  -1.03627  -0.96044  -0.95562  -0.87047
 Alpha  occ. eigenvalues --   -0.86132  -0.82399  -0.79705  -0.78505  -0.77404
 Alpha  occ. eigenvalues --   -0.72025  -0.71153  -0.70449  -0.65301  -0.64983
 Alpha  occ. eigenvalues --   -0.64749  -0.62120  -0.61002  -0.59457  -0.57657
 Alpha  occ. eigenvalues --   -0.55347  -0.55226  -0.53075  -0.52861  -0.52685
 Alpha  occ. eigenvalues --   -0.52426  -0.50000  -0.48814  -0.48783  -0.47932
 Alpha  occ. eigenvalues --   -0.46750  -0.45992  -0.45903  -0.44735  -0.43897
 Alpha  occ. eigenvalues --   -0.37312  -0.36308
 Alpha virt. eigenvalues --    0.05061   0.11289   0.16466   0.19785   0.22886
 Alpha virt. eigenvalues --    0.23735   0.24953   0.26632   0.26985   0.28359
 Alpha virt. eigenvalues --    0.29818   0.30888   0.31513   0.31679   0.32123

 Mulliken charges:
               1
     1  C   -0.170502
     2  C   -0.221521
     3  C   -0.169438
     4  C    0.153965
     5  C   -0.170226
     6  C   -0.219159
     7  H    0.225577
     8  H    0.223893
     9  H    0.283947
    10  H    0.275434
    11  H    0.223258
    12  N    0.488369
    13  O   -0.460574
    14  O   -0.461461
    15  C   -0.297122
    16  C   -0.302996
    17  C   -0.473710
    18  H    0.136459
    19  H    0.152728
    20  H    0.149533
    21  H    0.152596
    22  H    0.162980
    23  H    0.155862
    24  H    0.162900
    25  C   -0.298296
    26  C   -0.298121
    27  C   -0.475716
    28  H    0.149514
    29  H    0.152527
    30  H    0.143680
    31  H    0.153429
    32  H    0.157376
    33  H    0.155521
    34  H    0.159296
 Sum of Mulliken charges =  -0.00000

 Dipole moment (field-independent basis, Debye):
    X=             -1.6755    Y=             -4.6899    Z=              0.8048  Tot=              5.0448
 Quadrupole moment (field-independent basis, Debye-Ang):
   XX=           -101.8418   YY=            -92.3143   ZZ=            -92.9325
   XY=            -14.1239   XZ=              0.1259   YZ=              0.4966

 Normal termination of Gaussian 16 at Thu May  6 01:35:38 2021.
