 Gaussian 16, Revision A.03,
 Gaussian 16:  EM64L-G16RevA.03 25-Dec-2016

 -------------
 #p 6-31g* mp2
 -------------

 ------------------------------------------------------
 Input file generated by CHIRIPA (05-May-2021 14:53:18)
 ------------------------------------------------------
 Symbolic Z-matrix:
 Charge =  0 Multiplicity = 1

                         Standard orientation:
 ---------------------------------------------------------------------
 Center     Atomic      Atomic             Coordinates (Angstroms)
 Number     Number       Type             X           Y           Z
 ---------------------------------------------------------------------
      1          6           0        3.510504    0.240458   -0.262718
      2          6           0        3.251605    1.599456   -0.913935
      3          6           0        1.763719    1.941963   -0.995659
      4          1           0        2.984318   -0.537995   -0.832002
      5          1           0        3.076461    0.236752    0.746731
      6          1           0        3.687214    1.601075   -1.921336
      7          1           0        3.778625    2.374740   -0.343145
      8          1           0        1.318876    1.967863    0.004363
      9          1           0        1.226946    1.189802   -1.582795
     10          1           0        1.601489    2.917527   -1.464506
     11          6           0        4.993308   -0.116076   -0.173823
     12          6           0        5.252207   -1.475074    0.477393
     13          6           0        6.740092   -1.817581    0.559118
     14          1           0        5.427351   -0.112370   -1.183272
     15          1           0        5.519494    0.662377    0.395461
     16          1           0        4.725187   -2.250358   -0.093396
     17          1           0        4.816598   -1.476693    1.484795
     18          1           0        7.276866   -1.065419    1.146254
     19          1           0        7.184936   -1.843480   -0.440904
     20          1           0        6.902323   -2.793144    1.027965
     21          6           0       -1.814994    1.567429    1.388697
     22          6           0       -2.700172    0.757701    2.107948
     23          6           0       -3.539700   -0.141290    1.443452
     24          6           0       -3.467474   -0.204817    0.052755
     25          6           0       -2.596181    0.588637   -0.691939
     26          6           0       -1.765910    1.480466   -0.006491
     27          1           0       -1.166424    2.263006    1.913031
     28          1           0       -2.740447    0.823100    3.191528
     29          1           0       -4.234356   -0.779889    1.975489
     30          1           0       -2.578761    0.500915   -1.771485
     31          1           0       -1.079453    2.108082   -0.567668
     32          7           0       -4.351345   -1.152748   -0.661806
     33          8           0       -4.268524   -1.189695   -1.887536
     34          8           0       -5.110207   -1.840841    0.017380
 ---------------------------------------------------------------------

 SCF Done:  E(RHF) =  -669.534996488     A.U. after   15 cycles
 E2 =    -0.2091586631D+01 EUMP2 =    -0.67162658311942D+03

 The electronic state is 1-A.
 Alpha  occ. eigenvalues --  -20.60714 -20.60709 -15.85764 -11.31117 -11.27672
 Alpha  occ. eigenvalues --  -11.27645 -11.27404 -11.26706 -11.26594 -11.22355
 Alpha  occ. eigenvalues --  -11.22151 -11.21959 -11.21947 -11.21811 -11.21356
 Alpha  occ. eigenvalues --   -1.59789  -1.39343  -1.19276  -1.08980  -1.08677
 Alpha  occ. eigenvalues --   -1.04676  -1.04125  -0.96612  -0.95517  -0.87665
 Alpha  occ. eigenvalues --   -0.86061  -0.82348  -0.80219  -0.78753  -0.77387
 Alpha  occ. eigenvalues --   -0.71984  -0.71111  -0.70395  -0.65609  -0.64927
 Alpha  occ. eigenvalues --   -0.64687  -0.62041  -0.61518  -0.59989  -0.58180
 Alpha  occ. eigenvalues --   -0.55897  -0.55189  -0.53444  -0.53193  -0.52934
 Alpha  occ. eigenvalues --   -0.52523  -0.50553  -0.48756  -0.48740  -0.48471
 Alpha  occ. eigenvalues --   -0.47215  -0.46299  -0.46202  -0.44751  -0.44365
 Alpha  occ. eigenvalues --   -0.37253  -0.36255
 Alpha virt. eigenvalues --    0.05113   0.11324   0.16584   0.20824   0.22385
 Alpha virt. eigenvalues --    0.23844   0.25773   0.26058   0.26996   0.27583
 Alpha virt. eigenvalues --    0.28826   0.29726   0.30779   0.31657   0.32103

 Mulliken charges:
               1
     1  C   -0.298729
     2  C   -0.300392
     3  C   -0.482155
     4  H    0.152438
     5  H    0.148551
     6  H    0.155493
     7  H    0.153067
     8  H    0.149687
     9  H    0.157809
    10  H    0.159713
    11  C   -0.298900
    12  C   -0.300053
    13  C   -0.476027
    14  H    0.150913
    15  H    0.149618
    16  H    0.153637
    17  H    0.151679
    18  H    0.155088
    19  H    0.156007
    20  H    0.161594
    21  C   -0.174427
    22  C   -0.218193
    23  C   -0.171628
    24  C    0.158979
    25  C   -0.174356
    26  C   -0.219618
    27  H    0.224777
    28  H    0.222912
    29  H    0.275182
    30  H    0.275070
    31  H    0.235525
    32  N    0.488049
    33  O   -0.460648
    34  O   -0.460663
 Sum of Mulliken charges =  -0.00000

 Dipole moment (field-independent basis, Debye):
    X=              3.3053    Y=              3.3018    Z=              2.4813  Tot=              5.2899
 Quadrupole moment (field-independent basis, Debye-Ang):
   XX=           -116.9575   YY=            -96.4129   ZZ=            -89.9819
   XY=            -11.3101   XZ=            -10.7485   YZ=             -1.3701

 Normal termination of Gaussian 16 at Wed May  5 15:46:33 2021.
