 Gaussian 16, Revision A.03,
 Gaussian 16:  EM64L-G16RevA.03 25-Dec-2016

 -------------
 #p 6-31g* mp2
 -------------

 ------------------------------------------------------
 Input file generated by CHIRIPA (05-May-2021 14:55:23)
 ------------------------------------------------------
 Symbolic Z-matrix:
 Charge =  0 Multiplicity = 1

                         Standard orientation:
 ---------------------------------------------------------------------
 Center     Atomic      Atomic             Coordinates (Angstroms)
 Number     Number       Type             X           Y           Z
 ---------------------------------------------------------------------
      1          6           0        3.306596    1.781286   -0.908861
      2          6           0        4.165120    0.884771   -0.264099
      3          6           0        3.694659   -0.355024    0.178761
      4          6           0        2.353868   -0.667150   -0.040667
      5          6           0        1.473776    0.204681   -0.679916
      6          6           0        1.966028    1.438983   -1.114350
      7          1           0        3.680526    2.742255   -1.249613
      8          1           0        5.206699    1.147933   -0.103155
      9          1           0        4.337483   -1.067950    0.680689
     10          1           0        0.440495   -0.085836   -0.826032
     11          1           0        1.297000    2.133250   -1.614790
     12          7           0        1.844278   -1.976757    0.423708
     13          8           0        0.658804   -2.227947    0.218301
     14          8           0        2.639984   -2.727241    0.984300
     15          6           0       -2.450918    0.942652    0.105902
     16          6           0       -2.349254    2.139527    1.052021
     17          6           0       -1.004039    2.859402    0.952179
     18          1           0       -1.638576    0.237329    0.328535
     19          1           0       -2.293157    1.285465   -0.926078
     20          1           0       -2.508533    1.794780    2.081776
     21          1           0       -3.162047    2.841992    0.827237
     22          1           0       -0.840390    3.230798   -0.064622
     23          1           0       -0.183164    2.177636    1.197046
     24          1           0       -0.952969    3.711641    1.636972
     25          6           0       -3.789991    0.212702    0.194135
     26          6           0       -3.891655   -0.984172   -0.751983
     27          6           0       -5.236871   -1.704047   -0.652143
     28          1           0       -3.947753   -0.130111    1.226116
     29          1           0       -4.602334    0.918025   -0.028499
     30          1           0       -3.078863   -1.686637   -0.527199
     31          1           0       -3.732375   -0.639426   -1.781739
     32          1           0       -6.057746   -1.022281   -0.897008
     33          1           0       -5.400520   -2.075442    0.364659
     34          1           0       -5.287940   -2.556286   -1.336936
 ---------------------------------------------------------------------

 SCF Done:  E(RHF) =  -669.535463451     A.U. after   15 cycles
 E2 =    -0.2093176325D+01 EUMP2 =    -0.67162863977585D+03

 The electronic state is 1-A.
 Alpha  occ. eigenvalues --  -20.60835 -20.60827 -15.85875 -11.31176 -11.27740
 Alpha  occ. eigenvalues --  -11.27679 -11.27466 -11.26754 -11.26717 -11.21827
 Alpha  occ. eigenvalues --  -11.21586 -11.21464 -11.21339 -11.21279 -11.20791
 Alpha  occ. eigenvalues --   -1.59900  -1.39456  -1.19348  -1.08754  -1.08480
 Alpha  occ. eigenvalues --   -1.04740  -1.03548  -0.96038  -0.95598  -0.87062
 Alpha  occ. eigenvalues --   -0.86135  -0.82431  -0.79652  -0.78327  -0.77444
 Alpha  occ. eigenvalues --   -0.72094  -0.71219  -0.70453  -0.65140  -0.64995
 Alpha  occ. eigenvalues --   -0.64704  -0.62098  -0.60932  -0.59416  -0.57651
 Alpha  occ. eigenvalues --   -0.55371  -0.55211  -0.53152  -0.52925  -0.52692
 Alpha  occ. eigenvalues --   -0.52319  -0.49978  -0.48854  -0.48846  -0.47943
 Alpha  occ. eigenvalues --   -0.46657  -0.45820  -0.45686  -0.44854  -0.43813
 Alpha  occ. eigenvalues --   -0.37330  -0.36281
 Alpha virt. eigenvalues --    0.05003   0.11237   0.16487   0.20442   0.23111
 Alpha virt. eigenvalues --    0.24090   0.25580   0.25909   0.27351   0.28438
 Alpha virt. eigenvalues --    0.29435   0.30571   0.31576   0.31844   0.32345

 Mulliken charges:
               1
     1  C   -0.171378
     2  C   -0.218623
     3  C   -0.170944
     4  C    0.156502
     5  C   -0.176120
     6  C   -0.217873
     7  H    0.225696
     8  H    0.223352
     9  H    0.275310
    10  H    0.284595
    11  H    0.225396
    12  N    0.488565
    13  O   -0.463175
    14  O   -0.459636
    15  C   -0.309841
    16  C   -0.298433
    17  C   -0.480229
    18  H    0.160754
    19  H    0.141363
    20  H    0.156166
    21  H    0.152250
    22  H    0.144987
    23  H    0.160786
    24  H    0.161818
    25  C   -0.296519
    26  C   -0.304320
    27  C   -0.475736
    28  H    0.152984
    29  H    0.148216
    30  H    0.165323
    31  H    0.147729
    32  H    0.152701
    33  H    0.156809
    34  H    0.161526
 Sum of Mulliken charges =  -0.00000

 Dipole moment (field-independent basis, Debye):
    X=              1.7756    Y=              4.4941    Z=             -1.5429  Tot=              5.0725
 Quadrupole moment (field-independent basis, Debye-Ang):
   XX=            -82.8662   YY=           -101.4723   ZZ=            -94.1782
   XY=              8.1929   XZ=             -2.2161   YZ=              0.0165

 Normal termination of Gaussian 16 at Thu May  6 09:29:22 2021.
