 Gaussian 16, Revision A.03,
 Gaussian 16:  EM64L-G16RevA.03 25-Dec-2016

 -------------
 #p 6-31g* mp2
 -------------

 ------------------------------------------------------
 Input file generated by CHIRIPA (05-May-2021 14:51:11)
 ------------------------------------------------------
 Symbolic Z-matrix:
 Charge =  0 Multiplicity = 1

                         Standard orientation:
 ---------------------------------------------------------------------
 Center     Atomic      Atomic             Coordinates (Angstroms)
 Number     Number       Type             X           Y           Z
 ---------------------------------------------------------------------
      1          6           0        3.766858    0.441260   -0.195017
      2          6           0        3.732040    1.948666    0.058951
      3          6           0        2.368111    2.568322   -0.246854
      4          1           0        3.500511    0.246143   -1.242840
      5          1           0        2.996220   -0.044897    0.419119
      6          1           0        4.503440    2.431681   -0.554445
      7          1           0        3.998688    2.140229    1.106242
      8          1           0        1.590179    2.113352    0.374778
      9          1           0        2.097800    2.406460   -1.295345
     10          1           0        2.365618    3.646441   -0.058402
     11          6           0        5.123761   -0.192649    0.106151
     12          6           0        5.158580   -1.700055   -0.147817
     13          6           0        6.522509   -2.319712    0.157988
     14          1           0        5.894400    0.293508   -0.507985
     15          1           0        5.390109    0.002468    1.153974
     16          1           0        4.891932   -1.891618   -1.195108
     17          1           0        4.387180   -2.183070    0.465579
     18          1           0        6.792820   -2.157849    1.206479
     19          1           0        7.300440   -1.864741   -0.463644
     20          1           0        6.525002   -3.397830   -0.030465
     21          6           0       -5.183009    0.021914    0.178047
     22          6           0       -6.117393   -1.091959   -0.295447
     23          6           0       -7.589887   -0.784819   -0.021186
     24          1           0       -5.331075    0.183113    1.254632
     25          1           0       -5.461551    0.961020   -0.319839
     26          1           0       -5.836288   -2.028978    0.202139
     27          1           0       -5.966946   -1.250656   -1.370992
     28          1           0       -7.892832    0.135587   -0.530772
     29          1           0       -7.761432   -0.647158    1.051297
     30          1           0       -8.240100   -1.594180   -0.367622
     31          6           0       -3.707611   -0.270525   -0.089180
     32          6           0       -2.773227    0.843348    0.384313
     33          6           0       -1.300733    0.536208    0.110053
     34          1           0       -3.429068   -1.209630    0.408705
     35          1           0       -3.559544   -0.431724   -1.165767
     36          1           0       -2.923673    1.002046    1.459858
     37          1           0       -3.054331    1.780368   -0.113273
     38          1           0       -1.129188    0.398547   -0.962432
     39          1           0       -0.997788   -0.384197    0.619638
     40          1           0       -0.650519    1.345570    0.456488
 ---------------------------------------------------------------------

 SCF Done:  E(RHF) =  -470.733207703     A.U. after   11 cycles
 E2 =    -0.1582241604D+01 EUMP2 =    -0.47231544930685D+03

 The electronic state is 1-A.
 Alpha  occ. eigenvalues --  -11.21592 -11.21578 -11.21574 -11.21561 -11.21391
 Alpha  occ. eigenvalues --  -11.21364 -11.21331 -11.21302 -11.21064 -11.21051
 Alpha  occ. eigenvalues --  -11.21025 -11.21007  -1.08415  -1.08391  -1.03523
 Alpha  occ. eigenvalues --   -1.03484  -0.95992  -0.95916  -0.87034  -0.86911
 Alpha  occ. eigenvalues --   -0.79626  -0.79509  -0.78232  -0.78196  -0.65045
 Alpha  occ. eigenvalues --   -0.65024  -0.60914  -0.60905  -0.59396  -0.59274
 Alpha  occ. eigenvalues --   -0.57665  -0.57470  -0.55247  -0.55241  -0.52817
 Alpha  occ. eigenvalues --   -0.52636  -0.52411  -0.52200  -0.49902  -0.49870
 Alpha  occ. eigenvalues --   -0.47947  -0.47809  -0.46611  -0.46584  -0.45775
 Alpha  occ. eigenvalues --   -0.45740  -0.45696  -0.45669  -0.43750  -0.43722
 Alpha virt. eigenvalues --    0.22366   0.22988   0.23584   0.24731   0.26201
 Alpha virt. eigenvalues --    0.26642   0.27014   0.27429   0.27786   0.28875
 Alpha virt. eigenvalues --    0.29967   0.31364   0.31796   0.31918   0.32007

 Mulliken charges:
               1
     1  C   -0.298291
     2  C   -0.299417
     3  C   -0.480778
     4  H    0.149651
     5  H    0.150232
     6  H    0.151669
     7  H    0.151588
     8  H    0.160674
     9  H    0.155377
    10  H    0.159654
    11  C   -0.298300
    12  C   -0.299593
    13  C   -0.475681
    14  H    0.149386
    15  H    0.149486
    16  H    0.151935
    17  H    0.151937
    18  H    0.155105
    19  H    0.155125
    20  H    0.160156
    21  C   -0.298210
    22  C   -0.299607
    23  C   -0.475690
    24  H    0.149573
    25  H    0.149545
    26  H    0.151879
    27  H    0.151936
    28  H    0.155186
    29  H    0.155148
    30  H    0.160215
    31  C   -0.298595
    32  C   -0.299220
    33  C   -0.480447
    34  H    0.149384
    35  H    0.149656
    36  H    0.151591
    37  H    0.152136
    38  H    0.155691
    39  H    0.154346
    40  H    0.165569
 Sum of Mulliken charges =  -0.00000

 Dipole moment (field-independent basis, Debye):
    X=             -0.0075    Y=              0.0030    Z=             -0.0049  Tot=              0.0094
 Quadrupole moment (field-independent basis, Debye-Ang):
   XX=            -86.9431   YY=            -84.9715   ZZ=            -83.0265
   XY=              0.6109   XZ=             -0.2292   YZ=             -0.4950

 Normal termination of Gaussian 16 at Wed May  5 15:13:36 2021.
