 Gaussian 16, Revision A.03,
 Gaussian 16:  EM64L-G16RevA.03 25-Dec-2016

 -------------
 #p 6-31g* mp2
 -------------

 ------------------------------------------------------
 Input file generated by CHIRIPA (05-May-2021 14:53:12)
 ------------------------------------------------------
 Symbolic Z-matrix:
 Charge =  0 Multiplicity = 1

                         Standard orientation:
 ---------------------------------------------------------------------
 Center     Atomic      Atomic             Coordinates (Angstroms)
 Number     Number       Type             X           Y           Z
 ---------------------------------------------------------------------
      1          6           0       -3.164782    0.012961   -0.440881
      2          6           0       -4.108322   -0.703047    0.526099
      3          6           0       -4.799777   -1.910437   -0.107851
      4          1           0       -3.731677    0.335634   -1.324882
      5          1           0       -2.407545   -0.698780   -0.797829
      6          1           0       -4.862724    0.010182    0.882185
      7          1           0       -3.539154   -1.023884    1.407988
      8          1           0       -4.060684   -2.643316   -0.447307
      9          1           0       -5.391774   -1.603375   -0.976097
     10          1           0       -5.469569   -2.407376    0.600874
     11          6           0       -2.466061    1.222145    0.178305
     12          6           0       -1.522522    1.938153   -0.788675
     13          6           0       -0.831067    3.145543   -0.154725
     14          1           0       -3.223299    1.933885    0.535253
     15          1           0       -1.899166    0.899472    1.062306
     16          1           0       -2.091690    2.258990   -1.670564
     17          1           0       -0.768120    1.224923   -1.144761
     18          1           0       -0.239069    2.838480    0.713521
     19          1           0       -1.570160    3.878422    0.184732
     20          1           0       -0.161275    3.642482   -0.863450
     21          6           0        2.572118    1.998219    0.373363
     22          6           0        2.057590    1.247578    1.435587
     23          6           0        1.847079   -0.127549    1.296814
     24          6           0        2.163530   -0.722286    0.076390
     25          6           0        2.677556   -0.001507   -1.000432
     26          6           0        2.879917    1.372384   -0.839119
     27          1           0        2.732482    3.065971    0.489920
     28          1           0        1.817645    1.730947    2.378362
     29          1           0        1.449972   -0.732583    2.102827
     30          1           0        2.907210   -0.511417   -1.928154
     31          1           0        3.279635    1.952834   -1.665766
     32          7           0        1.944985   -2.177417   -0.082454
     33          8           0        2.231828   -2.677688   -1.167853
     34          8           0        1.490986   -2.790126    0.881449
 ---------------------------------------------------------------------

 SCF Done:  E(RHF) =  -669.534742288     A.U. after   15 cycles
 E2 =    -0.2093806338D+01 EUMP2 =    -0.67162854862584D+03

 The electronic state is 1-A.
 Alpha  occ. eigenvalues --  -20.60855 -20.60850 -15.85912 -11.31288 -11.27884
 Alpha  occ. eigenvalues --  -11.27877 -11.27592 -11.26866 -11.26852 -11.21759
 Alpha  occ. eigenvalues --  -11.21481 -11.21464 -11.21395 -11.21296 -11.20827
 Alpha  occ. eigenvalues --   -1.59933  -1.39485  -1.19478  -1.08869  -1.08444
 Alpha  occ. eigenvalues --   -1.04883  -1.03553  -0.96038  -0.95678  -0.87050
 Alpha  occ. eigenvalues --   -0.86275  -0.82522  -0.79638  -0.78248  -0.77569
 Alpha  occ. eigenvalues --   -0.72128  -0.71260  -0.70570  -0.65139  -0.65081
 Alpha  occ. eigenvalues --   -0.64875  -0.62228  -0.60985  -0.59417  -0.57627
 Alpha  occ. eigenvalues --   -0.55439  -0.55346  -0.53134  -0.52967  -0.52694
 Alpha  occ. eigenvalues --   -0.52430  -0.49961  -0.48888  -0.48882  -0.47942
 Alpha  occ. eigenvalues --   -0.46678  -0.45795  -0.45700  -0.44889  -0.43820
 Alpha  occ. eigenvalues --   -0.37343  -0.36454
 Alpha virt. eigenvalues --    0.04958   0.11049   0.16416   0.20909   0.22869
 Alpha virt. eigenvalues --    0.24365   0.26249   0.26914   0.27245   0.27902
 Alpha virt. eigenvalues --    0.28869   0.30510   0.31413   0.31671   0.32087

 Mulliken charges:
               1
     1  C   -0.299118
     2  C   -0.299583
     3  C   -0.476509
     4  H    0.149296
     5  H    0.153233
     6  H    0.150070
     7  H    0.152938
     8  H    0.159969
     9  H    0.154017
    10  H    0.160181
    11  C   -0.297850
    12  C   -0.300093
    13  C   -0.475101
    14  H    0.148525
    15  H    0.146762
    16  H    0.152051
    17  H    0.155001
    18  H    0.152878
    19  H    0.153643
    20  H    0.152957
    21  C   -0.163814
    22  C   -0.220861
    23  C   -0.171505
    24  C    0.157862
    25  C   -0.171165
    26  C   -0.219160
    27  H    0.227457
    28  H    0.224368
    29  H    0.275914
    30  H    0.276237
    31  H    0.224092
    32  N    0.487935
    33  O   -0.460157
    34  O   -0.460472
 Sum of Mulliken charges =  -0.00000

 Dipole moment (field-independent basis, Debye):
    X=              0.8552    Y=              5.0287    Z=              0.5400  Tot=              5.1294
 Quadrupole moment (field-independent basis, Debye-Ang):
   XX=            -91.1794   YY=           -103.5990   ZZ=            -90.3759
   XY=             10.2095   XZ=             -0.4711   YZ=             -0.7063

 Normal termination of Gaussian 16 at Thu May  6 15:21:06 2021.
