 Gaussian 16, Revision A.03,
 Gaussian 16:  EM64L-G16RevA.03 25-Dec-2016

 -------------
 #p 6-31g* mp2
 -------------

 ------------------------------------------------------
 Input file generated by CHIRIPA (05-May-2021 14:55:25)
 ------------------------------------------------------
 Symbolic Z-matrix:
 Charge =  0 Multiplicity = 1

                         Standard orientation:
 ---------------------------------------------------------------------
 Center     Atomic      Atomic             Coordinates (Angstroms)
 Number     Number       Type             X           Y           Z
 ---------------------------------------------------------------------
      1          6           0       -0.490794   -0.289899    1.746734
      2          6           0       -1.334185    0.823502    1.821248
      3          6           0       -2.462048    0.916076    1.000332
      4          6           0       -2.717632   -0.127703    0.112361
      5          6           0       -1.896414   -1.249912    0.014701
      6          6           0       -0.774101   -1.321234    0.845288
      7          1           0        0.383201   -0.353558    2.388198
      8          1           0       -1.116633    1.625952    2.520383
      9          1           0       -3.131803    1.766650    1.037353
     10          1           0       -2.139285   -2.034013   -0.692135
     11          1           0       -0.120877   -2.187109    0.785254
     12          7           0       -3.908712   -0.040948   -0.761825
     13          8           0       -4.111928   -0.973875   -1.535767
     14          8           0       -4.616512    0.958335   -0.656517
     15          6           0        2.780200    0.800027   -0.364026
     16          6           0        3.563320    2.111687   -0.429288
     17          6           0        2.655012    3.339572   -0.500485
     18          1           0        2.128522    0.725212   -1.245311
     19          1           0        2.118693    0.819280    0.513148
     20          1           0        4.224167    2.089397   -1.305303
     21          1           0        4.213351    2.183299    0.452157
     22          1           0        2.005095    3.389512    0.379126
     23          1           0        2.015973    3.295077   -1.388320
     24          1           0        3.235537    4.266253   -0.546425
     25          6           0        3.674399   -0.436506   -0.292454
     26          6           0        2.891278   -1.748164   -0.227191
     27          6           0        3.799586   -2.976049   -0.155995
     28          1           0        4.335905   -0.455758   -1.169627
     29          1           0        4.326076   -0.361690    0.588831
     30          1           0        2.241247   -1.819777   -1.108638
     31          1           0        2.230431   -1.725876    0.648822
     32          1           0        4.438625   -2.931555    0.731839
     33          1           0        4.449502   -3.025990   -1.035605
     34          1           0        3.219060   -3.902732   -0.110055
 ---------------------------------------------------------------------

 SCF Done:  E(RHF) =  -669.534583527     A.U. after   15 cycles
 E2 =    -0.2093286244D+01 EUMP2 =    -0.67162786977071D+03

 The electronic state is 1-A.
 Alpha  occ. eigenvalues --  -20.60750 -20.60745 -15.85803 -11.31168 -11.27732
 Alpha  occ. eigenvalues --  -11.27713 -11.27481 -11.26768 -11.26699 -11.22564
 Alpha  occ. eigenvalues --  -11.22131 -11.22120 -11.21962 -11.21881 -11.21537
 Alpha  occ. eigenvalues --   -1.59826  -1.39379  -1.19339  -1.09148  -1.08734
 Alpha  occ. eigenvalues --   -1.04740  -1.04228  -0.96647  -0.95578  -0.87665
 Alpha  occ. eigenvalues --   -0.86148  -0.82405  -0.80330  -0.78947  -0.77438
 Alpha  occ. eigenvalues --   -0.72023  -0.71148  -0.70475  -0.65807  -0.64992
 Alpha  occ. eigenvalues --   -0.64741  -0.62129  -0.61602  -0.60020  -0.58267
 Alpha  occ. eigenvalues --   -0.55941  -0.55250  -0.53382  -0.53120  -0.53015
 Alpha  occ. eigenvalues --   -0.52824  -0.50590  -0.48813  -0.48777  -0.48572
 Alpha  occ. eigenvalues --   -0.47366  -0.46460  -0.46391  -0.44785  -0.44468
 Alpha  occ. eigenvalues --   -0.37257  -0.36320
 Alpha virt. eigenvalues --    0.05043   0.11235   0.16427   0.19838   0.22712
 Alpha virt. eigenvalues --    0.23474   0.25397   0.26217   0.26645   0.27842
 Alpha virt. eigenvalues --    0.29612   0.30267   0.30850   0.31390   0.31865

 Mulliken charges:
               1
     1  C   -0.169633
     2  C   -0.219295
     3  C   -0.170881
     4  C    0.158784
     5  C   -0.172925
     6  C   -0.216531
     7  H    0.224474
     8  H    0.223148
     9  H    0.275562
    10  H    0.275398
    11  H    0.227316
    12  N    0.488002
    13  O   -0.460527
    14  O   -0.460440
    15  C   -0.299693
    16  C   -0.300415
    17  C   -0.474894
    18  H    0.153971
    19  H    0.145490
    20  H    0.154100
    21  H    0.150697
    22  H    0.151270
    23  H    0.158546
    24  H    0.161933
    25  C   -0.298941
    26  C   -0.301369
    27  C   -0.476041
    28  H    0.153283
    29  H    0.149067
    30  H    0.155118
    31  H    0.140397
    32  H    0.156275
    33  H    0.159767
    34  H    0.158987
 Sum of Mulliken charges =  -0.00000

 Dipole moment (field-independent basis, Debye):
    X=              4.2911    Y=             -0.2793    Z=              2.9637  Tot=              5.2225
 Quadrupole moment (field-independent basis, Debye-Ang):
   XX=           -118.0511   YY=            -91.8076   ZZ=            -92.7909
   XY=             -0.4089   XZ=             -8.8447   YZ=              1.7601

 Normal termination of Gaussian 16 at Thu May  6 04:49:34 2021.
