 Gaussian 16, Revision A.03,
 Gaussian 16:  EM64L-G16RevA.03 25-Dec-2016

 -------------
 #p 6-31g* mp2
 -------------

 ------------------------------------------------------
 Input file generated by CHIRIPA (05-May-2021 14:57:22)
 ------------------------------------------------------
 Symbolic Z-matrix:
 Charge =  0 Multiplicity = 1

                         Standard orientation:
 ---------------------------------------------------------------------
 Center     Atomic      Atomic             Coordinates (Angstroms)
 Number     Number       Type             X           Y           Z
 ---------------------------------------------------------------------
      1          6           0        5.882946    1.084578   -1.185487
      2          6           0        4.654494    1.694491   -0.910837
      3          6           0        3.658038    1.002790   -0.215730
      4          6           0        3.925084   -0.303324    0.191754
      5          6           0        5.138866   -0.938309   -0.066735
      6          6           0        6.120792   -0.227562   -0.763304
      7          1           0        6.651373    1.629306   -1.726030
      8          1           0        4.466998    2.713405   -1.237494
      9          1           0        2.698051    1.450863    0.010264
     10          1           0        5.296462   -1.955186    0.271706
     11          1           0        7.073885   -0.703754   -0.975200
     12          7           0        2.877872   -1.045678    0.928407
     13          8           0        3.137884   -2.195376    1.276583
     14          8           0        1.816884   -0.463782    1.143669
     15          6           0       -2.062756    1.413207    0.770264
     16          6           0       -3.341408    1.826914    1.158099
     17          6           0       -4.476004    1.151640    0.698484
     18          6           0       -4.294406    0.061848   -0.151612
     19          6           0       -3.033680   -0.374488   -0.555929
     20          6           0       -1.913236    0.315761   -0.084006
     21          1           0       -1.186871    1.943592    1.132085
     22          1           0       -3.460544    2.678871    1.821441
     23          1           0       -5.477564    1.450612    0.982931
     24          1           0       -2.946717   -1.227288   -1.218189
     25          1           0       -0.921442   -0.007764   -0.386859
     26          7           0       -5.488060   -0.660962   -0.644701
     27          8           0       -5.301227   -1.618093   -1.392785
     28          8           0       -6.587879   -0.256681   -0.273763
 ---------------------------------------------------------------------

 SCF Done:  E(RHF) =  -868.339255683     A.U. after   16 cycles
 E2 =    -0.2598589315D+01 EUMP2 =    -0.87093784499782D+03

 The electronic state is 1-A.
 Alpha  occ. eigenvalues --  -20.61780 -20.61697 -20.60193 -20.60185 -15.86778
 Alpha  occ. eigenvalues --  -15.85238 -11.31970 -11.30475 -11.28568 -11.28472
 Alpha  occ. eigenvalues --  -11.28191 -11.27497 -11.27446 -11.27050 -11.26966
 Alpha  occ. eigenvalues --  -11.26695 -11.26058 -11.25863  -1.60798  -1.59269
 Alpha  occ. eigenvalues --   -1.40364  -1.38826  -1.20117  -1.18618  -1.09536
 Alpha  occ. eigenvalues --   -1.08029  -1.05496  -1.03993  -0.96405  -0.94894
 Alpha  occ. eigenvalues --   -0.86901  -0.85388  -0.83248  -0.81727  -0.78327
 Alpha  occ. eigenvalues --   -0.76797  -0.73004  -0.72108  -0.71460  -0.71220
 Alpha  occ. eigenvalues --   -0.70589  -0.69721  -0.65774  -0.65491  -0.64263
 Alpha  occ. eigenvalues --   -0.63963  -0.62854  -0.61336  -0.55984  -0.54486
 Alpha  occ. eigenvalues --   -0.53828  -0.53585  -0.52338  -0.52067  -0.49770
 Alpha  occ. eigenvalues --   -0.49721  -0.48223  -0.48205  -0.45799  -0.44261
 Alpha  occ. eigenvalues --   -0.38073  -0.37090  -0.36582  -0.35592
 Alpha virt. eigenvalues --    0.04178   0.05717   0.10566   0.12065   0.15695
 Alpha virt. eigenvalues --    0.17258   0.20454   0.22123   0.26338   0.27131
 Alpha virt. eigenvalues --    0.28381   0.28935   0.30663   0.31808   0.32050

 Mulliken charges:
               1
     1  C   -0.170017
     2  C   -0.217861
     3  C   -0.170725
     4  C    0.158626
     5  C   -0.170279
     6  C   -0.218123
     7  H    0.228321
     8  H    0.224702
     9  H    0.268518
    10  H    0.277582
    11  H    0.226305
    12  N    0.490017
    13  O   -0.453485
    14  O   -0.471332
    15  C   -0.170292
    16  C   -0.218918
    17  C   -0.172508
    18  C    0.158336
    19  C   -0.172459
    20  C   -0.217891
    21  H    0.225266
    22  H    0.220204
    23  H    0.272957
    24  H    0.274381
    25  H    0.234743
    26  N    0.488151
    27  O   -0.461518
    28  O   -0.462700
 Sum of Mulliken charges =  -0.00000

 Dipole moment (field-independent basis, Debye):
    X=              8.4311    Y=              5.0594    Z=             -0.8779  Tot=              9.8717
 Quadrupole moment (field-independent basis, Debye-Ang):
   XX=           -108.7883   YY=           -101.6294   ZZ=           -106.4374
   XY=             -6.3480   XZ=            -19.5628   YZ=              2.3961

 Normal termination of Gaussian 16 at Fri May  7 01:44:09 2021.
