 Gaussian 16, Revision A.03,
 Gaussian 16:  EM64L-G16RevA.03 25-Dec-2016

 -------------
 #p 6-31g* mp2
 -------------

 ------------------------------------------------------
 Input file generated by CHIRIPA (05-May-2021 14:55:21)
 ------------------------------------------------------
 Symbolic Z-matrix:
 Charge =  0 Multiplicity = 1

                         Standard orientation:
 ---------------------------------------------------------------------
 Center     Atomic      Atomic             Coordinates (Angstroms)
 Number     Number       Type             X           Y           Z
 ---------------------------------------------------------------------
      1          6           0        5.751030    0.527676    0.156170
      2          6           0        4.792825    1.320961   -0.483410
      3          6           0        3.483219    0.859558   -0.646461
      4          6           0        3.164945   -0.405748   -0.155553
      5          6           0        4.097189   -1.219692    0.486091
      6          6           0        5.400772   -0.737887    0.638030
      7          1           0        6.766024    0.894029    0.278516
      8          1           0        5.062001    2.304221   -0.858630
      9          1           0        2.721608    1.452892   -1.137708
     10          1           0        3.798944   -2.195571    0.849584
     11          1           0        6.142851   -1.356143    1.135145
     12          7           0        1.781712   -0.905014   -0.322285
     13          8           0        1.526571   -2.023366    0.119108
     14          8           0        0.978867   -0.168533   -0.891207
     15          6           0       -3.703882    0.548910    0.559977
     16          6           0       -2.874018    1.703305   -0.002767
     17          6           0       -1.598665    1.960963    0.800279
     18          1           0       -3.964556    0.768188    1.604445
     19          1           0       -3.089177   -0.361739    0.575805
     20          1           0       -3.490543    2.611190   -0.018817
     21          1           0       -2.615451    1.481342   -1.046075
     22          1           0       -0.960693    1.071267    0.806028
     23          1           0       -1.840756    2.207536    1.839122
     24          1           0       -1.020646    2.790204    0.380621
     25          6           0       -4.981989    0.279156   -0.232110
     26          6           0       -5.811854   -0.875240    0.330634
     27          6           0       -7.087206   -1.132897   -0.472412
     28          1           0       -5.596695    1.189805   -0.247937
     29          1           0       -4.721315    0.059879   -1.276578
     30          1           0       -6.070420   -0.653276    1.373943
     31          1           0       -5.195329   -1.783125    0.346685
     32          1           0       -6.845116   -1.379469   -1.511255
     33          1           0       -7.725180   -0.243202   -0.478161
     34          1           0       -7.665226   -1.962139   -0.052754
 ---------------------------------------------------------------------

 SCF Done:  E(RHF) =  -669.536246012     A.U. after   15 cycles
 E2 =    -0.2090841209D+01 EUMP2 =    -0.67162708722108D+03

 The electronic state is 1-A.
 Alpha  occ. eigenvalues --  -20.60973 -20.60958 -15.85991 -11.31290 -11.27853
 Alpha  occ. eigenvalues --  -11.27847 -11.27589 -11.26856 -11.26846 -11.20833
 Alpha  occ. eigenvalues --  -11.20505 -11.20485 -11.20431 -11.20301 -11.19823
 Alpha  occ. eigenvalues --   -1.60029  -1.39584  -1.19458  -1.08868  -1.07469
 Alpha  occ. eigenvalues --   -1.04851  -1.02573  -0.95714  -0.95029  -0.86253
 Alpha  occ. eigenvalues --   -0.86054  -0.82546  -0.78665  -0.77602  -0.77272
 Alpha  occ. eigenvalues --   -0.72217  -0.71341  -0.70568  -0.65115  -0.64855
 Alpha  occ. eigenvalues --   -0.64085  -0.62198  -0.59947  -0.58431  -0.56651
 Alpha  occ. eigenvalues --   -0.55359  -0.54297  -0.53182  -0.52943  -0.51759
 Alpha  occ. eigenvalues --   -0.51467  -0.49082  -0.48979  -0.48855  -0.46986
 Alpha  occ. eigenvalues --   -0.45728  -0.44994  -0.44810  -0.44619  -0.42845
 Alpha  occ. eigenvalues --   -0.37435  -0.36450
 Alpha virt. eigenvalues --    0.04899   0.11205   0.16381   0.21322   0.23828
 Alpha virt. eigenvalues --    0.25249   0.27241   0.27609   0.28146   0.28464
 Alpha virt. eigenvalues --    0.29013   0.30931   0.32215   0.32530   0.32710

 Mulliken charges:
               1
     1  C   -0.170506
     2  C   -0.218580
     3  C   -0.170435
     4  C    0.158311
     5  C   -0.170748
     6  C   -0.218602
     7  H    0.226002
     8  H    0.223885
     9  H    0.276161
    10  H    0.275768
    11  H    0.223790
    12  N    0.487864
    13  O   -0.459397
    14  O   -0.459328
    15  C   -0.300076
    16  C   -0.297420
    17  C   -0.479603
    18  H    0.145228
    19  H    0.158811
    20  H    0.145014
    21  H    0.156839
    22  H    0.173985
    23  H    0.146554
    24  H    0.151651
    25  C   -0.297897
    26  C   -0.299475
    27  C   -0.475249
    28  H    0.146050
    29  H    0.150709
    30  H    0.149898
    31  H    0.154180
    32  H    0.155057
    33  H    0.153282
    34  H    0.158275
 Sum of Mulliken charges =  -0.00000

 Dipole moment (field-independent basis, Debye):
    X=              5.1696    Y=              1.6072    Z=              0.5160  Tot=              5.4382
 Quadrupole moment (field-independent basis, Debye-Ang):
   XX=            -65.7619   YY=            -92.9280   ZZ=            -94.5997
   XY=              2.2355   XZ=              1.2821   YZ=             -2.7971

 Normal termination of Gaussian 16 at Wed May  5 18:57:37 2021.
