 Gaussian 16, Revision A.03,
 Gaussian 16:  EM64L-G16RevA.03 25-Dec-2016

 -------------
 #p 6-31g* mp2
 -------------

 ------------------------------------------------------
 Input file generated by CHIRIPA (05-May-2021 14:53:13)
 ------------------------------------------------------
 Symbolic Z-matrix:
 Charge =  0 Multiplicity = 1

                         Standard orientation:
 ---------------------------------------------------------------------
 Center     Atomic      Atomic             Coordinates (Angstroms)
 Number     Number       Type             X           Y           Z
 ---------------------------------------------------------------------
      1          6           0        3.525979    0.347926   -0.564891
      2          6           0        4.567696   -0.332442    0.323879
      3          6           0        5.625624   -1.090023   -0.479024
      4          1           0        3.038364   -0.409838   -1.193357
      5          1           0        4.034514    1.041267   -1.249045
      6          1           0        4.057213   -1.023268    1.007093
      7          1           0        5.052754    0.427004    0.950438
      8          1           0        6.160955   -0.409677   -1.149211
      9          1           0        5.159758   -1.868189   -1.092235
     10          1           0        6.360218   -1.568697    0.176035
     11          6           0        2.461634    1.109336    0.223241
     12          6           0        1.419918    1.789703   -0.665529
     13          6           0        0.361990    2.547285    0.137374
     14          1           0        1.953099    0.415995    0.907395
     15          1           0        2.949249    1.867100    0.851707
     16          1           0        0.934860    1.030258   -1.292089
     17          1           0        1.930401    2.480530   -1.348743
     18          1           0        0.827856    3.325451    0.750585
     19          1           0       -0.173342    1.866939    0.807561
     20          1           0       -0.372605    3.025958   -0.517685
     21          6           0       -4.507839    0.471079   -0.627732
     22          6           0       -3.850962   -0.454933   -1.444761
     23          6           0       -2.648645   -1.037676   -1.033186
     24          6           0       -2.129228   -0.669818    0.207046
     25          6           0       -2.760002    0.249729    1.043615
     26          6           0       -3.961226    0.819839    0.611663
     27          1           0       -5.441403    0.918861   -0.955369
     28          1           0       -4.273139   -0.727670   -2.407791
     29          1           0       -2.119212   -1.757266   -1.645810
     30          1           0       -2.314610    0.501745    1.998357
     31          1           0       -4.469174    1.538709    1.248263
     32          7           0       -0.856967   -1.280054    0.653548
     33          8           0       -0.420083   -0.939202    1.750630
     34          8           0       -0.320745   -2.087656   -0.102019
 ---------------------------------------------------------------------

 SCF Done:  E(RHF) =  -669.536428269     A.U. after   15 cycles
 E2 =    -0.2094017356D+01 EUMP2 =    -0.67163044562532D+03

 The electronic state is 1-A.
 Alpha  occ. eigenvalues --  -20.61137 -20.61121 -15.86112 -11.31343 -11.27900
 Alpha  occ. eigenvalues --  -11.27894 -11.27621 -11.26883 -11.26871 -11.20938
 Alpha  occ. eigenvalues --  -11.20584 -11.20571 -11.20339 -11.20210 -11.20209
 Alpha  occ. eigenvalues --   -1.60166  -1.39727  -1.19506  -1.08929  -1.07474
 Alpha  occ. eigenvalues --   -1.04889  -1.02725  -0.95786  -0.95166  -0.86324
 Alpha  occ. eigenvalues --   -0.86175  -0.82624  -0.78787  -0.77692  -0.77251
 Alpha  occ. eigenvalues --   -0.72342  -0.71503  -0.70622  -0.65166  -0.64894
 Alpha  occ. eigenvalues --   -0.64063  -0.62246  -0.60121  -0.58552  -0.56776
 Alpha  occ. eigenvalues --   -0.55402  -0.54520  -0.53179  -0.52982  -0.51921
 Alpha  occ. eigenvalues --   -0.51604  -0.49300  -0.49107  -0.48927  -0.47116
 Alpha  occ. eigenvalues --   -0.45972  -0.45234  -0.44818  -0.44332  -0.42916
 Alpha  occ. eigenvalues --   -0.37460  -0.36458
 Alpha virt. eigenvalues --    0.04777   0.11092   0.16267   0.21224   0.23645
 Alpha virt. eigenvalues --    0.24922   0.26926   0.27462   0.28080   0.28777
 Alpha virt. eigenvalues --    0.28855   0.30648   0.31673   0.32293   0.32500

 Mulliken charges:
               1
     1  C   -0.297729
     2  C   -0.300569
     3  C   -0.475513
     4  H    0.154780
     5  H    0.142990
     6  H    0.160890
     7  H    0.147962
     8  H    0.151378
     9  H    0.156409
    10  H    0.157916
    11  C   -0.309421
    12  C   -0.300651
    13  C   -0.480453
    14  H    0.175064
    15  H    0.144275
    16  H    0.148813
    17  H    0.148908
    18  H    0.153991
    19  H    0.157082
    20  H    0.153929
    21  C   -0.170233
    22  C   -0.218531
    23  C   -0.170945
    24  C    0.161303
    25  C   -0.170643
    26  C   -0.218639
    27  H    0.226287
    28  H    0.224006
    29  H    0.275763
    30  H    0.275855
    31  H    0.224356
    32  N    0.488904
    33  O   -0.459110
    34  O   -0.458422
 Sum of Mulliken charges =  -0.00000

 Dipole moment (field-independent basis, Debye):
    X=             -4.7085    Y=              1.9118    Z=             -1.4603  Tot=              5.2875
 Quadrupole moment (field-independent basis, Debye-Ang):
   XX=            -77.1496   YY=            -96.9421   ZZ=            -92.2191
   XY=             -1.2230   XZ=              2.9452   YZ=              3.9333

 Normal termination of Gaussian 16 at Wed May  5 23:26:19 2021.
