 Gaussian 16, Revision A.03,
 Gaussian 16:  EM64L-G16RevA.03 25-Dec-2016

 -------------
 #p 6-31g* mp2
 -------------

 ------------------------------------------------------
 Input file generated by CHIRIPA (05-May-2021 14:51:08)
 ------------------------------------------------------
 Symbolic Z-matrix:
 Charge =  0 Multiplicity = 1

                         Standard orientation:
 ---------------------------------------------------------------------
 Center     Atomic      Atomic             Coordinates (Angstroms)
 Number     Number       Type             X           Y           Z
 ---------------------------------------------------------------------
      1          6           0        2.618812    1.283702    0.367814
      2          6           0        1.800762    2.474877   -0.132068
      3          6           0        1.896504    3.687962    0.793703
      4          1           0        2.274762    1.007062    1.373819
      5          1           0        3.670173    1.586574    0.469321
      6          1           0        0.751496    2.169457   -0.233922
      7          1           0        2.146671    2.748591   -1.137077
      8          1           0        2.935483    4.020218    0.887130
      9          1           0        1.532381    3.437793    1.795418
     10          1           0        1.304249    4.527895    0.417397
     11          6           0        2.533160    0.063297   -0.547065
     12          6           0        3.351209   -1.127878   -0.047183
     13          6           0        3.255468   -2.340963   -0.972954
     14          1           0        1.481799   -0.239575   -0.648571
     15          1           0        2.877210    0.339937   -1.553069
     16          1           0        3.005301   -1.401592    0.957827
     17          1           0        4.400476   -0.822458    0.054671
     18          1           0        3.619591   -2.090794   -1.974668
     19          1           0        2.216489   -2.673219   -1.066381
     20          1           0        3.847722   -3.180897   -0.596647
     21          6           0       -2.112266   -1.245956   -0.112091
     22          6           0       -1.627876   -2.080580    1.073976
     23          6           0       -0.701051   -3.221952    0.654386
     24          1           0       -2.633316   -1.900334   -0.824300
     25          1           0       -1.241829   -0.836356   -0.643092
     26          1           0       -2.499009   -2.487348    1.603396
     27          1           0       -1.108087   -1.424105    1.783536
     28          1           0        0.185699   -2.830770    0.145218
     29          1           0       -1.213126   -3.900055   -0.035946
     30          1           0       -0.366691   -3.805633    1.517741
     31          6           0       -3.039705   -0.101042    0.291342
     32          6           0       -3.524095    0.733580   -0.894726
     33          6           0       -4.450921    1.874954   -0.475136
     34          1           0       -3.910143   -0.510643    0.822342
     35          1           0       -2.518655    0.553335    1.003550
     36          1           0       -4.043885    0.077107   -1.604286
     37          1           0       -2.652963    1.140349   -1.424145
     38          1           0       -3.938846    2.553055    0.215196
     39          1           0       -5.337671    1.483772    0.034032
     40          1           0       -4.785279    2.458633   -1.338491
 ---------------------------------------------------------------------

 SCF Done:  E(RHF) =  -470.733241619     A.U. after   11 cycles
 E2 =    -0.1583787880D+01 EUMP2 =    -0.47231702949915D+03

 The electronic state is 1-A.
 Alpha  occ. eigenvalues --  -11.21667 -11.21660 -11.21634 -11.21633 -11.21466
 Alpha  occ. eigenvalues --  -11.21461 -11.21406 -11.21400 -11.21121 -11.21110
 Alpha  occ. eigenvalues --  -11.21092 -11.21069  -1.08503  -1.08464  -1.03601
 Alpha  occ. eigenvalues --   -1.03548  -0.96055  -0.95992  -0.87077  -0.87003
 Alpha  occ. eigenvalues --   -0.79676  -0.79598  -0.78352  -0.78243  -0.65308
 Alpha  occ. eigenvalues --   -0.64941  -0.61185  -0.60783  -0.59415  -0.59362
 Alpha  occ. eigenvalues --   -0.57701  -0.57576  -0.55528  -0.55115  -0.52718
 Alpha  occ. eigenvalues --   -0.52704  -0.52543  -0.52351  -0.50145  -0.49770
 Alpha  occ. eigenvalues --   -0.48078  -0.47851  -0.46819  -0.46539  -0.46102
 Alpha  occ. eigenvalues --   -0.45817  -0.45798  -0.45396  -0.43832  -0.43827
 Alpha virt. eigenvalues --    0.18963   0.22268   0.23977   0.24907   0.25184
 Alpha virt. eigenvalues --    0.26703   0.26889   0.27613   0.28627   0.29776
 Alpha virt. eigenvalues --    0.30917   0.31557   0.31687   0.31710   0.31788

 Mulliken charges:
               1
     1  C   -0.298009
     2  C   -0.299981
     3  C   -0.475761
     4  H    0.149546
     5  H    0.150007
     6  H    0.151164
     7  H    0.152299
     8  H    0.155500
     9  H    0.155129
    10  H    0.160460
    11  C   -0.303962
    12  C   -0.299933
    13  C   -0.480658
    14  H    0.153066
    15  H    0.150157
    16  H    0.152547
    17  H    0.152373
    18  H    0.155335
    19  H    0.159711
    20  H    0.160807
    21  C   -0.302941
    22  C   -0.298906
    23  C   -0.483747
    24  H    0.150219
    25  H    0.152570
    26  H    0.152381
    27  H    0.151348
    28  H    0.162263
    29  H    0.155643
    30  H    0.160741
    31  C   -0.298189
    32  C   -0.300033
    33  C   -0.475743
    34  H    0.149861
    35  H    0.149412
    36  H    0.152156
    37  H    0.152204
    38  H    0.155275
    39  H    0.155232
    40  H    0.160457
 Sum of Mulliken charges =  -0.00000

 Dipole moment (field-independent basis, Debye):
    X=              0.0049    Y=             -0.0065    Z=             -0.0053  Tot=              0.0098
 Quadrupole moment (field-independent basis, Debye-Ang):
   XX=            -83.8061   YY=            -85.8825   ZZ=            -84.8430
   XY=              1.4256   XZ=             -0.2141   YZ=             -0.7805

 Normal termination of Gaussian 16 at Thu May  6 10:01:21 2021.
