 Gaussian 16, Revision A.03,
 Gaussian 16:  EM64L-G16RevA.03 25-Dec-2016

 -------------
 #p 6-31g* mp2
 -------------

 ------------------------------------------------------
 Input file generated by CHIRIPA (05-May-2021 14:53:16)
 ------------------------------------------------------
 Symbolic Z-matrix:
 Charge =  0 Multiplicity = 1

                         Standard orientation:
 ---------------------------------------------------------------------
 Center     Atomic      Atomic             Coordinates (Angstroms)
 Number     Number       Type             X           Y           Z
 ---------------------------------------------------------------------
      1          6           0       -4.059334    0.103004    0.537797
      2          6           0       -4.783250   -1.038220   -0.177422
      3          6           0       -5.573829   -1.929418    0.780985
      4          1           0       -3.381438   -0.317592    1.293111
      5          1           0       -4.795376    0.710707    1.082162
      6          1           0       -4.046223   -1.642779   -0.721403
      7          1           0       -5.459360   -0.614865   -0.931253
      8          1           0       -6.330355   -1.345184    1.314783
      9          1           0       -4.909189   -2.378938    1.525825
     10          1           0       -6.083398   -2.738630    0.248655
     11          6           0       -3.264597    1.002692   -0.407022
     12          6           0       -2.540681    2.143916    0.308196
     13          6           0       -1.750102    3.035115   -0.650211
     14          1           0       -2.528555    0.394989   -0.951388
     15          1           0       -3.942494    1.423289   -1.162337
     16          1           0       -1.864571    1.720561    1.062028
     17          1           0       -3.277708    2.748476    0.852178
     18          1           0       -2.414743    3.484634   -1.395050
     19          1           0       -0.993577    2.450880   -1.184008
     20          1           0       -1.240533    3.844327   -0.117881
     21          6           0        0.993112   -1.999012   -0.700276
     22          6           0        0.769135   -0.618697   -0.667297
     23          6           0        1.796700    0.258978   -0.309048
     24          6           0        3.041482   -0.280411    0.011678
     25          6           0        3.295763   -1.650841   -0.011866
     26          6           0        2.253489   -2.509778   -0.373032
     27          1           0        0.189162   -2.673533   -0.979705
     28          1           0       -0.208677   -0.219210   -0.920947
     29          1           0        1.650769    1.331817   -0.275299
     30          1           0        4.281178   -2.019345    0.246165
     31          1           0        2.430312   -3.581302   -0.397782
     32          7           0        4.137106    0.638826    0.392484
     33          8           0        5.224741    0.138527    0.670670
     34          8           0        3.887473    1.842217    0.405564
 ---------------------------------------------------------------------

 SCF Done:  E(RHF) =  -669.535367089     A.U. after   15 cycles
 E2 =    -0.2091952661D+01 EUMP2 =    -0.67162731975024D+03

 The electronic state is 1-A.
 Alpha  occ. eigenvalues --  -20.60745 -20.60740 -15.85798 -11.31167 -11.27743
 Alpha  occ. eigenvalues --  -11.27727 -11.27488 -11.26760 -11.26727 -11.22422
 Alpha  occ. eigenvalues --  -11.22371 -11.22354 -11.22161 -11.21896 -11.21706
 Alpha  occ. eigenvalues --   -1.59821  -1.39374  -1.19342  -1.09280  -1.08738
 Alpha  occ. eigenvalues --   -1.04750  -1.04316  -0.96766  -0.95571  -0.87776
 Alpha  occ. eigenvalues --   -0.86148  -0.82407  -0.80370  -0.79095  -0.77451
 Alpha  occ. eigenvalues --   -0.72017  -0.71144  -0.70455  -0.66016  -0.64996
 Alpha  occ. eigenvalues --   -0.64711  -0.62219  -0.61582  -0.60118  -0.58364
 Alpha  occ. eigenvalues --   -0.56081  -0.55251  -0.53421  -0.53190  -0.53075
 Alpha  occ. eigenvalues --   -0.52842  -0.50715  -0.48788  -0.48771  -0.48669
 Alpha  occ. eigenvalues --   -0.47419  -0.46615  -0.46551  -0.44778  -0.44579
 Alpha  occ. eigenvalues --   -0.37327  -0.36349
 Alpha virt. eigenvalues --    0.05079   0.11291   0.16541   0.18231   0.22778
 Alpha virt. eigenvalues --    0.23403   0.25108   0.25990   0.26568   0.28626
 Alpha virt. eigenvalues --    0.29532   0.30090   0.31053   0.31301   0.31571

 Mulliken charges:
               1
     1  C   -0.299232
     2  C   -0.298892
     3  C   -0.476221
     4  H    0.150469
     5  H    0.153706
     6  H    0.146158
     7  H    0.154326
     8  H    0.157738
     9  H    0.155390
    10  H    0.161600
    11  C   -0.301668
    12  C   -0.303311
    13  C   -0.477969
    14  H    0.139654
    15  H    0.154530
    16  H    0.153275
    17  H    0.157645
    18  H    0.159748
    19  H    0.146314
    20  H    0.167937
    21  C   -0.173309
    22  C   -0.227846
    23  C   -0.175597
    24  C    0.159338
    25  C   -0.170996
    26  C   -0.218570
    27  H    0.225582
    28  H    0.236230
    29  H    0.277887
    30  H    0.275553
    31  H    0.223365
    32  N    0.488055
    33  O   -0.460654
    34  O   -0.460232
 Sum of Mulliken charges =  -0.00000

 Dipole moment (field-independent basis, Debye):
    X=             -4.0747    Y=             -3.1227    Z=             -1.2591  Tot=              5.2858
 Quadrupole moment (field-independent basis, Debye-Ang):
   XX=           -115.5518   YY=            -89.7455   ZZ=            -95.9139
   XY=            -12.8751   XZ=             -3.4602   YZ=              0.1755

 Normal termination of Gaussian 16 at Thu May  6 13:53:06 2021.
