 Gaussian 16, Revision A.03,
 Gaussian 16:  EM64L-G16RevA.03 25-Dec-2016

 -------------
 #p 6-31g* mp2
 -------------

 ------------------------------------------------------
 Input file generated by CHIRIPA (05-May-2021 14:55:23)
 ------------------------------------------------------
 Symbolic Z-matrix:
 Charge =  0 Multiplicity = 1

                         Standard orientation:
 ---------------------------------------------------------------------
 Center     Atomic      Atomic             Coordinates (Angstroms)
 Number     Number       Type             X           Y           Z
 ---------------------------------------------------------------------
      1          6           0        3.694096   -2.043674   -1.051824
      2          6           0        4.186610   -0.864839   -1.621297
      3          6           0        3.801928    0.381469   -1.118025
      4          6           0        2.919208    0.412154   -0.039528
      5          6           0        2.411191   -0.744692    0.549466
      6          6           0        2.809518   -1.979951    0.029833
      7          1           0        3.998227   -3.007545   -1.449133
      8          1           0        4.873713   -0.911294   -2.461401
      9          1           0        4.167937    1.309664   -1.539819
     10          1           0        1.727609   -0.666414    1.386130
     11          1           0        2.425425   -2.893817    0.474092
     12          7           0        2.504740    1.725717    0.501924
     13          8           0        1.725917    1.725759    1.452751
     14          8           0        2.966550    2.730372   -0.034766
     15          6           0       -3.081043   -0.196586    0.333676
     16          6           0       -2.647529   -1.127954    1.466197
     17          6           0       -1.158525   -1.008684    1.792442
     18          1           0       -2.488468   -0.420616   -0.563882
     19          1           0       -2.847540    0.840553    0.611551
     20          1           0       -2.883043   -2.162902    1.186856
     21          1           0       -3.241338   -0.901810    2.361109
     22          1           0       -0.911422    0.013655    2.096355
     23          1           0       -0.551092   -1.254603    0.915430
     24          1           0       -0.870235   -1.683150    2.604751
     25          6           0       -4.567002   -0.304313   -0.004035
     26          6           0       -5.000516    0.627056   -1.136557
     27          6           0       -6.489519    0.507786   -1.462801
     28          1           0       -4.800504   -1.341451   -0.281909
     29          1           0       -5.159577   -0.080283    0.893523
     30          1           0       -4.406707    0.400910   -2.031467
     31          1           0       -4.765002    1.662003   -0.857214
     32          1           0       -7.096953    0.753704   -0.585788
     33          1           0       -6.736622   -0.514554   -1.766714
     34          1           0       -6.777810    1.182251   -2.275110
 ---------------------------------------------------------------------

 SCF Done:  E(RHF) =  -669.535397566     A.U. after   15 cycles
 E2 =    -0.2091903815D+01 EUMP2 =    -0.67162730138086D+03

 The electronic state is 1-A.
 Alpha  occ. eigenvalues --  -20.60768 -20.60762 -15.85814 -11.31136 -11.27734
 Alpha  occ. eigenvalues --  -11.27641 -11.27476 -11.26739 -11.26717 -11.21584
 Alpha  occ. eigenvalues --  -11.21448 -11.21267 -11.21201 -11.21102 -11.20947
 Alpha  occ. eigenvalues --   -1.59836  -1.39391  -1.19324  -1.08727  -1.08319
 Alpha  occ. eigenvalues --   -1.04725  -1.03458  -0.95936  -0.95555  -0.86972
 Alpha  occ. eigenvalues --   -0.86110  -0.82398  -0.79551  -0.78126  -0.77424
 Alpha  occ. eigenvalues --   -0.72035  -0.71155  -0.70438  -0.64996  -0.64932
 Alpha  occ. eigenvalues --   -0.64727  -0.62097  -0.60841  -0.59291  -0.57518
 Alpha  occ. eigenvalues --   -0.55300  -0.55144  -0.53089  -0.52939  -0.52594
 Alpha  occ. eigenvalues --   -0.52207  -0.49852  -0.48791  -0.48780  -0.47818
 Alpha  occ. eigenvalues --   -0.46535  -0.45669  -0.45571  -0.44789  -0.43714
 Alpha  occ. eigenvalues --   -0.37313  -0.36304
 Alpha virt. eigenvalues --    0.05048   0.11302   0.16508   0.21255   0.22993
 Alpha virt. eigenvalues --    0.24395   0.26296   0.26760   0.27689   0.27917
 Alpha virt. eigenvalues --    0.29258   0.30271   0.31596   0.31762   0.31930

 Mulliken charges:
               1
     1  C   -0.170295
     2  C   -0.219006
     3  C   -0.170475
     4  C    0.155511
     5  C   -0.174796
     6  C   -0.222859
     7  H    0.225393
     8  H    0.223212
     9  H    0.275382
    10  H    0.290174
    11  H    0.224004
    12  N    0.488371
    13  O   -0.461602
    14  O   -0.460378
    15  C   -0.299245
    16  C   -0.299334
    17  C   -0.489898
    18  H    0.148219
    19  H    0.156244
    20  H    0.148819
    21  H    0.153816
    22  H    0.176442
    23  H    0.148197
    24  H    0.154812
    25  C   -0.298398
    26  C   -0.299798
    27  C   -0.475676
    28  H    0.147639
    29  H    0.150100
    30  H    0.151263
    31  H    0.154379
    32  H    0.155401
    33  H    0.154032
    34  H    0.160352
 Sum of Mulliken charges =  -0.00000

 Dipole moment (field-independent basis, Debye):
    X=              1.4373    Y=             -4.4957    Z=             -1.8684  Tot=              5.0762
 Quadrupole moment (field-independent basis, Debye-Ang):
   XX=            -86.2891   YY=            -97.6967   ZZ=            -92.3583
   XY=            -11.9829   XZ=             -8.6153   YZ=             -1.6825

 Normal termination of Gaussian 16 at Thu May  6 15:57:40 2021.
