 Gaussian 16, Revision A.03,
 Gaussian 16:  EM64L-G16RevA.03 25-Dec-2016

 -------------
 #p 6-31g* mp2
 -------------

 ------------------------------------------------------
 Input file generated by CHIRIPA (05-May-2021 14:57:24)
 ------------------------------------------------------
 Symbolic Z-matrix:
 Charge =  0 Multiplicity = 1

                         Standard orientation:
 ---------------------------------------------------------------------
 Center     Atomic      Atomic             Coordinates (Angstroms)
 Number     Number       Type             X           Y           Z
 ---------------------------------------------------------------------
      1          6           0        3.595787    2.642112   -0.101541
      2          6           0        4.823631    2.016550   -0.341524
      3          6           0        4.923332    0.622074   -0.334786
      4          6           0        3.769904   -0.119344   -0.083408
      5          6           0        2.532280    0.474556    0.159203
      6          6           0        2.456040    1.870479    0.147618
      7          1           0        3.527450    3.725937   -0.108657
      8          1           0        5.710427    2.613278   -0.535314
      9          1           0        5.861277    0.111876   -0.517477
     10          1           0        1.665694   -0.146974    0.349325
     11          1           0        1.501159    2.353584    0.334316
     12          7           0        3.863035   -1.596380   -0.073709
     13          8           0        2.832159   -2.227044    0.150336
     14          8           0        4.965142   -2.095448   -0.290335
     15          6           0       -6.014682    0.788931   -0.566259
     16          6           0       -5.703886   -0.552308   -0.813255
     17          6           0       -4.454718   -1.068978   -0.456636
     18          6           0       -3.536055   -0.212356    0.147968
     19          6           0       -3.815946    1.128445    0.407203
     20          6           0       -5.071382    1.623555    0.042109
     21          1           0       -6.987500    1.181919   -0.846581
     22          1           0       -6.434507   -1.202805   -1.285579
     23          1           0       -4.187850   -2.103357   -0.636251
     24          1           0       -3.066997    1.752465    0.879529
     25          1           0       -5.309998    2.665594    0.235144
     26          7           0       -2.210298   -0.747920    0.529991
     27          8           0       -1.418371    0.027390    1.061390
     28          8           0       -1.988199   -1.932863    0.290786
 ---------------------------------------------------------------------

 SCF Done:  E(RHF) =  -868.338999030     A.U. after   16 cycles
 E2 =    -0.2599009015D+01 EUMP2 =    -0.87093800804434D+03

 The electronic state is 1-A.
 Alpha  occ. eigenvalues --  -20.61283 -20.61210 -20.59719 -20.59664 -15.86270
 Alpha  occ. eigenvalues --  -15.84743 -11.31538 -11.30116 -11.28130 -11.28055
 Alpha  occ. eigenvalues --  -11.27810 -11.27101 -11.27054 -11.26806 -11.26570
 Alpha  occ. eigenvalues --  -11.26513 -11.25847 -11.25686  -1.60295  -1.58777
 Alpha  occ. eigenvalues --   -1.39855  -1.38323  -1.19697  -1.18328  -1.09108
 Alpha  occ. eigenvalues --   -1.07748  -1.05086  -1.03712  -0.95960  -0.94558
 Alpha  occ. eigenvalues --   -0.86488  -0.85127  -0.82799  -0.81371  -0.77860
 Alpha  occ. eigenvalues --   -0.76390  -0.72488  -0.71605  -0.70959  -0.70804
 Alpha  occ. eigenvalues --   -0.70107  -0.69447  -0.65353  -0.65086  -0.63978
 Alpha  occ. eigenvalues --   -0.63727  -0.62436  -0.61017  -0.55586  -0.54288
 Alpha  occ. eigenvalues --   -0.53418  -0.53177  -0.52087  -0.51798  -0.49258
 Alpha  occ. eigenvalues --   -0.49206  -0.47746  -0.47698  -0.45281  -0.43726
 Alpha  occ. eigenvalues --   -0.37667  -0.36684  -0.36377  -0.35328
 Alpha virt. eigenvalues --    0.04656   0.06109   0.10973   0.12309   0.16159
 Alpha virt. eigenvalues --    0.17563   0.21091   0.22427   0.27010   0.27777
 Alpha virt. eigenvalues --    0.28486   0.29381   0.30741   0.31858   0.32333

 Mulliken charges:
               1
     1  C   -0.171652
     2  C   -0.219841
     3  C   -0.171814
     4  C    0.156927
     5  C   -0.177122
     6  C   -0.221929
     7  H    0.220483
     8  H    0.218991
     9  H    0.272430
    10  H    0.297483
    11  H    0.224679
    12  N    0.486878
    13  O   -0.452795
    14  O   -0.466578
    15  C   -0.170335
    16  C   -0.218448
    17  C   -0.170152
    18  C    0.158460
    19  C   -0.171066
    20  C   -0.218360
    21  H    0.226760
    22  H    0.225319
    23  H    0.278332
    24  H    0.271764
    25  H    0.223359
    26  N    0.489171
    27  O   -0.471885
    28  O   -0.449058
 Sum of Mulliken charges =  -0.00000

 Dipole moment (field-independent basis, Debye):
    X=             -5.5350    Y=              6.8187    Z=             -1.3703  Tot=              8.8887
 Quadrupole moment (field-independent basis, Debye-Ang):
   XX=            -70.7047   YY=           -103.7186   ZZ=           -106.0734
   XY=             15.6019   XZ=              3.8765   YZ=              1.9106

 Normal termination of Gaussian 16 at Wed May  5 22:43:21 2021.
