 Gaussian 16, Revision A.03,
 Gaussian 16:  EM64L-G16RevA.03 25-Dec-2016

 -------------
 #p 6-31g* mp2
 -------------

 ------------------------------------------------------
 Input file generated by CHIRIPA (05-May-2021 14:57:25)
 ------------------------------------------------------
 Symbolic Z-matrix:
 Charge =  0 Multiplicity = 1

                         Standard orientation:
 ---------------------------------------------------------------------
 Center     Atomic      Atomic             Coordinates (Angstroms)
 Number     Number       Type             X           Y           Z
 ---------------------------------------------------------------------
      1          6           0       -2.914023   -2.370449   -0.090581
      2          6           0       -2.513366   -1.579845    0.991519
      3          6           0       -2.807345   -0.213344    1.019756
      4          6           0       -3.506682    0.332111   -0.055743
      5          6           0       -3.919434   -0.429275   -1.148088
      6          6           0       -3.614544   -1.793658   -1.155054
      7          1           0       -2.681415   -3.431158   -0.104254
      8          1           0       -1.969204   -2.025087    1.819584
      9          1           0       -2.509142    0.421933    1.844932
     10          1           0       -4.460527    0.043039   -1.958987
     11          1           0       -3.926954   -2.405217   -1.996743
     12          7           0       -3.823680    1.777643   -0.037109
     13          8           0       -4.440941    2.234149   -0.996916
     14          8           0       -3.448881    2.426774    0.936950
     15          6           0        1.438119   -1.257758    1.031311
     16          6           0        2.181172   -0.370834    1.817286
     17          6           0        3.300203    0.279649    1.288902
     18          6           0        3.649367    0.018651   -0.035203
     19          6           0        2.929267   -0.859562   -0.843589
     20          6           0        1.813875   -1.498867   -0.294281
     21          1           0        0.570242   -1.758727    1.449899
     22          1           0        1.891686   -0.181664    2.847072
     23          1           0        3.893294    0.971087    1.875055
     24          1           0        3.242412   -1.027889   -1.866832
     25          1           0        1.238681   -2.187160   -0.907020
     26          7           0        4.832108    0.701371   -0.605655
     27          8           0        5.118977    0.454338   -1.774979
     28          8           0        5.449878    1.470592    0.127350
 ---------------------------------------------------------------------

 SCF Done:  E(RHF) =  -868.336409036     A.U. after   16 cycles
 E2 =    -0.2600423037D+01 EUMP2 =    -0.87093683207255D+03

 The electronic state is 1-A.
 Alpha  occ. eigenvalues --  -20.61362 -20.61354 -20.60925 -20.60919 -15.86425
 Alpha  occ. eigenvalues --  -15.85982 -11.31986 -11.31440 -11.28652 -11.28561
 Alpha  occ. eigenvalues --  -11.28430 -11.28026 -11.28012 -11.27866 -11.27775
 Alpha  occ. eigenvalues --  -11.27602 -11.27102 -11.27085  -1.60432  -1.59997
 Alpha  occ. eigenvalues --   -1.39980  -1.39548  -1.20204  -1.19633  -1.09569
 Alpha  occ. eigenvalues --   -1.09030  -1.05648  -1.05049  -0.96359  -0.95848
 Alpha  occ. eigenvalues --   -0.87043  -0.86455  -0.83202  -0.82671  -0.78204
 Alpha  occ. eigenvalues --   -0.77685  -0.72640  -0.72200  -0.71756  -0.71319
 Alpha  occ. eigenvalues --   -0.71315  -0.70824  -0.65863  -0.65683  -0.65297
 Alpha  occ. eigenvalues --   -0.65069  -0.62993  -0.62396  -0.56172  -0.55657
 Alpha  occ. eigenvalues --   -0.53940  -0.53722  -0.53356  -0.53157  -0.49414
 Alpha  occ. eigenvalues --   -0.49380  -0.48967  -0.48947  -0.45342  -0.44933
 Alpha  occ. eigenvalues --   -0.38219  -0.37721  -0.37145  -0.36640
 Alpha virt. eigenvalues --    0.04323   0.04874   0.10266   0.11012   0.15649
 Alpha virt. eigenvalues --    0.16377   0.18936   0.21879   0.25024   0.26765
 Alpha virt. eigenvalues --    0.27634   0.28766   0.29729   0.31360   0.32302

 Mulliken charges:
               1
     1  C   -0.173703
     2  C   -0.223246
     3  C   -0.167636
     4  C    0.159463
     5  C   -0.168748
     6  C   -0.218597
     7  H    0.225604
     8  H    0.216588
     9  H    0.276173
    10  H    0.278992
    11  H    0.226284
    12  N    0.488190
    13  O   -0.457468
    14  O   -0.458876
    15  C   -0.168315
    16  C   -0.219142
    17  C   -0.169350
    18  C    0.159172
    19  C   -0.170196
    20  C   -0.217959
    21  H    0.216527
    22  H    0.222673
    23  H    0.277371
    24  H    0.276216
    25  H    0.220733
    26  N    0.488067
    27  O   -0.459842
    28  O   -0.458973
 Sum of Mulliken charges =  -0.00000

 Dipole moment (field-independent basis, Debye):
    X=             -3.1649    Y=             -7.3074    Z=              1.7928  Tot=              8.1627
 Quadrupole moment (field-independent basis, Debye-Ang):
   XX=           -142.1537   YY=           -108.5853   ZZ=            -97.5278
   XY=             10.0448   XZ=             11.1211   YZ=              3.4796

 Normal termination of Gaussian 16 at Fri May  7 05:01:01 2021.
