 Gaussian 16, Revision A.03,
 Gaussian 16:  EM64L-G16RevA.03 25-Dec-2016

 -------------
 #p 6-31g* mp2
 -------------

 ------------------------------------------------------
 Input file generated by CHIRIPA (05-May-2021 14:57:23)
 ------------------------------------------------------
 Symbolic Z-matrix:
 Charge =  0 Multiplicity = 1

                         Standard orientation:
 ---------------------------------------------------------------------
 Center     Atomic      Atomic             Coordinates (Angstroms)
 Number     Number       Type             X           Y           Z
 ---------------------------------------------------------------------
      1          6           0       -1.459888   -1.239394    1.340324
      2          6           0       -2.408157   -0.470370    2.022901
      3          6           0       -3.478529    0.110572    1.336347
      4          6           0       -3.570303   -0.098984   -0.038773
      5          6           0       -2.641572   -0.859993   -0.747022
      6          6           0       -1.579412   -1.431412   -0.040025
      7          1           0       -0.631587   -1.686985    1.881596
      8          1           0       -2.317859   -0.319559    3.094884
      9          1           0       -4.226811    0.710503    1.839909
     10          1           0       -2.758202   -0.992550   -1.815780
     11          1           0       -0.844459   -2.028166   -0.572730
     12          7           0       -4.699111    0.510992   -0.776418
     13          8           0       -4.757493    0.311362   -1.987771
     14          8           0       -5.504115    1.177173   -0.129263
     15          6           0        3.615533   -2.297227   -0.363359
     16          6           0        4.699624   -1.458187   -0.641347
     17          6           0        4.582859   -0.073330   -0.489420
     18          6           0        3.361903    0.440892   -0.055677
     19          6           0        2.263590   -0.368921    0.229285
     20          6           0        2.403112   -1.750879    0.070306
     21          1           0        3.715077   -3.371891   -0.484118
     22          1           0        5.642406   -1.879703   -0.978291
     23          1           0        5.406064    0.599294   -0.697575
     24          1           0        1.336441    0.080619    0.563538
     25          1           0        1.559509   -2.400071    0.286935
     26          7           0        3.226243    1.905444    0.108895
     27          8           0        2.139889    2.333692    0.492399
     28          8           0        4.208836    2.597380   -0.148735
 ---------------------------------------------------------------------

 SCF Done:  E(RHF) =  -868.336340020     A.U. after   16 cycles
 E2 =    -0.2601370502D+01 EUMP2 =    -0.87093771052199D+03

 The electronic state is 1-A.
 Alpha  occ. eigenvalues --  -20.61243 -20.61237 -20.60985 -20.60976 -15.86305
 Alpha  occ. eigenvalues --  -15.86042 -11.31821 -11.31587 -11.28457 -11.28414
 Alpha  occ. eigenvalues --  -11.28249 -11.28195 -11.28122 -11.28072 -11.27626
 Alpha  occ. eigenvalues --  -11.27424 -11.27368 -11.27216  -1.60316  -1.60052
 Alpha  occ. eigenvalues --   -1.39865  -1.39601  -1.20044  -1.19790  -1.09407
 Alpha  occ. eigenvalues --   -1.09194  -1.05500  -1.05205  -0.96208  -0.95983
 Alpha  occ. eigenvalues --   -0.86885  -0.86632  -0.83058  -0.82799  -0.78096
 Alpha  occ. eigenvalues --   -0.77771  -0.72520  -0.72263  -0.71645  -0.71371
 Alpha  occ. eigenvalues --   -0.71189  -0.70922  -0.65744  -0.65644  -0.65448
 Alpha  occ. eigenvalues --   -0.65157  -0.62886  -0.62458  -0.55986  -0.55799
 Alpha  occ. eigenvalues --   -0.53798  -0.53727  -0.53445  -0.53251  -0.49293
 Alpha  occ. eigenvalues --   -0.49262  -0.49035  -0.49001  -0.45237  -0.44966
 Alpha  occ. eigenvalues --   -0.38025  -0.37830  -0.37125  -0.36751
 Alpha virt. eigenvalues --    0.04466   0.04718   0.10503   0.10792   0.15807
 Alpha virt. eigenvalues --    0.16117   0.18356   0.22107   0.25027   0.26969
 Alpha virt. eigenvalues --    0.27760   0.28967   0.30276   0.30976   0.31760

 Mulliken charges:
               1
     1  C   -0.178725
     2  C   -0.215396
     3  C   -0.168587
     4  C    0.160582
     5  C   -0.168230
     6  C   -0.221396
     7  H    0.221134
     8  H    0.227140
     9  H    0.278767
    10  H    0.277742
    11  H    0.218771
    12  N    0.488050
    13  O   -0.459014
    14  O   -0.457863
    15  C   -0.169790
    16  C   -0.218860
    17  C   -0.168543
    18  C    0.158961
    19  C   -0.174110
    20  C   -0.225553
    21  H    0.227029
    22  H    0.226116
    23  H    0.278261
    24  H    0.279356
    25  H    0.213309
    26  N    0.487901
    27  O   -0.458660
    28  O   -0.458393
 Sum of Mulliken charges =  -0.00000

 Dipole moment (field-independent basis, Debye):
    X=              4.3596    Y=             -7.0708    Z=              1.9870  Tot=              8.5412
 Quadrupole moment (field-independent basis, Debye-Ang):
   XX=           -123.5982   YY=           -109.6142   ZZ=           -101.6383
   XY=            -10.2018   XZ=            -15.0907   YZ=              1.7748

 Normal termination of Gaussian 16 at Thu May  6 03:26:12 2021.
