 Gaussian 16, Revision A.03,
 Gaussian 16:  EM64L-G16RevA.03 25-Dec-2016

 -------------
 #p 6-31g* mp2
 -------------

 ------------------------------------------------------
 Input file generated by CHIRIPA (05-May-2021 14:55:20)
 ------------------------------------------------------
 Symbolic Z-matrix:
 Charge =  0 Multiplicity = 1

                         Standard orientation:
 ---------------------------------------------------------------------
 Center     Atomic      Atomic             Coordinates (Angstroms)
 Number     Number       Type             X           Y           Z
 ---------------------------------------------------------------------
      1          6           0       -0.261611   -2.827355   -0.107210
      2          6           0       -1.022166   -2.435931   -1.213946
      3          6           0       -1.874274   -1.330406   -1.134730
      4          6           0       -1.941569   -0.636042    0.072175
      5          6           0       -1.196511   -1.001301    1.192338
      6          6           0       -0.351053   -2.110055    1.090288
      7          1           0        0.397744   -3.687407   -0.177616
      8          1           0       -0.954722   -2.991117   -2.145216
      9          1           0       -2.474277   -1.005561   -1.976092
     10          1           0       -1.285005   -0.428081    2.107217
     11          1           0        0.238429   -2.411754    1.951412
     12          7           0       -2.840137    0.536037    0.168124
     13          8           0       -2.881473    1.131070    1.242770
     14          8           0       -3.486085    0.837486   -0.833134
     15          6           0        1.695255    1.462793    0.176536
     16          6           0        1.479531    2.768488   -0.589369
     17          6           0        0.274705    3.560329   -0.080278
     18          1           0        0.789699    0.845642    0.098848
     19          1           0        1.828502    1.689387    1.243445
     20          1           0        1.348110    2.539610   -1.654714
     21          1           0        2.385777    3.382521   -0.510009
     22          1           0        0.401278    3.817449    0.976353
     23          1           0       -0.642285    2.969749   -0.174855
     24          1           0        0.138949    4.489946   -0.641745
     25          6           0        2.896039    0.659998   -0.320822
     26          6           0        3.111763   -0.645698    0.445082
     27          6           0        4.316590   -1.437539   -0.064008
     28          1           0        2.762792    0.433403   -1.387732
     29          1           0        3.801596    1.277149   -0.243134
     30          1           0        2.205517   -1.259730    0.365722
     31          1           0        3.243184   -0.416820    1.510427
     32          1           0        5.233580   -0.846958    0.030569
     33          1           0        4.190017   -1.694658   -1.120640
     34          1           0        4.452347   -2.367155    0.497459
 ---------------------------------------------------------------------

 SCF Done:  E(RHF) =  -669.533914587     A.U. after   15 cycles
 E2 =    -0.2096020896D+01 EUMP2 =    -0.67162993548339D+03

 The electronic state is 1-A.
 Alpha  occ. eigenvalues --  -20.60928 -20.60908 -15.85964 -11.31341 -11.27916
 Alpha  occ. eigenvalues --  -11.27871 -11.27642 -11.26929 -11.26885 -11.21812
 Alpha  occ. eigenvalues --  -11.21490 -11.21478 -11.21339 -11.21235 -11.20516
 Alpha  occ. eigenvalues --   -1.59995  -1.39544  -1.19538  -1.08928  -1.08442
 Alpha  occ. eigenvalues --   -1.04926  -1.03516  -0.95951  -0.95746  -0.86965
 Alpha  occ. eigenvalues --   -0.86318  -0.82569  -0.79614  -0.78257  -0.77608
 Alpha  occ. eigenvalues --   -0.72177  -0.71330  -0.70617  -0.65204  -0.65096
 Alpha  occ. eigenvalues --   -0.64895  -0.62258  -0.60927  -0.59384  -0.57558
 Alpha  occ. eigenvalues --   -0.55414  -0.55252  -0.53392  -0.53003  -0.52617
 Alpha  occ. eigenvalues --   -0.52356  -0.49910  -0.48945  -0.48935  -0.47915
 Alpha  occ. eigenvalues --   -0.46673  -0.45764  -0.45649  -0.44889  -0.43755
 Alpha  occ. eigenvalues --   -0.37429  -0.36418
 Alpha virt. eigenvalues --    0.04878   0.11031   0.16313   0.21039   0.22943
 Alpha virt. eigenvalues --    0.24144   0.26505   0.26677   0.27900   0.28078
 Alpha virt. eigenvalues --    0.28318   0.30650   0.31364   0.31574   0.32104

 Mulliken charges:
               1
     1  C   -0.171444
     2  C   -0.217877
     3  C   -0.172181
     4  C    0.159460
     5  C   -0.172995
     6  C   -0.215635
     7  H    0.227470
     8  H    0.224361
     9  H    0.276299
    10  H    0.276866
    11  H    0.226471
    12  N    0.487641
    13  O   -0.458550
    14  O   -0.459843
    15  C   -0.304422
    16  C   -0.300365
    17  C   -0.476081
    18  H    0.154981
    19  H    0.147138
    20  H    0.150472
    21  H    0.150237
    22  H    0.155489
    23  H    0.161884
    24  H    0.160648
    25  C   -0.295680
    26  C   -0.308736
    27  C   -0.475012
    28  H    0.148232
    29  H    0.149783
    30  H    0.156448
    31  H    0.148453
    32  H    0.157750
    33  H    0.153749
    34  H    0.154988
 Sum of Mulliken charges =  -0.00000

 Dipole moment (field-independent basis, Debye):
    X=              2.9395    Y=             -4.1314    Z=             -0.3213  Tot=              5.0806
 Quadrupole moment (field-independent basis, Debye-Ang):
   XX=           -108.3047   YY=            -90.1138   ZZ=            -89.9411
   XY=              7.1409   XZ=              2.9512   YZ=              0.8571

 Normal termination of Gaussian 16 at Wed May  5 17:24:09 2021.
