 Gaussian 16, Revision A.03,
 Gaussian 16:  EM64L-G16RevA.03 25-Dec-2016

 -------------
 #p 6-31g* mp2
 -------------

 ------------------------------------------------------
 Input file generated by CHIRIPA (05-May-2021 14:53:17)
 ------------------------------------------------------
 Symbolic Z-matrix:
 Charge =  0 Multiplicity = 1

                         Standard orientation:
 ---------------------------------------------------------------------
 Center     Atomic      Atomic             Coordinates (Angstroms)
 Number     Number       Type             X           Y           Z
 ---------------------------------------------------------------------
      1          6           0       -2.761351    0.605642    0.712874
      2          6           0       -2.617703    2.126156    0.639470
      3          6           0       -1.971795    2.720053    1.891622
      4          1           0       -3.359720    0.342447    1.595839
      5          1           0       -1.769352    0.157412    0.862618
      6          1           0       -3.609508    2.571301    0.488524
      7          1           0       -2.019767    2.385772   -0.243529
      8          1           0       -0.970795    2.303402    2.043291
      9          1           0       -2.569569    2.489985    2.779504
     10          1           0       -1.878800    3.808063    1.817830
     11          6           0       -3.405419   -0.002800   -0.531595
     12          6           0       -3.549067   -1.523314   -0.458191
     13          6           0       -4.194975   -2.117211   -1.710343
     14          1           0       -4.397418    0.445430   -0.681339
     15          1           0       -2.807049    0.260395   -1.414560
     16          1           0       -4.147003   -1.782931    0.424808
     17          1           0       -2.557262   -1.968459   -0.307245
     18          1           0       -3.597201   -1.887143   -2.598225
     19          1           0       -5.195975   -1.700561   -1.862012
     20          1           0       -4.287970   -3.205221   -1.636551
     21          6           0        1.902185   -2.094157    1.558453
     22          6           0        3.228161   -1.792875    1.230524
     23          6           0        3.520667   -0.765137    0.329001
     24          6           0        2.457881   -0.055796   -0.228324
     25          6           0        1.126385   -0.332117    0.078358
     26          6           0        0.857371   -1.364104    0.982340
     27          1           0        1.684083   -2.894179    2.259732
     28          1           0        4.041594   -2.358177    1.676398
     29          1           0        4.538021   -0.510846    0.057444
     30          1           0        0.336771    0.248975   -0.382359
     31          1           0       -0.173361   -1.595877    1.235161
     32          7           0        2.755110    1.034474   -1.184026
     33          8           0        1.800847    1.644570   -1.661313
     34          8           0        3.936711    1.258287   -1.437722
 ---------------------------------------------------------------------

 SCF Done:  E(RHF) =  -669.535026835     A.U. after   15 cycles
 E2 =    -0.2093123130D+01 EUMP2 =    -0.67162814996464D+03

 The electronic state is 1-A.
 Alpha  occ. eigenvalues --  -20.60794 -20.60789 -15.85846 -11.31203 -11.27774
 Alpha  occ. eigenvalues --  -11.27756 -11.27505 -11.26787 -11.26749 -11.22262
 Alpha  occ. eigenvalues --  -11.22083 -11.21915 -11.21895 -11.21510 -11.21278
 Alpha  occ. eigenvalues --   -1.59868  -1.39422  -1.19376  -1.08995  -1.08768
 Alpha  occ. eigenvalues --   -1.04784  -1.03970  -0.96418  -0.95607  -0.87430
 Alpha  occ. eigenvalues --   -0.86175  -0.82457  -0.80045  -0.78849  -0.77480
 Alpha  occ. eigenvalues --   -0.72067  -0.71190  -0.70498  -0.65716  -0.65005
 Alpha  occ. eigenvalues --   -0.64787  -0.62127  -0.61337  -0.59784  -0.58024
 Alpha  occ. eigenvalues --   -0.55716  -0.55259  -0.53109  -0.53084  -0.52882
 Alpha  occ. eigenvalues --   -0.52808  -0.50365  -0.48823  -0.48821  -0.48350
 Alpha  occ. eigenvalues --   -0.47084  -0.46328  -0.46255  -0.44829  -0.44260
 Alpha  occ. eigenvalues --   -0.37351  -0.36371
 Alpha virt. eigenvalues --    0.05012   0.11250   0.16439   0.18922   0.22638
 Alpha virt. eigenvalues --    0.23597   0.24758   0.25954   0.27396   0.28269
 Alpha virt. eigenvalues --    0.30013   0.31108   0.31346   0.31553   0.32422

 Mulliken charges:
               1
     1  C   -0.306063
     2  C   -0.303512
     3  C   -0.476014
     4  H    0.151701
     5  H    0.140291
     6  H    0.154768
     7  H    0.160953
     8  H    0.154729
     9  H    0.153646
    10  H    0.165164
    11  C   -0.300707
    12  C   -0.301210
    13  C   -0.476046
    14  H    0.154223
    15  H    0.154066
    16  H    0.152515
    17  H    0.144332
    18  H    0.158561
    19  H    0.157737
    20  H    0.160715
    21  C   -0.170794
    22  C   -0.218629
    23  C   -0.170590
    24  C    0.158364
    25  C   -0.175578
    26  C   -0.224742
    27  H    0.226110
    28  H    0.223605
    29  H    0.275658
    30  H    0.279674
    31  H    0.230048
    32  N    0.488471
    33  O   -0.461334
    34  O   -0.460112
 Sum of Mulliken charges =  -0.00000

 Dipole moment (field-independent basis, Debye):
    X=             -1.1649    Y=             -3.7337    Z=              3.2986  Tot=              5.1165
 Quadrupole moment (field-independent basis, Debye-Ang):
   XX=            -93.7460   YY=            -94.8161   ZZ=            -97.4481
   XY=            -11.1174   XZ=              8.7231   YZ=              0.1025

 Normal termination of Gaussian 16 at Thu May  6 05:58:46 2021.
