 Gaussian 16, Revision A.03,
 Gaussian 16:  EM64L-G16RevA.03 25-Dec-2016

 -------------
 #p 6-31g* mp2
 -------------

 ------------------------------------------------------
 Input file generated by CHIRIPA (05-May-2021 14:55:24)
 ------------------------------------------------------
 Symbolic Z-matrix:
 Charge =  0 Multiplicity = 1

                         Standard orientation:
 ---------------------------------------------------------------------
 Center     Atomic      Atomic             Coordinates (Angstroms)
 Number     Number       Type             X           Y           Z
 ---------------------------------------------------------------------
      1          6           0       -1.541831    2.287701    0.075132
      2          6           0       -2.816265    2.282834    0.651601
      3          6           0       -3.664794    1.183663    0.489213
      4          6           0       -3.204542    0.101408   -0.259242
      5          6           0       -1.940276    0.076349   -0.846007
      6          6           0       -1.108668    1.186385   -0.670518
      7          1           0       -0.889246    3.145783    0.206367
      8          1           0       -3.155317    3.136742    1.231195
      9          1           0       -4.656256    1.153504    0.924541
     10          1           0       -1.630243   -0.789501   -1.418372
     11          1           0       -0.119434    1.187399   -1.119360
     12          7           0       -4.093885   -1.067986   -0.438090
     13          8           0       -3.664805   -2.009100   -1.102041
     14          8           0       -5.203193   -1.021300    0.089067
     15          6           0        3.204011   -0.202928    0.515322
     16          6           0        2.454466   -1.385260    1.130348
     17          6           0        1.035121   -1.022315    1.567984
     18          1           0        3.242207    0.618068    1.244329
     19          1           0        2.637612    0.172079   -0.348366
     20          1           0        3.022808   -1.758802    1.991784
     21          1           0        2.418217   -2.203606    0.399860
     22          1           0        0.447057   -0.669897    0.714414
     23          1           0        1.055084   -0.222565    2.315381
     24          1           0        0.517487   -1.882032    2.004791
     25          6           0        4.624386   -0.550067    0.072878
     26          6           0        5.373931    0.632266   -0.542149
     27          6           0        6.793276    0.269320   -0.979785
     28          1           0        5.190784   -0.925074    0.936566
     29          1           0        4.586190   -1.371062   -0.656131
     30          1           0        5.410180    1.450611    0.188339
     31          1           0        4.805590    1.005806   -1.403584
     32          1           0        6.773313   -0.530430   -1.727183
     33          1           0        7.381339   -0.083097   -0.126214
     34          1           0        7.310910    1.129038   -1.416592
 ---------------------------------------------------------------------

 SCF Done:  E(RHF) =  -669.534425127     A.U. after   15 cycles
 E2 =    -0.2092702630D+01 EUMP2 =    -0.67162712775712D+03

 The electronic state is 1-A.
 Alpha  occ. eigenvalues --  -20.60771 -20.60766 -15.85825 -11.31204 -11.27773
 Alpha  occ. eigenvalues --  -11.27763 -11.27504 -11.26792 -11.26782 -11.22086
 Alpha  occ. eigenvalues --  -11.22024 -11.21956 -11.21845 -11.21456 -11.21280
 Alpha  occ. eigenvalues --   -1.59846  -1.39399  -1.19384  -1.08918  -1.08769
 Alpha  occ. eigenvalues --   -1.04808  -1.03939  -0.96389  -0.95602  -0.87404
 Alpha  occ. eigenvalues --   -0.86185  -0.82449  -0.80008  -0.78755  -0.77485
 Alpha  occ. eigenvalues --   -0.72044  -0.71168  -0.70481  -0.65568  -0.65037
 Alpha  occ. eigenvalues --   -0.64794  -0.62170  -0.61330  -0.59754  -0.58017
 Alpha  occ. eigenvalues --   -0.55731  -0.55279  -0.53340  -0.53041  -0.52881
 Alpha  occ. eigenvalues --   -0.52619  -0.50319  -0.48804  -0.48797  -0.48310
 Alpha  occ. eigenvalues --   -0.47051  -0.46280  -0.46222  -0.44800  -0.44216
 Alpha  occ. eigenvalues --   -0.37348  -0.36289
 Alpha virt. eigenvalues --    0.05030   0.11223   0.16408   0.20025   0.22670
 Alpha virt. eigenvalues --    0.23928   0.25171   0.26683   0.27498   0.28330
 Alpha virt. eigenvalues --    0.28684   0.30283   0.31357   0.31598   0.31932

 Mulliken charges:
               1
     1  C   -0.171142
     2  C   -0.218337
     3  C   -0.171117
     4  C    0.159286
     5  C   -0.170345
     6  C   -0.219004
     7  H    0.226089
     8  H    0.223560
     9  H    0.275700
    10  H    0.275811
    11  H    0.226359
    12  N    0.488105
    13  O   -0.460401
    14  O   -0.460352
    15  C   -0.297255
    16  C   -0.300560
    17  C   -0.479991
    18  H    0.149123
    19  H    0.139709
    20  H    0.153945
    21  H    0.153196
    22  H    0.156389
    23  H    0.153028
    24  H    0.164545
    25  C   -0.298419
    26  C   -0.299575
    27  C   -0.475934
    28  H    0.151988
    29  H    0.151221
    30  H    0.151458
    31  H    0.149338
    32  H    0.156297
    33  H    0.156468
    34  H    0.160818
 Sum of Mulliken charges =  -0.00000

 Dipole moment (field-independent basis, Debye):
    X=              3.1467    Y=              4.1040    Z=              0.6728  Tot=              5.2151
 Quadrupole moment (field-independent basis, Debye-Ang):
   XX=           -113.3044   YY=            -93.2601   ZZ=            -93.4661
   XY=            -14.7928   XZ=             -4.3498   YZ=              0.6436

 Normal termination of Gaussian 16 at Thu May  6 16:01:15 2021.
