 Gaussian 16, Revision A.03,
 Gaussian 16:  EM64L-G16RevA.03 25-Dec-2016

 -------------
 #p 6-31g* mp2
 -------------

 ------------------------------------------------------
 Input file generated by CHIRIPA (05-May-2021 14:53:13)
 ------------------------------------------------------
 Symbolic Z-matrix:
 Charge =  0 Multiplicity = 1

                         Standard orientation:
 ---------------------------------------------------------------------
 Center     Atomic      Atomic             Coordinates (Angstroms)
 Number     Number       Type             X           Y           Z
 ---------------------------------------------------------------------
      1          6           0        4.633995    0.310789   -0.157010
      2          6           0        6.036296   -0.275699    0.009025
      3          6           0        7.134772    0.784018   -0.081223
      4          1           0        4.570813    0.824860   -1.125867
      5          1           0        4.470577    1.076230    0.614216
      6          1           0        6.196509   -1.040784   -0.761426
      7          1           0        6.096088   -0.788598    0.977516
      8          1           0        7.002848    1.542855    0.696827
      9          1           0        7.103839    1.289237   -1.051995
     10          1           0        8.129050    0.342954    0.040159
     11          6           0        3.525105   -0.736293   -0.069196
     12          6           0        2.122804   -0.149805   -0.235230
     13          6           0        1.024328   -1.209522   -0.144983
     14          1           0        3.688523   -1.501735   -0.840421
     15          1           0        3.588287   -1.250364    0.899661
     16          1           0        2.063012    0.363094   -1.203722
     17          1           0        1.962591    0.615279    0.535220
     18          1           0        1.055261   -1.714742    0.825789
     19          1           0        1.156252   -1.968360   -0.923033
     20          1           0        0.030049   -0.768459   -0.266365
     21          6           0       -2.893903    2.671996    0.119664
     22          6           0       -3.905199    2.095200   -0.655647
     23          6           0       -4.076898    0.707956   -0.680587
     24          6           0       -3.215498   -0.076037    0.085335
     25          6           0       -2.198589    0.468798    0.867857
     26          6           0       -2.045321    1.858389    0.877606
     27          1           0       -2.767682    3.750552    0.133138
     28          1           0       -4.565693    2.724596   -1.245269
     29          1           0       -4.851578    0.235088   -1.271928
     30          1           0       -1.555709   -0.184561    1.445130
     31          1           0       -1.259073    2.303577    1.480653
     32          7           0       -3.387512   -1.545893    0.066974
     33          8           0       -2.615506   -2.214685    0.750611
     34          8           0       -4.291085   -2.001340   -0.630708
 ---------------------------------------------------------------------

 SCF Done:  E(RHF) =  -669.534758734     A.U. after   15 cycles
 E2 =    -0.2092451535D+01 EUMP2 =    -0.67162721026903D+03

 The electronic state is 1-A.
 Alpha  occ. eigenvalues --  -20.60790 -20.60768 -15.85824 -11.31207 -11.27784
 Alpha  occ. eigenvalues --  -11.27746 -11.27529 -11.26797 -11.26787 -11.21697
 Alpha  occ. eigenvalues --  -11.21670 -11.21489 -11.21410 -11.21158 -11.20873
 Alpha  occ. eigenvalues --   -1.59849  -1.39402  -1.19393  -1.08778  -1.08499
 Alpha  occ. eigenvalues --   -1.04801  -1.03574  -0.96013  -0.95602  -0.87026
 Alpha  occ. eigenvalues --   -0.86181  -0.82438  -0.79639  -0.78316  -0.77482
 Alpha  occ. eigenvalues --   -0.72043  -0.71174  -0.70505  -0.65137  -0.65038
 Alpha  occ. eigenvalues --   -0.64801  -0.62190  -0.60967  -0.59379  -0.57638
 Alpha  occ. eigenvalues --   -0.55341  -0.55232  -0.53295  -0.52941  -0.52533
 Alpha  occ. eigenvalues --   -0.52306  -0.49928  -0.48805  -0.48798  -0.47944
 Alpha  occ. eigenvalues --   -0.46682  -0.45849  -0.45790  -0.44820  -0.43793
 Alpha  occ. eigenvalues --   -0.37362  -0.36355
 Alpha virt. eigenvalues --    0.05033   0.11169   0.16508   0.20989   0.22854
 Alpha virt. eigenvalues --    0.24200   0.26337   0.27125   0.27271   0.27949
 Alpha virt. eigenvalues --    0.28913   0.30743   0.31428   0.31823   0.32015

 Mulliken charges:
               1
     1  C   -0.297830
     2  C   -0.299750
     3  C   -0.475657
     4  H    0.149205
     5  H    0.147110
     6  H    0.152988
     7  H    0.152395
     8  H    0.154272
     9  H    0.154956
    10  H    0.160815
    11  C   -0.298252
    12  C   -0.299071
    13  C   -0.479764
    14  H    0.151820
    15  H    0.150392
    16  H    0.151533
    17  H    0.142418
    18  H    0.157771
    19  H    0.160322
    20  H    0.160754
    21  C   -0.170601
    22  C   -0.218456
    23  C   -0.170807
    24  C    0.159333
    25  C   -0.174715
    26  C   -0.219660
    27  H    0.225800
    28  H    0.223557
    29  H    0.275728
    30  H    0.280738
    31  H    0.224007
    32  N    0.488494
    33  O   -0.459521
    34  O   -0.460322
 Sum of Mulliken charges =  -0.00000

 Dipole moment (field-independent basis, Debye):
    X=              0.5583    Y=              5.0984    Z=              0.0451  Tot=              5.1291
 Quadrupole moment (field-independent basis, Debye-Ang):
   XX=            -96.8766   YY=            -96.3572   ZZ=            -92.2284
   XY=            -18.1230   XZ=              2.5878   YZ=              0.2667

 Normal termination of Gaussian 16 at Thu May  6 13:44:45 2021.
