 Gaussian 16, Revision A.03,
 Gaussian 16:  EM64L-G16RevA.03 25-Dec-2016

 -------------
 #p 6-31g* mp2
 -------------

 ------------------------------------------------------
 Input file generated by CHIRIPA (05-May-2021 14:57:26)
 ------------------------------------------------------
 Symbolic Z-matrix:
 Charge =  0 Multiplicity = 1

                         Standard orientation:
 ---------------------------------------------------------------------
 Center     Atomic      Atomic             Coordinates (Angstroms)
 Number     Number       Type             X           Y           Z
 ---------------------------------------------------------------------
      1          6           0        2.715224   -1.925299    1.297352
      2          6           0        4.054573   -1.939061    0.894268
      3          6           0        4.611665   -0.834041    0.243786
      4          6           0        3.796951    0.272996    0.011408
      5          6           0        2.459162    0.317035    0.400856
      6          6           0        1.923190   -0.799280    1.049796
      7          1           0        2.290665   -2.788092    1.802064
      8          1           0        4.672044   -2.812170    1.085204
      9          1           0        5.645576   -0.817937   -0.078993
     10          1           0        1.868575    1.201858    0.196617
     11          1           0        0.882723   -0.785787    1.361713
     12          7           0        4.375541    1.448810   -0.676412
     13          8           0        3.636722    2.411899   -0.869398
     14          8           0        5.556902    1.385060   -1.009515
     15          6           0       -5.100741    1.689133    1.007166
     16          6           0       -3.816769    1.402226    1.482161
     17          6           0       -3.032645    0.424433    0.862791
     18          6           0       -3.566328   -0.250165   -0.234200
     19          6           0       -4.841987    0.012997   -0.730921
     20          6           0       -5.608357    0.994827   -0.095915
     21          1           0       -5.702972    2.450274    1.494381
     22          1           0       -3.419964    1.939846    2.338639
     23          1           0       -2.035464    0.182297    1.209804
     24          1           0       -5.210319   -0.539649   -1.586685
     25          1           0       -6.605175    1.215545   -0.466972
     26          7           0       -2.745609   -1.287447   -0.898177
     27          8           0       -3.238768   -1.867652   -1.862953
     28          8           0       -1.624711   -1.500623   -0.441253
 ---------------------------------------------------------------------

 SCF Done:  E(RHF) =  -868.338545076     A.U. after   16 cycles
 E2 =    -0.2599017223D+01 EUMP2 =    -0.87093756229926D+03

 The electronic state is 1-A.
 Alpha  occ. eigenvalues --  -20.61473 -20.61427 -20.60340 -20.60334 -15.86497
 Alpha  occ. eigenvalues --  -15.85388 -11.31764 -11.30626 -11.28395 -11.28265
 Alpha  occ. eigenvalues --  -11.27990 -11.27312 -11.27256 -11.27180 -11.27163
 Alpha  occ. eigenvalues --  -11.26851 -11.26180 -11.26106  -1.60513  -1.59417
 Alpha  occ. eigenvalues --   -1.40077  -1.38975  -1.19912  -1.18771  -1.09315
 Alpha  occ. eigenvalues --   -1.08183  -1.05306  -1.04157  -0.96176  -0.95048
 Alpha  occ. eigenvalues --   -0.86707  -0.85558  -0.83020  -0.81888  -0.78096
 Alpha  occ. eigenvalues --   -0.76958  -0.72725  -0.71823  -0.71612  -0.71022
 Alpha  occ. eigenvalues --   -0.70735  -0.69880  -0.65571  -0.65306  -0.64426
 Alpha  occ. eigenvalues --   -0.64151  -0.62674  -0.61515  -0.55786  -0.54648
 Alpha  occ. eigenvalues --   -0.53626  -0.53402  -0.52480  -0.52251  -0.49487
 Alpha  occ. eigenvalues --   -0.49446  -0.48374  -0.48355  -0.45502  -0.44409
 Alpha  occ. eigenvalues --   -0.37863  -0.36900  -0.36723  -0.35740
 Alpha virt. eigenvalues --    0.04455   0.05574   0.10756   0.11913   0.15985
 Alpha virt. eigenvalues --    0.17112   0.19462   0.21994   0.24887   0.27212
 Alpha virt. eigenvalues --    0.28863   0.28928   0.30157   0.31188   0.32712

 Mulliken charges:
               1
     1  C   -0.170510
     2  C   -0.218366
     3  C   -0.171944
     4  C    0.158347
     5  C   -0.171492
     6  C   -0.213130
     7  H    0.226633
     8  H    0.221804
     9  H    0.273693
    10  H    0.271129
    11  H    0.228897
    12  N    0.488338
    13  O   -0.462713
    14  O   -0.461759
    15  C   -0.169903
    16  C   -0.218456
    17  C   -0.170409
    18  C    0.159127
    19  C   -0.169912
    20  C   -0.218043
    21  H    0.228081
    22  H    0.224787
    23  H    0.267923
    24  H    0.277275
    25  H    0.225861
    26  N    0.490669
    27  O   -0.455396
    28  O   -0.470532
 Sum of Mulliken charges =  -0.00000

 Dipole moment (field-independent basis, Debye):
    X=             -5.3081    Y=             -0.5449    Z=              4.7173  Tot=              7.1222
 Quadrupole moment (field-independent basis, Debye-Ang):
   XX=            -92.8506   YY=           -108.7929   ZZ=           -104.9150
   XY=            -31.0578   XZ=              4.0745   YZ=              0.1217

 Normal termination of Gaussian 16 at Wed May  5 22:49:51 2021.
