 Gaussian 16, Revision A.03,
 Gaussian 16:  EM64L-G16RevA.03 25-Dec-2016

 -------------
 #p 6-31g* mp2
 -------------

 ------------------------------------------------------
 Input file generated by CHIRIPA (05-May-2021 14:53:15)
 ------------------------------------------------------
 Symbolic Z-matrix:
 Charge =  0 Multiplicity = 1

                         Standard orientation:
 ---------------------------------------------------------------------
 Center     Atomic      Atomic             Coordinates (Angstroms)
 Number     Number       Type             X           Y           Z
 ---------------------------------------------------------------------
      1          6           0       -4.366950    0.028767   -0.075134
      2          6           0       -3.304023   -1.049602    0.137683
      3          6           0       -1.880150   -0.515803   -0.021809
      4          1           0       -4.246040    0.460971   -1.077892
      5          1           0       -4.198499    0.845968    0.639850
      6          1           0       -3.475262   -1.865164   -0.576567
      7          1           0       -3.427599   -1.479422    1.139980
      8          1           0       -1.685176    0.283407    0.700582
      9          1           0       -1.733110   -0.104526   -1.025718
     10          1           0       -1.136316   -1.303292    0.134501
     11          6           0       -5.795494   -0.489510    0.081000
     12          6           0       -6.858421    0.588859   -0.131816
     13          6           0       -8.282295    0.055060    0.027676
     14          1           0       -5.963945   -1.306711   -0.633983
     15          1           0       -5.916405   -0.921714    1.083759
     16          1           0       -6.734846    1.018679   -1.134113
     17          1           0       -6.687182    1.404421    0.582433
     18          1           0       -8.429334   -0.356217    1.031584
     19          1           0       -8.477269   -0.744150   -0.694715
     20          1           0       -9.026128    0.842549   -0.128634
     21          6           0        2.315030    2.084570    0.020121
     22          6           0        1.859979    0.762297   -0.012165
     23          6           0        2.767752   -0.300877   -0.024841
     24          6           0        4.129672   -0.004151   -0.004459
     25          6           0        4.614112    1.302588    0.027811
     26          6           0        3.688223    2.350028    0.039971
     27          1           0        1.602813    2.904357    0.029769
     28          1           0        0.794115    0.553157   -0.027637
     29          1           0        2.442874   -1.333956   -0.049748
     30          1           0        5.682685    1.479646    0.042643
     31          1           0        4.044494    3.375936    0.065055
     32          7           0        5.100281   -1.121357   -0.017606
     33          8           0        6.295012   -0.833412    0.000852
     34          8           0        4.647932   -2.263813   -0.046119
 ---------------------------------------------------------------------

 SCF Done:  E(RHF) =  -669.535636886     A.U. after   15 cycles
 E2 =    -0.2090963901D+01 EUMP2 =    -0.67162660078718D+03

 The electronic state is 1-A.
 Alpha  occ. eigenvalues --  -20.60687 -20.60682 -15.85738 -11.31080 -11.27644
 Alpha  occ. eigenvalues --  -11.27621 -11.27366 -11.26665 -11.26554 -11.22428
 Alpha  occ. eigenvalues --  -11.22282 -11.22065 -11.22046 -11.21889 -11.21430
 Alpha  occ. eigenvalues --   -1.59763  -1.39317  -1.19240  -1.09067  -1.08641
 Alpha  occ. eigenvalues --   -1.04638  -1.04213  -0.96704  -0.95484  -0.87748
 Alpha  occ. eigenvalues --   -0.86030  -0.82315  -0.80303  -0.78842  -0.77359
 Alpha  occ. eigenvalues --   -0.71957  -0.71085  -0.70357  -0.65689  -0.64890
 Alpha  occ. eigenvalues --   -0.64642  -0.62006  -0.61601  -0.60073  -0.58279
 Alpha  occ. eigenvalues --   -0.55986  -0.55152  -0.53516  -0.53164  -0.52974
 Alpha  occ. eigenvalues --   -0.52561  -0.50634  -0.48729  -0.48714  -0.48578
 Alpha  occ. eigenvalues --   -0.47293  -0.46394  -0.46288  -0.44728  -0.44451
 Alpha  occ. eigenvalues --   -0.37226  -0.36238
 Alpha virt. eigenvalues --    0.05160   0.11402   0.16659   0.20650   0.22315
 Alpha virt. eigenvalues --    0.23722   0.25607   0.26039   0.26732   0.27878
 Alpha virt. eigenvalues --    0.28808   0.30164   0.30641   0.31043   0.31983

 Mulliken charges:
               1
     1  C   -0.299257
     2  C   -0.299294
     3  C   -0.485537
     4  H    0.150006
     5  H    0.149046
     6  H    0.156217
     7  H    0.155738
     8  H    0.151974
     9  H    0.156406
    10  H    0.160319
    11  C   -0.299046
    12  C   -0.300023
    13  C   -0.476071
    14  H    0.151169
    15  H    0.151043
    16  H    0.152215
    17  H    0.151873
    18  H    0.155950
    19  H    0.156104
    20  H    0.161303
    21  C   -0.174227
    22  C   -0.230272
    23  C   -0.175367
    24  C    0.158976
    25  C   -0.171708
    26  C   -0.218304
    27  H    0.225519
    28  H    0.245940
    29  H    0.274947
    30  H    0.275079
    31  H    0.222775
    32  N    0.488122
    33  O   -0.460871
    34  O   -0.460741
 Sum of Mulliken charges =  -0.00000

 Dipole moment (field-independent basis, Debye):
    X=             -3.7110    Y=              3.8923    Z=              0.0435  Tot=              5.3780
 Quadrupole moment (field-independent basis, Debye-Ang):
   XX=           -120.8980   YY=            -92.9906   ZZ=            -94.6742
   XY=             19.1594   XZ=              0.4156   YZ=              0.3049

 Normal termination of Gaussian 16 at Thu May  6 12:10:06 2021.
