 Gaussian 16, Revision A.03,
 Gaussian 16:  EM64L-G16RevA.03 25-Dec-2016

 -------------
 #p 6-31g* mp2
 -------------

 ------------------------------------------------------
 Input file generated by CHIRIPA (05-May-2021 14:55:20)
 ------------------------------------------------------
 Symbolic Z-matrix:
 Charge =  0 Multiplicity = 1

                         Standard orientation:
 ---------------------------------------------------------------------
 Center     Atomic      Atomic             Coordinates (Angstroms)
 Number     Number       Type             X           Y           Z
 ---------------------------------------------------------------------
      1          6           0       -5.141269    0.528737    0.428064
      2          6           0       -4.681518    0.421164   -0.888590
      3          6           0       -3.416591   -0.109908   -1.157796
      4          6           0       -2.634234   -0.525511   -0.081469
      5          6           0       -3.064168   -0.431326    1.241246
      6          6           0       -4.332553    0.102900    1.486913
      7          1           0       -6.125237    0.942511    0.628047
      8          1           0       -5.307414    0.751073   -1.712883
      9          1           0       -3.035849   -0.204652   -2.167488
     10          1           0       -2.417452   -0.768644    2.042116
     11          1           0       -4.687000    0.185241    2.510452
     12          7           0       -1.293282   -1.089402   -0.354006
     13          8           0       -0.623266   -1.448416    0.611823
     14          8           0       -0.937652   -1.161689   -1.528288
     15          6           0        4.182629    0.170159    0.443810
     16          6           0        5.383403   -0.258386   -0.400274
     17          6           0        6.430915   -1.024623    0.408052
     18          1           0        4.532605    0.793855    1.277755
     19          1           0        3.721569   -0.720904    0.891947
     20          1           0        5.841228    0.633091   -0.847801
     21          1           0        5.030507   -0.880977   -1.232416
     22          1           0        5.995605   -1.930548    0.842111
     23          1           0        6.810933   -0.407877    1.228912
     24          1           0        7.280529   -1.321327   -0.214832
     25          6           0        3.126782    0.937233   -0.350238
     26          6           0        1.926008    1.365778    0.493847
     27          6           0        0.878495    2.132015   -0.314480
     28          1           0        3.587842    1.828296   -0.798374
     29          1           0        2.776806    0.313536   -1.184183
     30          1           0        2.278904    1.988369    1.325989
     31          1           0        1.468183    0.474301    0.941373
     32          1           0        0.498478    1.515269   -1.135340
     33          1           0        1.313806    3.037939   -0.748539
     34          1           0        0.028882    2.428719    0.308404
 ---------------------------------------------------------------------

 SCF Done:  E(RHF) =  -669.536858861     A.U. after   15 cycles
 E2 =    -0.2092213553D+01 EUMP2 =    -0.67162907241415D+03

 The electronic state is 1-A.
 Alpha  occ. eigenvalues --  -20.61063 -20.61050 -15.86057 -11.31315 -11.27871
 Alpha  occ. eigenvalues --  -11.27866 -11.27601 -11.26867 -11.26857 -11.20728
 Alpha  occ. eigenvalues --  -11.20390 -11.20354 -11.20331 -11.20223 -11.20195
 Alpha  occ. eigenvalues --   -1.60096  -1.39658  -1.19476  -1.08894  -1.07387
 Alpha  occ. eigenvalues --   -1.04865  -1.02577  -0.95748  -0.95066  -0.86269
 Alpha  occ. eigenvalues --   -0.86088  -0.82587  -0.78643  -0.77648  -0.77187
 Alpha  occ. eigenvalues --   -0.72288  -0.71414  -0.70590  -0.65136  -0.64871
 Alpha  occ. eigenvalues --   -0.63985  -0.62214  -0.59944  -0.58443  -0.56679
 Alpha  occ. eigenvalues --   -0.55376  -0.54338  -0.53197  -0.52958  -0.51805
 Alpha  occ. eigenvalues --   -0.51492  -0.49074  -0.49050  -0.48991  -0.46964
 Alpha  occ. eigenvalues --   -0.45846  -0.45061  -0.44742  -0.44366  -0.42823
 Alpha  occ. eigenvalues --   -0.37445  -0.36461
 Alpha virt. eigenvalues --    0.04829   0.11188   0.16284   0.21305   0.23910
 Alpha virt. eigenvalues --    0.25092   0.27239   0.27662   0.28287   0.28621
 Alpha virt. eigenvalues --    0.28773   0.30899   0.32128   0.32404   0.32751

 Mulliken charges:
               1
     1  C   -0.170373
     2  C   -0.218571
     3  C   -0.170366
     4  C    0.159463
     5  C   -0.170764
     6  C   -0.218647
     7  H    0.226113
     8  H    0.223973
     9  H    0.275880
    10  H    0.275794
    11  H    0.223918
    12  N    0.489516
    13  O   -0.458904
    14  O   -0.459406
    15  C   -0.299113
    16  C   -0.299360
    17  C   -0.475320
    18  H    0.144952
    19  H    0.156029
    20  H    0.148812
    21  H    0.154111
    22  H    0.156028
    23  H    0.152801
    24  H    0.157648
    25  C   -0.298493
    26  C   -0.306940
    27  C   -0.484124
    28  H    0.143155
    29  H    0.159139
    30  H    0.144114
    31  H    0.172496
    32  H    0.163773
    33  H    0.151346
    34  H    0.151318
 Sum of Mulliken charges =  -0.00000

 Dipole moment (field-independent basis, Debye):
    X=             -4.9820    Y=              1.7536    Z=              0.9221  Tot=              5.3615
 Quadrupole moment (field-independent basis, Debye-Ang):
   XX=            -71.5942   YY=            -97.7280   ZZ=            -90.2360
   XY=             -2.5326   XZ=             -1.7646   YZ=             -1.0284

 Normal termination of Gaussian 16 at Thu May  6 14:06:56 2021.
