 Gaussian 16, Revision A.03,
 Gaussian 16:  EM64L-G16RevA.03 25-Dec-2016

 -------------
 #p 6-31g* mp2
 -------------

 ------------------------------------------------------
 Input file generated by CHIRIPA (05-May-2021 14:55:21)
 ------------------------------------------------------
 Symbolic Z-matrix:
 Charge =  0 Multiplicity = 1

                         Standard orientation:
 ---------------------------------------------------------------------
 Center     Atomic      Atomic             Coordinates (Angstroms)
 Number     Number       Type             X           Y           Z
 ---------------------------------------------------------------------
      1          6           0       -2.163191    1.977620    0.958206
      2          6           0       -2.457806    1.680471   -0.376494
      3          6           0       -2.332124    0.373767   -0.857407
      4          6           0       -1.907385   -0.615721    0.027918
      5          6           0       -1.606343   -0.351183    1.363090
      6          6           0       -1.739147    0.962634    1.822215
      7          1           0       -2.263590    2.995462    1.323328
      8          1           0       -2.787332    2.466709   -1.049760
      9          1           0       -2.553579    0.115913   -1.885943
     10          1           0       -1.280051   -1.156158    2.010366
     11          1           0       -1.509650    1.190488    2.859258
     12          7           0       -1.770561   -2.002835   -0.469670
     13          8           0       -1.394512   -2.856665    0.330454
     14          8           0       -2.041958   -2.209960   -1.650382
     15          6           0        2.556645    1.249214   -0.229548
     16          6           0        1.244279    1.980501   -0.513971
     17          6           0        1.433313    3.487594   -0.689282
     18          1           0        3.015013    1.670454    0.675659
     19          1           0        3.259494    1.438226   -1.052756
     20          1           0        0.543631    1.789038    0.308860
     21          1           0        0.788886    1.557342   -1.418498
     22          1           0        2.111912    3.696367   -1.522660
     23          1           0        1.865263    3.929380    0.214513
     24          1           0        0.482594    3.990589   -0.891736
     25          6           0        2.383989   -0.258217   -0.051865
     26          6           0        3.696356   -0.989506    0.232559
     27          6           0        3.507322   -2.496597    0.407870
     28          1           0        1.681141   -0.447230    0.771344
     29          1           0        1.925622   -0.679458   -0.957073
     30          1           0        4.151749   -0.566346    1.137086
     31          1           0        4.397004   -0.798041   -0.590273
     32          1           0        3.075372   -2.938384   -0.495925
     33          1           0        2.828724   -2.705371    1.241248
     34          1           0        4.458041   -2.999592    0.610324
 ---------------------------------------------------------------------

 SCF Done:  E(RHF) =  -669.533979930     A.U. after   15 cycles
 E2 =    -0.2095838898D+01 EUMP2 =    -0.67162981882783D+03

 The electronic state is 1-A.
 Alpha  occ. eigenvalues --  -20.60836 -20.60829 -15.85889 -11.31300 -11.27881
 Alpha  occ. eigenvalues --  -11.27860 -11.27571 -11.26867 -11.26852 -11.21474
 Alpha  occ. eigenvalues --  -11.21377 -11.21357 -11.21324 -11.21217 -11.20641
 Alpha  occ. eigenvalues --   -1.59907  -1.39460  -1.19479  -1.08866  -1.08326
 Alpha  occ. eigenvalues --   -1.04882  -1.03430  -0.95903  -0.95681  -0.86909
 Alpha  occ. eigenvalues --   -0.86272  -0.82515  -0.79505  -0.78151  -0.77557
 Alpha  occ. eigenvalues --   -0.72107  -0.71223  -0.70572  -0.65122  -0.64999
 Alpha  occ. eigenvalues --   -0.64869  -0.62224  -0.60860  -0.59344  -0.57521
 Alpha  occ. eigenvalues --   -0.55371  -0.55189  -0.53382  -0.52967  -0.52546
 Alpha  occ. eigenvalues --   -0.52288  -0.49828  -0.48869  -0.48860  -0.47734
 Alpha  occ. eigenvalues --   -0.46538  -0.45647  -0.45537  -0.44844  -0.43687
 Alpha  occ. eigenvalues --   -0.37349  -0.36435
 Alpha virt. eigenvalues --    0.04949   0.11042   0.16429   0.21041   0.23059
 Alpha virt. eigenvalues --    0.24203   0.26496   0.27092   0.27445   0.27922
 Alpha virt. eigenvalues --    0.28519   0.30817   0.31348   0.31689   0.32185

 Mulliken charges:
               1
     1  C   -0.172335
     2  C   -0.212477
     3  C   -0.170577
     4  C    0.162545
     5  C   -0.169723
     6  C   -0.221123
     7  H    0.226615
     8  H    0.224013
     9  H    0.275950
    10  H    0.275898
    11  H    0.224045
    12  N    0.488158
    13  O   -0.459919
    14  O   -0.460589
    15  C   -0.297300
    16  C   -0.306449
    17  C   -0.474923
    18  H    0.146236
    19  H    0.149047
    20  H    0.161074
    21  H    0.150262
    22  H    0.156885
    23  H    0.152908
    24  H    0.150874
    25  C   -0.299377
    26  C   -0.299883
    27  C   -0.475748
    28  H    0.146638
    29  H    0.152406
    30  H    0.148996
    31  H    0.151567
    32  H    0.160952
    33  H    0.156863
    34  H    0.158492
 Sum of Mulliken charges =  -0.00000

 Dipole moment (field-independent basis, Debye):
    X=             -0.6457    Y=              4.7362    Z=              1.7526  Tot=              5.0912
 Quadrupole moment (field-independent basis, Debye-Ang):
   XX=            -93.3826   YY=           -102.4760   ZZ=            -89.6530
   XY=            -10.0068   XZ=             -2.0860   YZ=             -2.0300

 Normal termination of Gaussian 16 at Thu May  6 20:43:07 2021.
