 Gaussian 16, Revision A.03,
 Gaussian 16:  EM64L-G16RevA.03 25-Dec-2016

 -------------
 #p 6-31g* mp2
 -------------

 ------------------------------------------------------
 Input file generated by CHIRIPA (05-May-2021 14:53:13)
 ------------------------------------------------------
 Symbolic Z-matrix:
 Charge =  0 Multiplicity = 1

                         Standard orientation:
 ---------------------------------------------------------------------
 Center     Atomic      Atomic             Coordinates (Angstroms)
 Number     Number       Type             X           Y           Z
 ---------------------------------------------------------------------
      1          6           0        3.465152    0.731678    0.399248
      2          6           0        3.428332    2.135858   -0.204828
      3          6           0        3.785096    3.224537    0.807738
      4          1           0        2.769855    0.686481    1.248639
      5          1           0        4.468057    0.541159    0.805793
      6          1           0        2.426194    2.323150   -0.611346
      7          1           0        4.123656    2.177661   -1.052999
      8          1           0        4.792572    3.065407    1.205571
      9          1           0        3.085466    3.211722    1.649733
     10          1           0        3.752587    4.220335    0.354758
     11          6           0        3.110764   -0.367491   -0.600734
     12          6           0        3.147583   -1.771671    0.003342
     13          6           0        2.790820   -2.860350   -1.009225
     14          1           0        2.107858   -0.176972   -1.007279
     15          1           0        3.806061   -0.322294   -1.450125
     16          1           0        2.452260   -1.813474    0.851512
     17          1           0        4.149721   -1.958963    0.409860
     18          1           0        3.490450   -2.847534   -1.851219
     19          1           0        1.783344   -2.701219   -1.407057
     20          1           0        2.823329   -3.856147   -0.556245
     21          6           0       -1.279677   -2.040984    1.127111
     22          6           0       -2.100184   -1.230710    1.918784
     23          6           0       -2.819009   -0.175847    1.348605
     24          6           0       -2.693336    0.041301   -0.022651
     25          6           0       -1.884081   -0.748453   -0.837933
     26          6           0       -1.174430   -1.797697   -0.246299
     27          1           0       -0.724841   -2.858244    1.578372
     28          1           0       -2.183846   -1.417315    2.985660
     29          1           0       -3.461485    0.466918    1.938094
     30          1           0       -1.820966   -0.537835   -1.898628
     31          1           0       -0.537976   -2.425344   -0.863576
     32          7           0       -3.449468    1.155063   -0.637629
     33          8           0       -3.321628    1.325601   -1.848088
     34          8           0       -4.155647    1.836403    0.102454
 ---------------------------------------------------------------------

 SCF Done:  E(RHF) =  -669.535654739     A.U. after   15 cycles
 E2 =    -0.2091785186D+01 EUMP2 =    -0.67162743992462D+03

 The electronic state is 1-A.
 Alpha  occ. eigenvalues --  -20.60809 -20.60804 -15.85863 -11.31247 -11.27819
 Alpha  occ. eigenvalues --  -11.27815 -11.27560 -11.26832 -11.26817 -11.22325
 Alpha  occ. eigenvalues --  -11.22027 -11.21874 -11.21793 -11.21703 -11.21198
 Alpha  occ. eigenvalues --   -1.59885  -1.39438  -1.19422  -1.08889  -1.08805
 Alpha  occ. eigenvalues --   -1.04828  -1.04012  -0.96472  -0.95642  -0.87493
 Alpha  occ. eigenvalues --   -0.86220  -0.82475  -0.80088  -0.78653  -0.77521
 Alpha  occ. eigenvalues --   -0.72081  -0.71209  -0.70521  -0.65564  -0.65071
 Alpha  occ. eigenvalues --   -0.64816  -0.62226  -0.61360  -0.59864  -0.58060
 Alpha  occ. eigenvalues --   -0.55791  -0.55308  -0.53177  -0.53148  -0.53021
 Alpha  occ. eigenvalues --   -0.52785  -0.50411  -0.48841  -0.48835  -0.48393
 Alpha  occ. eigenvalues --   -0.47114  -0.46205  -0.46095  -0.44839  -0.44242
 Alpha  occ. eigenvalues --   -0.37394  -0.36421
 Alpha virt. eigenvalues --    0.04995   0.11140   0.16414   0.19682   0.22856
 Alpha virt. eigenvalues --    0.23971   0.25470   0.26247   0.27097   0.28277
 Alpha virt. eigenvalues --    0.28798   0.29798   0.31102   0.31611   0.32034

 Mulliken charges:
               1
     1  C   -0.298554
     2  C   -0.300604
     3  C   -0.475976
     4  H    0.149844
     5  H    0.149554
     6  H    0.154929
     7  H    0.152391
     8  H    0.154585
     9  H    0.155471
    10  H    0.162534
    11  C   -0.298694
    12  C   -0.299701
    13  C   -0.478980
    14  H    0.149645
    15  H    0.151272
    16  H    0.147856
    17  H    0.155006
    18  H    0.161226
    19  H    0.146570
    20  H    0.159794
    21  C   -0.173046
    22  C   -0.218736
    23  C   -0.170896
    24  C    0.158734
    25  C   -0.173073
    26  C   -0.222032
    27  H    0.226785
    28  H    0.223727
    29  H    0.275845
    30  H    0.276085
    31  H    0.230904
    32  N    0.488042
    33  O   -0.460218
    34  O   -0.460287
 Sum of Mulliken charges =  -0.00000

 Dipole moment (field-independent basis, Debye):
    X=              2.7388    Y=             -3.8465    Z=              2.1785  Tot=              5.2002
 Quadrupole moment (field-independent basis, Debye-Ang):
   XX=           -107.7912   YY=            -96.2733   ZZ=            -91.2737
   XY=             10.0007   XZ=             -8.4457   YZ=              0.7695

 Normal termination of Gaussian 16 at Thu May  6 04:11:14 2021.
