 Gaussian 16, Revision A.03,
 Gaussian 16:  EM64L-G16RevA.03 25-Dec-2016

 -------------
 #p 6-31g* mp2
 -------------

 ------------------------------------------------------
 Input file generated by CHIRIPA (05-May-2021 14:51:10)
 ------------------------------------------------------
 Symbolic Z-matrix:
 Charge =  0 Multiplicity = 1

                         Standard orientation:
 ---------------------------------------------------------------------
 Center     Atomic      Atomic             Coordinates (Angstroms)
 Number     Number       Type             X           Y           Z
 ---------------------------------------------------------------------
      1          6           0        5.368201    0.401981   -0.284234
      2          6           0        6.373284   -0.725539   -0.046556
      3          6           0        7.748740   -0.427029   -0.643889
      4          1           0        5.270477    0.575778   -1.364600
      5          1           0        5.762461    1.332286    0.147607
      6          1           0        5.976620   -1.653740   -0.477503
      7          1           0        6.468483   -0.896801    1.033362
      8          1           0        8.169212    0.484228   -0.206379
      9          1           0        7.674554   -0.277012   -1.725828
     10          1           0        8.451612   -1.246100   -0.462358
     11          6           0        3.988487    0.118285    0.307064
     12          6           0        2.983403    1.245805    0.069385
     13          6           0        1.607947    0.947295    0.666719
     14          1           0        3.594226   -0.812020   -0.124777
     15          1           0        4.086211   -0.055512    1.387429
     16          1           0        2.888204    1.417067   -1.010533
     17          1           0        3.380067    2.174006    0.500333
     18          1           0        1.682134    0.797278    1.748658
     19          1           0        1.187475    0.036038    0.229208
     20          1           0        0.905075    1.766366    0.485187
     21          6           0       -3.956734   -0.065690    0.146395
     22          6           0       -3.002118   -1.259441    0.187031
     23          6           0       -1.562215   -0.854388    0.503902
     24          1           0       -3.602769    0.653325   -0.605050
     25          1           0       -3.925390    0.453090    1.114527
     26          1           0       -3.036290   -1.776628   -0.780422
     27          1           0       -3.358502   -1.975788    0.938332
     28          1           0       -1.507234   -0.357690    1.478002
     29          1           0       -1.183191   -0.157400   -0.250518
     30          1           0       -0.896851   -1.723049    0.527981
     31          6           0       -5.399953   -0.454575   -0.169224
     32          6           0       -6.354570    0.739175   -0.209860
     33          6           0       -7.794473    0.334121   -0.526731
     34          1           0       -5.431297   -0.973357   -1.137355
     35          1           0       -5.753918   -1.173591    0.582221
     36          1           0       -5.998186    1.455522   -0.961161
     37          1           0       -6.320397    1.256363    0.757593
     38          1           0       -8.173496   -0.362867    0.227688
     39          1           0       -7.849453   -0.162575   -1.500831
     40          1           0       -8.459836    1.202783   -0.550810
 ---------------------------------------------------------------------

 SCF Done:  E(RHF) =  -470.732485747     A.U. after   11 cycles
 E2 =    -0.1582624454D+01 EUMP2 =    -0.47231511020015D+03

 The electronic state is 1-A.
 Alpha  occ. eigenvalues --  -11.21584 -11.21573 -11.21535 -11.21504 -11.21377
 Alpha  occ. eigenvalues --  -11.21358 -11.21317 -11.21296 -11.21058 -11.21049
 Alpha  occ. eigenvalues --  -11.20972 -11.20882  -1.08401  -1.08371  -1.03521
 Alpha  occ. eigenvalues --   -1.03437  -0.96026  -0.95837  -0.87113  -0.86790
 Alpha  occ. eigenvalues --   -0.79699  -0.79396  -0.78232  -0.78163  -0.65044
 Alpha  occ. eigenvalues --   -0.64995  -0.60973  -0.60796  -0.59351  -0.59260
 Alpha  occ. eigenvalues --   -0.57556  -0.57523  -0.55405  -0.55062  -0.52850
 Alpha  occ. eigenvalues --   -0.52645  -0.52361  -0.52110  -0.50059  -0.49660
 Alpha  occ. eigenvalues --   -0.47951  -0.47748  -0.46688  -0.46446  -0.45805
 Alpha  occ. eigenvalues --   -0.45697  -0.45679  -0.45594  -0.43737  -0.43701
 Alpha virt. eigenvalues --    0.22558   0.23013   0.23690   0.24836   0.26475
 Alpha virt. eigenvalues --    0.26668   0.26810   0.27469   0.27686   0.29288
 Alpha virt. eigenvalues --    0.30607   0.31206   0.31483   0.31956   0.32260

 Mulliken charges:
               1
     1  C   -0.298156
     2  C   -0.299588
     3  C   -0.475664
     4  H    0.149465
     5  H    0.149457
     6  H    0.151802
     7  H    0.151874
     8  H    0.155143
     9  H    0.155103
    10  H    0.160135
    11  C   -0.298273
    12  C   -0.300223
    13  C   -0.478101
    14  H    0.149281
    15  H    0.149493
    16  H    0.151063
    17  H    0.151142
    18  H    0.153999
    19  H    0.163075
    20  H    0.159120
    21  C   -0.298309
    22  C   -0.300905
    23  C   -0.475539
    24  H    0.149456
    25  H    0.149485
    26  H    0.151286
    27  H    0.151434
    28  H    0.156783
    29  H    0.157610
    30  H    0.158780
    31  C   -0.298203
    32  C   -0.299596
    33  C   -0.475680
    34  H    0.149401
    35  H    0.149621
    36  H    0.151852
    37  H    0.151901
    38  H    0.155159
    39  H    0.155131
    40  H    0.160186
 Sum of Mulliken charges =  -0.00000

 Dipole moment (field-independent basis, Debye):
    X=             -0.0172    Y=             -0.0069    Z=              0.0088  Tot=              0.0205
 Quadrupole moment (field-independent basis, Debye-Ang):
   XX=            -87.2889   YY=            -84.7022   ZZ=            -83.1750
   XY=             -0.1539   XZ=              0.2065   YZ=              0.2684

 Normal termination of Gaussian 16 at Wed May  5 15:11:28 2021.
