 Gaussian 16, Revision A.03,
 Gaussian 16:  EM64L-G16RevA.03 25-Dec-2016

 -------------
 #p 6-31g* mp2
 -------------

 ------------------------------------------------------
 Input file generated by CHIRIPA (05-May-2021 14:53:17)
 ------------------------------------------------------
 Symbolic Z-matrix:
 Charge =  0 Multiplicity = 1

                         Standard orientation:
 ---------------------------------------------------------------------
 Center     Atomic      Atomic             Coordinates (Angstroms)
 Number     Number       Type             X           Y           Z
 ---------------------------------------------------------------------
      1          6           0       -3.642516   -0.353850   -0.041032
      2          6           0       -3.134885   -1.794049   -0.119276
      3          6           0       -4.232202   -2.823263    0.153502
      4          1           0       -4.073661   -0.177312    0.953902
      5          1           0       -4.459371   -0.220587   -0.763793
      6          1           0       -2.318305   -1.924175    0.602444
      7          1           0       -2.704725   -1.967121   -1.114074
      8          1           0       -5.044445   -2.722281   -0.573592
      9          1           0       -4.655829   -2.679090    1.152679
     10          1           0       -3.847453   -3.846056    0.092477
     11          6           0       -2.557117    0.686599   -0.311407
     12          6           0       -3.064747    2.126798   -0.233163
     13          6           0       -1.967430    3.156012   -0.505941
     14          1           0       -1.740262    0.553336    0.411354
     15          1           0       -2.125971    0.510061   -1.306341
     16          1           0       -3.494907    2.299870    0.761635
     17          1           0       -3.881328    2.256924   -0.954883
     18          1           0       -1.543804    3.011839   -1.505118
     19          1           0       -1.155187    3.055030    0.221153
     20          1           0       -2.352180    4.178805   -0.444916
     21          6           0        2.852542   -2.578288   -0.293739
     22          6           0        3.624019   -1.607192   -0.940514
     23          6           0        3.394143   -0.247729   -0.709071
     24          6           0        2.380083    0.106713    0.179378
     25          6           0        1.594483   -0.837193    0.839049
     26          6           0        1.842018   -2.190872    0.592415
     27          1           0        3.037975   -3.632104   -0.479430
     28          1           0        4.409477   -1.905146   -1.629227
     29          1           0        3.976432    0.524902   -1.196305
     30          1           0        0.818566   -0.509431    1.520182
     31          1           0        1.241310   -2.942853    1.096121
     32          7           0        2.127375    1.542854    0.432438
     33          8           0        1.228021    1.829160    1.219730
     34          8           0        2.833442    2.355002   -0.161298
 ---------------------------------------------------------------------

 SCF Done:  E(RHF) =  -669.536538039     A.U. after   15 cycles
 E2 =    -0.2092191828D+01 EUMP2 =    -0.67162872986730D+03

 The electronic state is 1-A.
 Alpha  occ. eigenvalues --  -20.60969 -20.60963 -15.85982 -11.31273 -11.27836
 Alpha  occ. eigenvalues --  -11.27831 -11.27564 -11.26837 -11.26826 -11.21750
 Alpha  occ. eigenvalues --  -11.21237 -11.21232 -11.20982 -11.20901 -11.19876
 Alpha  occ. eigenvalues --   -1.60012  -1.39572  -1.19437  -1.08847  -1.08155
 Alpha  occ. eigenvalues --   -1.04831  -1.03164  -0.95698  -0.95580  -0.86598
 Alpha  occ. eigenvalues --   -0.86232  -0.82534  -0.79296  -0.77924  -0.77571
 Alpha  occ. eigenvalues --   -0.72212  -0.71314  -0.70551  -0.65098  -0.64852
 Alpha  occ. eigenvalues --   -0.64776  -0.62182  -0.60555  -0.59051  -0.57186
 Alpha  occ. eigenvalues --   -0.55339  -0.54851  -0.53159  -0.52927  -0.52290
 Alpha  occ. eigenvalues --   -0.51994  -0.49561  -0.48966  -0.48923  -0.47574
 Alpha  occ. eigenvalues --   -0.46361  -0.45573  -0.45396  -0.44719  -0.43430
 Alpha  occ. eigenvalues --   -0.37410  -0.36421
 Alpha virt. eigenvalues --    0.04879   0.11185   0.16356   0.20500   0.23057
 Alpha virt. eigenvalues --    0.24681   0.25234   0.27257   0.27729   0.28501
 Alpha virt. eigenvalues --    0.29458   0.30556   0.31849   0.31878   0.32350

 Mulliken charges:
               1
     1  C   -0.298090
     2  C   -0.297141
     3  C   -0.475303
     4  H    0.149789
     5  H    0.149846
     6  H    0.142236
     7  H    0.151746
     8  H    0.156907
     9  H    0.155763
    10  H    0.156829
    11  C   -0.300964
    12  C   -0.298372
    13  C   -0.487075
    14  H    0.152499
    15  H    0.147249
    16  H    0.150731
    17  H    0.147793
    18  H    0.150129
    19  H    0.182916
    20  H    0.156642
    21  C   -0.170540
    22  C   -0.218566
    23  C   -0.170718
    24  C    0.158335
    25  C   -0.170070
    26  C   -0.218404
    27  H    0.225997
    28  H    0.223730
    29  H    0.275745
    30  H    0.276197
    31  H    0.224176
    32  N    0.489387
    33  O   -0.461475
    34  O   -0.457924
 Sum of Mulliken charges =  -0.00000

 Dipole moment (field-independent basis, Debye):
    X=              1.0965    Y=             -4.9692    Z=             -0.8523  Tot=              5.1596
 Quadrupole moment (field-independent basis, Debye-Ang):
   XX=            -88.8537   YY=            -96.8805   ZZ=            -92.7314
   XY=            -11.6141   XZ=             -4.5572   YZ=             -1.4441

 Normal termination of Gaussian 16 at Wed May  5 20:23:32 2021.
