 Gaussian 16, Revision A.03,
 Gaussian 16:  EM64L-G16RevA.03 25-Dec-2016

 -------------
 #p 6-31g* mp2
 -------------

 ------------------------------------------------------
 Input file generated by CHIRIPA (05-May-2021 14:53:15)
 ------------------------------------------------------
 Symbolic Z-matrix:
 Charge =  0 Multiplicity = 1

                         Standard orientation:
 ---------------------------------------------------------------------
 Center     Atomic      Atomic             Coordinates (Angstroms)
 Number     Number       Type             X           Y           Z
 ---------------------------------------------------------------------
      1          6           0        3.392869   -0.605232    0.107427
      2          6           0        2.483185   -0.633598    1.336107
      3          6           0        1.071043   -1.124007    1.014938
      4          1           0        2.943824    0.041793   -0.658512
      5          1           0        3.443646   -1.613708   -0.325923
      6          1           0        2.435241    0.374341    1.767819
      7          1           0        2.934541   -1.280479    2.099284
      8          1           0        1.099573   -2.138763    0.604990
      9          1           0        0.597436   -0.474540    0.271642
     10          1           0        0.437663   -1.136346    1.907427
     11          6           0        4.807953   -0.117164    0.412476
     12          6           0        5.717636   -0.088797   -0.816205
     13          6           0        7.129778    0.401612   -0.495036
     14          1           0        4.757175    0.891313    0.845826
     15          1           0        5.256997   -0.764189    1.178415
     16          1           0        5.266280    0.558083   -1.579381
     17          1           0        5.765580   -1.096737   -1.247917
     18          1           0        7.603385   -0.247855    0.248261
     19          1           0        7.101248    1.416367   -0.085087
     20          1           0        7.763158    0.413950   -1.387525
     21          6           0       -1.663484    2.280722   -0.185981
     22          6           0       -1.328967    1.145622   -0.931746
     23          6           0       -2.174689    0.032510   -0.948568
     24          6           0       -3.352324    0.088974   -0.204741
     25          6           0       -3.713310    1.205273    0.548158
     26          6           0       -2.852491    2.306879    0.550293
     27          1           0       -1.000643    3.140946   -0.178617
     28          1           0       -0.406217    1.122496   -1.504495
     29          1           0       -1.940159   -0.859156   -1.517202
     30          1           0       -4.639978    1.198695    1.109104
     31          1           0       -3.114843    3.187060    1.130378
     32          7           0       -4.255642   -1.083337   -0.214776
     33          8           0       -5.287378   -1.008574    0.448978
     34          8           0       -3.914823   -2.054760   -0.886204
 ---------------------------------------------------------------------

 SCF Done:  E(RHF) =  -669.534581550     A.U. after   15 cycles
 E2 =    -0.2092310347D+01 EUMP2 =    -0.67162689189665D+03

 The electronic state is 1-A.
 Alpha  occ. eigenvalues --  -20.60767 -20.60762 -15.85822 -11.31205 -11.27780
 Alpha  occ. eigenvalues --  -11.27776 -11.27534 -11.26804 -11.26795 -11.21987
 Alpha  occ. eigenvalues --  -11.21978 -11.21869 -11.21778 -11.21402 -11.21292
 Alpha  occ. eigenvalues --   -1.59841  -1.39394  -1.19392  -1.08846  -1.08780
 Alpha  occ. eigenvalues --   -1.04811  -1.03892  -0.96340  -0.95609  -0.87358
 Alpha  occ. eigenvalues --   -0.86198  -0.82451  -0.79961  -0.78669  -0.77487
 Alpha  occ. eigenvalues --   -0.72040  -0.71164  -0.70494  -0.65493  -0.65046
 Alpha  occ. eigenvalues --   -0.64812  -0.62172  -0.61289  -0.59702  -0.57958
 Alpha  occ. eigenvalues --   -0.55691  -0.55297  -0.53288  -0.52975  -0.52887
 Alpha  occ. eigenvalues --   -0.52647  -0.50257  -0.48802  -0.48792  -0.48273
 Alpha  occ. eigenvalues --   -0.47001  -0.46208  -0.46137  -0.44794  -0.44157
 Alpha  occ. eigenvalues --   -0.37365  -0.36310
 Alpha virt. eigenvalues --    0.05042   0.11174   0.16427   0.20593   0.22612
 Alpha virt. eigenvalues --    0.23973   0.25653   0.26709   0.27425   0.28258
 Alpha virt. eigenvalues --    0.28620   0.30315   0.31416   0.31639   0.32136

 Mulliken charges:
               1
     1  C   -0.297002
     2  C   -0.299930
     3  C   -0.479608
     4  H    0.141468
     5  H    0.151876
     6  H    0.149283
     7  H    0.154358
     8  H    0.156857
     9  H    0.153103
    10  H    0.163366
    11  C   -0.298220
    12  C   -0.299642
    13  C   -0.475845
    14  H    0.148367
    15  H    0.151814
    16  H    0.149874
    17  H    0.153253
    18  H    0.156393
    19  H    0.154759
    20  H    0.161113
    21  C   -0.171313
    22  C   -0.219762
    23  C   -0.166446
    24  C    0.158332
    25  C   -0.170903
    26  C   -0.218569
    27  H    0.225592
    28  H    0.223936
    29  H    0.276652
    30  H    0.275745
    31  H    0.223537
    32  N    0.488111
    33  O   -0.460496
    34  O   -0.460051
 Sum of Mulliken charges =  -0.00000

 Dipole moment (field-independent basis, Debye):
    X=              3.1747    Y=              4.1008    Z=              0.0695  Tot=              5.1865
 Quadrupole moment (field-independent basis, Debye-Ang):
   XX=           -115.3512   YY=            -92.4867   ZZ=            -93.4038
   XY=            -16.1734   XZ=             -2.9684   YZ=              0.6363

 Normal termination of Gaussian 16 at Thu May  6 15:31:32 2021.
