 Gaussian 16, Revision A.03,
 Gaussian 16:  EM64L-G16RevA.03 25-Dec-2016

 -------------
 #p 6-31g* mp2
 -------------

 ------------------------------------------------------
 Input file generated by CHIRIPA (05-May-2021 14:53:16)
 ------------------------------------------------------
 Symbolic Z-matrix:
 Charge =  0 Multiplicity = 1

                         Standard orientation:
 ---------------------------------------------------------------------
 Center     Atomic      Atomic             Coordinates (Angstroms)
 Number     Number       Type             X           Y           Z
 ---------------------------------------------------------------------
      1          6           0       -3.328929   -0.750202   -0.625731
      2          6           0       -1.920468   -1.238116   -0.284906
      3          6           0       -1.213581   -1.883131   -1.477408
      4          1           0       -3.924695   -1.597148   -0.992731
      5          1           0       -3.269453   -0.028485   -1.452158
      6          1           0       -1.982446   -1.957657    0.541554
      7          1           0       -1.328042   -0.389948    0.081507
      8          1           0       -1.122346   -1.169941   -2.303021
      9          1           0       -1.780468   -2.746558   -1.840360
     10          1           0       -0.208353   -2.224715   -1.211518
     11          6           0       -4.048435   -0.102996    0.556286
     12          6           0       -5.456896    0.384918    0.215461
     13          6           0       -6.163782    1.029933    1.407963
     14          1           0       -4.107911   -0.824714    1.382713
     15          1           0       -3.452668    0.743950    0.923286
     16          1           0       -6.049322   -0.463251   -0.150952
     17          1           0       -5.394918    1.104459   -0.610999
     18          1           0       -5.596895    1.893359    1.770915
     19          1           0       -6.255017    0.316743    2.233576
     20          1           0       -7.169010    1.371516    1.142073
     21          6           0        3.999317   -1.594911    1.209971
     22          6           0        4.256489   -0.281151    1.615457
     23          6           0        3.642900    0.794948    0.967331
     24          6           0        2.773743    0.519691   -0.087226
     25          6           0        2.497221   -0.778095   -0.514515
     26          6           0        3.122051   -1.838760    0.148151
     27          1           0        4.480334   -2.424855    1.719098
     28          1           0        4.937334   -0.088787    2.439769
     29          1           0        3.824084    1.821851    1.260691
     30          1           0        1.813759   -0.938370   -1.339506
     31          1           0        2.920450   -2.858012   -0.168909
     32          7           0        2.118215    1.650739   -0.781065
     33          8           0        1.356507    1.381657   -1.707365
     34          8           0        2.378531    2.784921   -0.385457
 ---------------------------------------------------------------------

 SCF Done:  E(RHF) =  -669.535669214     A.U. after   15 cycles
 E2 =    -0.2091684336D+01 EUMP2 =    -0.67162735354993D+03

 The electronic state is 1-A.
 Alpha  occ. eigenvalues --  -20.60821 -20.60816 -15.85865 -11.31190 -11.27773
 Alpha  occ. eigenvalues --  -11.27720 -11.27513 -11.26781 -11.26768 -11.21466
 Alpha  occ. eigenvalues --  -11.21346 -11.21158 -11.21132 -11.21097 -11.20839
 Alpha  occ. eigenvalues --   -1.59890  -1.39444  -1.19369  -1.08773  -1.08211
 Alpha  occ. eigenvalues --   -1.04771  -1.03365  -0.95845  -0.95603  -0.86866
 Alpha  occ. eigenvalues --   -0.86163  -0.82446  -0.79431  -0.78013  -0.77495
 Alpha  occ. eigenvalues --   -0.72086  -0.71210  -0.70488  -0.65027  -0.64851
 Alpha  occ. eigenvalues --   -0.64754  -0.62175  -0.60729  -0.59217  -0.57450
 Alpha  occ. eigenvalues --   -0.55288  -0.55076  -0.53117  -0.52945  -0.52473
 Alpha  occ. eigenvalues --   -0.52233  -0.49740  -0.48841  -0.48837  -0.47751
 Alpha  occ. eigenvalues --   -0.46427  -0.45568  -0.45462  -0.44846  -0.43630
 Alpha  occ. eigenvalues --   -0.37352  -0.36358
 Alpha virt. eigenvalues --    0.05008   0.11243   0.16476   0.20739   0.23143
 Alpha virt. eigenvalues --    0.24201   0.26506   0.26871   0.27693   0.27928
 Alpha virt. eigenvalues --    0.29109   0.30754   0.31578   0.32058   0.32434

 Mulliken charges:
               1
     1  C   -0.299424
     2  C   -0.298786
     3  C   -0.478575
     4  H    0.147647
     5  H    0.155559
     6  H    0.148228
     7  H    0.157023
     8  H    0.168090
     9  H    0.154550
    10  H    0.144364
    11  C   -0.298775
    12  C   -0.299853
    13  C   -0.475773
    14  H    0.147210
    15  H    0.152557
    16  H    0.150688
    17  H    0.154136
    18  H    0.156312
    19  H    0.153785
    20  H    0.159900
    21  C   -0.170437
    22  C   -0.218706
    23  C   -0.170713
    24  C    0.156980
    25  C   -0.173162
    26  C   -0.220412
    27  H    0.225680
    28  H    0.223478
    29  H    0.275490
    30  H    0.282560
    31  H    0.223691
    32  N    0.488046
    33  O   -0.461202
    34  O   -0.460154
 Sum of Mulliken charges =  -0.00000

 Dipole moment (field-independent basis, Debye):
    X=              2.2867    Y=             -3.8666    Z=              2.3995  Tot=              5.0929
 Quadrupole moment (field-independent basis, Debye-Ang):
   XX=            -81.6791   YY=            -96.9467   ZZ=            -94.2904
   XY=             -7.8182   XZ=              9.0237   YZ=              3.1614

 Normal termination of Gaussian 16 at Wed May  5 17:11:41 2021.
