 Gaussian 16, Revision A.03,
 Gaussian 16:  EM64L-G16RevA.03 25-Dec-2016

 -------------
 #p 6-31g* mp2
 -------------

 ------------------------------------------------------
 Input file generated by CHIRIPA (05-May-2021 14:55:24)
 ------------------------------------------------------
 Symbolic Z-matrix:
 Charge =  0 Multiplicity = 1

                         Standard orientation:
 ---------------------------------------------------------------------
 Center     Atomic      Atomic             Coordinates (Angstroms)
 Number     Number       Type             X           Y           Z
 ---------------------------------------------------------------------
      1          6           0        1.578690    2.838903    0.232063
      2          6           0        0.758170    1.885584   -0.379862
      3          6           0        1.215864    0.580291   -0.583021
      4          6           0        2.505273    0.261301   -0.159984
      5          6           0        3.346627    1.188727    0.452629
      6          6           0        2.868026    2.488050    0.645626
      7          1           0        1.215021    3.850567    0.385935
      8          1           0       -0.243590    2.155233   -0.702058
      9          1           0        0.601690   -0.177493   -1.054161
     10          1           0        4.340543    0.890132    0.763097
     11          1           0        3.507458    3.226340    1.121127
     12          7           0        3.000880   -1.117394   -0.369680
     13          8           0        4.140810   -1.373269    0.012061
     14          8           0        2.240023   -1.916036   -0.911811
     15          6           0       -3.566433   -0.238159   -0.306392
     16          6           0       -4.350352    0.868990    0.399070
     17          6           0       -5.274694    1.634525   -0.548212
     18          1           0       -2.975625    0.201854   -1.121425
     19          1           0       -4.273283   -0.937014   -0.774751
     20          1           0       -3.642255    1.564787    0.867129
     21          1           0       -4.939215    0.426316    1.212640
     22          1           0       -6.003468    0.957718   -1.005839
     23          1           0       -4.699138    2.102658   -1.353314
     24          1           0       -5.825366    2.421220   -0.023112
     25          6           0       -2.637961   -1.012470    0.627477
     26          6           0       -1.854041   -2.119619   -0.077985
     27          6           0       -0.929700   -2.885154    0.869297
     28          1           0       -1.931111   -0.313614    1.095835
     29          1           0       -3.228769   -1.452484    1.442510
     30          1           0       -1.265179   -1.676946   -0.891556
     31          1           0       -2.562139   -2.815416   -0.546045
     32          1           0       -1.505255   -3.353287    1.674398
     33          1           0       -0.200926   -2.208348    1.326924
     34          1           0       -0.379027   -3.671848    0.344196
 ---------------------------------------------------------------------

 SCF Done:  E(RHF) =  -669.535659506     A.U. after   15 cycles
 E2 =    -0.2092877164D+01 EUMP2 =    -0.67162853666949D+03

 The electronic state is 1-A.
 Alpha  occ. eigenvalues --  -20.60841 -20.60827 -15.85874 -11.31242 -11.27813
 Alpha  occ. eigenvalues --  -11.27799 -11.27556 -11.26834 -11.26823 -11.22064
 Alpha  occ. eigenvalues --  -11.21813 -11.21629 -11.21568 -11.21523 -11.20616
 Alpha  occ. eigenvalues --   -1.59900  -1.39453  -1.19418  -1.08812  -1.08713
 Alpha  occ. eigenvalues --   -1.04822  -1.03689  -0.96107  -0.95644  -0.87118
 Alpha  occ. eigenvalues --   -0.86219  -0.82477  -0.79779  -0.78504  -0.77528
 Alpha  occ. eigenvalues --   -0.72098  -0.71219  -0.70535  -0.65409  -0.65069
 Alpha  occ. eigenvalues --   -0.64824  -0.62209  -0.61039  -0.59499  -0.57696
 Alpha  occ. eigenvalues --   -0.55435  -0.55304  -0.53147  -0.52915  -0.52738
 Alpha  occ. eigenvalues --   -0.52518  -0.50078  -0.48857  -0.48845  -0.48063
 Alpha  occ. eigenvalues --   -0.46858  -0.46032  -0.45976  -0.44832  -0.43939
 Alpha  occ. eigenvalues --   -0.37397  -0.36414
 Alpha virt. eigenvalues --    0.04972   0.11170   0.16411   0.19058   0.22993
 Alpha virt. eigenvalues --    0.23596   0.25425   0.26631   0.27418   0.28253
 Alpha virt. eigenvalues --    0.29480   0.30840   0.31457   0.31757   0.32199

 Mulliken charges:
               1
     1  C   -0.170560
     2  C   -0.222829
     3  C   -0.176020
     4  C    0.156684
     5  C   -0.170123
     6  C   -0.218723
     7  H    0.226009
     8  H    0.224841
     9  H    0.286267
    10  H    0.275878
    11  H    0.223761
    12  N    0.487358
    13  O   -0.459758
    14  O   -0.460351
    15  C   -0.297132
    16  C   -0.299447
    17  C   -0.475337
    18  H    0.140613
    19  H    0.153257
    20  H    0.147287
    21  H    0.155021
    22  H    0.157808
    23  H    0.151924
    24  H    0.160928
    25  C   -0.301069
    26  C   -0.303584
    27  C   -0.472213
    28  H    0.146704
    29  H    0.152380
    30  H    0.147943
    31  H    0.154172
    32  H    0.151013
    33  H    0.153083
    34  H    0.174215
 Sum of Mulliken charges =  -0.00000

 Dipole moment (field-independent basis, Debye):
    X=             -1.7004    Y=              4.7015    Z=              0.7672  Tot=              5.0581
 Quadrupole moment (field-independent basis, Debye-Ang):
   XX=            -99.5176   YY=            -91.8976   ZZ=            -95.2161
   XY=             14.2086   XZ=              3.6970   YZ=              0.3342

 Normal termination of Gaussian 16 at Wed May  5 16:06:26 2021.
