 Gaussian 16, Revision A.03,
 Gaussian 16:  EM64L-G16RevA.03 25-Dec-2016

 -------------
 #p 6-31g* mp2
 -------------

 ------------------------------------------------------
 Input file generated by CHIRIPA (05-May-2021 14:55:23)
 ------------------------------------------------------
 Symbolic Z-matrix:
 Charge =  0 Multiplicity = 1

                         Standard orientation:
 ---------------------------------------------------------------------
 Center     Atomic      Atomic             Coordinates (Angstroms)
 Number     Number       Type             X           Y           Z
 ---------------------------------------------------------------------
      1          6           0       -2.705038   -1.948183   -1.648232
      2          6           0       -2.680986   -0.578760   -1.932178
      3          6           0       -2.467365    0.354038   -0.912962
      4          6           0       -2.280593   -0.119721    0.384712
      5          6           0       -2.299064   -1.477644    0.699344
      6          6           0       -2.514336   -2.392471   -0.335692
      7          1           0       -2.871626   -2.665823   -2.446128
      8          1           0       -2.828789   -0.230844   -2.950585
      9          1           0       -2.443898    1.419905   -1.104786
     10          1           0       -2.148580   -1.794152    1.724329
     11          1           0       -2.532508   -3.455384   -0.112241
     12          7           0       -2.053567    0.858278    1.472084
     13          8           0       -1.891678    0.415303    2.607074
     14          8           0       -2.041813    2.049290    1.168786
     15          6           0        2.398858    0.853124   -0.132719
     16          6           0        2.085369    1.747464   -1.332662
     17          6           0        0.946440    2.729483   -1.056481
     18          1           0        1.493874    0.297489    0.148742
     19          1           0        2.658506    1.484423    0.728349
     20          1           0        1.827735    1.114627   -2.191590
     21          1           0        2.991255    2.300891   -1.611419
     22          1           0        1.198060    3.384837   -0.216362
     23          1           0        0.027928    2.191834   -0.799830
     24          1           0        0.738999    3.358927   -1.927473
     25          6           0        3.535245   -0.134002   -0.393362
     26          6           0        3.848735   -1.028343    0.806582
     27          6           0        4.987663   -2.010361    0.530400
     28          1           0        3.275599   -0.765302   -1.254430
     29          1           0        4.440229    0.421632   -0.674822
     30          1           0        2.942849   -1.581769    1.085338
     31          1           0        4.106369   -0.395505    1.665510
     32          1           0        5.906175   -1.472712    0.273750
     33          1           0        4.736045   -2.665717   -0.309719
     34          1           0        5.195105   -2.639805    1.401393
 ---------------------------------------------------------------------

 SCF Done:  E(RHF) =  -669.535603729     A.U. after   15 cycles
 E2 =    -0.2092726573D+01 EUMP2 =    -0.67162833030145D+03

 The electronic state is 1-A.
 Alpha  occ. eigenvalues --  -20.60893 -20.60879 -15.85916 -11.31303 -11.27858
 Alpha  occ. eigenvalues --  -11.27849 -11.27595 -11.26872 -11.26862 -11.21432
 Alpha  occ. eigenvalues --  -11.21311 -11.21204 -11.21076 -11.20981 -11.20540
 Alpha  occ. eigenvalues --   -1.59949  -1.39504  -1.19468  -1.08858  -1.08193
 Alpha  occ. eigenvalues --   -1.04866  -1.03278  -0.95742  -0.95665  -0.86731
 Alpha  occ. eigenvalues --   -0.86262  -0.82520  -0.79342  -0.78003  -0.77563
 Alpha  occ. eigenvalues --   -0.72138  -0.71271  -0.70569  -0.65118  -0.64894
 Alpha  occ. eigenvalues --   -0.64804  -0.62226  -0.60677  -0.59100  -0.57323
 Alpha  occ. eigenvalues --   -0.55376  -0.55001  -0.53193  -0.52958  -0.52418
 Alpha  occ. eigenvalues --   -0.52118  -0.49678  -0.48899  -0.48887  -0.47648
 Alpha  occ. eigenvalues --   -0.46397  -0.45573  -0.45473  -0.44768  -0.43542
 Alpha  occ. eigenvalues --   -0.37437  -0.36456
 Alpha virt. eigenvalues --    0.04935   0.11075   0.16430   0.21244   0.23011
 Alpha virt. eigenvalues --    0.24449   0.26561   0.27051   0.27571   0.27875
 Alpha virt. eigenvalues --    0.28809   0.30579   0.31566   0.31961   0.32150

 Mulliken charges:
               1
     1  C   -0.170766
     2  C   -0.219108
     3  C   -0.172712
     4  C    0.159642
     5  C   -0.171509
     6  C   -0.218340
     7  H    0.226066
     8  H    0.224278
     9  H    0.277329
    10  H    0.276044
    11  H    0.223916
    12  N    0.488214
    13  O   -0.459129
    14  O   -0.458225
    15  C   -0.297131
    16  C   -0.299788
    17  C   -0.479874
    18  H    0.146696
    19  H    0.154323
    20  H    0.146106
    21  H    0.150876
    22  H    0.162690
    23  H    0.159550
    24  H    0.154081
    25  C   -0.297937
    26  C   -0.299232
    27  C   -0.475523
    28  H    0.146401
    29  H    0.149439
    30  H    0.150900
    31  H    0.154482
    32  H    0.155302
    33  H    0.152958
    34  H    0.159984
 Sum of Mulliken charges =  -0.00000

 Dipole moment (field-independent basis, Debye):
    X=             -0.9106    Y=             -3.4113    Z=             -3.7092  Tot=              5.1209
 Quadrupole moment (field-independent basis, Debye-Ang):
   XX=            -92.1736   YY=            -91.3995   ZZ=            -95.9105
   XY=              9.0276   XZ=              9.3615   YZ=             -3.1980

 Normal termination of Gaussian 16 at Wed May  5 16:04:22 2021.
