 Gaussian 16, Revision A.03,
 Gaussian 16:  EM64L-G16RevA.03 25-Dec-2016

 -------------
 #p 6-31g* mp2
 -------------

 ------------------------------------------------------
 Input file generated by CHIRIPA (05-May-2021 14:57:27)
 ------------------------------------------------------
 Symbolic Z-matrix:
 Charge =  0 Multiplicity = 1

                         Standard orientation:
 ---------------------------------------------------------------------
 Center     Atomic      Atomic             Coordinates (Angstroms)
 Number     Number       Type             X           Y           Z
 ---------------------------------------------------------------------
      1          6           0       -1.127818   -1.828235    0.863823
      2          6           0       -1.642185   -1.998571   -0.425725
      3          6           0       -2.671563   -1.176512   -0.893858
      4          6           0       -3.165242   -0.189700   -0.041935
      5          6           0       -2.673711    0.004789    1.247973
      6          6           0       -1.644312   -0.828861    1.695091
      7          1           0       -0.328165   -2.471332    1.219317
      8          1           0       -1.243004   -2.773876   -1.073491
      9          1           0       -3.088251   -1.286516   -1.887683
     10          1           0       -3.092021    0.786315    1.870591
     11          1           0       -1.246786   -0.694284    2.697042
     12          7           0       -4.255009    0.686713   -0.526403
     13          8           0       -4.672729    1.548782    0.243651
     14          8           0       -4.670813    0.494980   -1.667009
     15          6           0        2.317456    2.751818    0.234685
     16          6           0        3.493055    2.423213   -0.448331
     17          6           0        3.873094    1.087006   -0.605391
     18          6           0        3.050232    0.100411   -0.064265
     19          6           0        1.873031    0.395920    0.621420
     20          6           0        1.512616    1.738908    0.766442
     21          1           0        2.029855    3.792450    0.352017
     22          1           0        4.120045    3.207763   -0.862348
     23          1           0        4.777976    0.804475   -1.129587
     24          1           0        1.268463   -0.408175    1.023098
     25          1           0        0.599083    1.991157    1.297359
     26          7           0        3.442175   -1.317761   -0.224165
     27          8           0        2.699970   -2.168364    0.261883
     28          8           0        4.484164   -1.551868   -0.832516
 ---------------------------------------------------------------------

 SCF Done:  E(RHF) =  -868.338797967     A.U. after   16 cycles
 E2 =    -0.2601671094D+01 EUMP2 =    -0.87094046906146D+03

 The electronic state is 1-A.
 Alpha  occ. eigenvalues --  -20.61507 -20.61447 -20.61100 -20.61082 -15.86518
 Alpha  occ. eigenvalues --  -15.86149 -11.31613 -11.31535 -11.28190 -11.28153
 Alpha  occ. eigenvalues --  -11.28123 -11.28050 -11.27844 -11.27681 -11.27175
 Alpha  occ. eigenvalues --  -11.27111 -11.27101 -11.26952  -1.60542  -1.60171
 Alpha  occ. eigenvalues --   -1.40110  -1.39723  -1.19777  -1.19703  -1.09209
 Alpha  occ. eigenvalues --   -1.09080  -1.05163  -1.05084  -0.96108  -0.95888
 Alpha  occ. eigenvalues --   -0.86570  -0.86472  -0.82944  -0.82730  -0.78042
 Alpha  occ. eigenvalues --   -0.77793  -0.72765  -0.72362  -0.71852  -0.71498
 Alpha  occ. eigenvalues --   -0.70958  -0.70642  -0.65431  -0.65360  -0.65150
 Alpha  occ. eigenvalues --   -0.65045  -0.62565  -0.62403  -0.55676  -0.55460
 Alpha  occ. eigenvalues --   -0.53617  -0.53417  -0.53165  -0.53068  -0.49519
 Alpha  occ. eigenvalues --   -0.49460  -0.49122  -0.49116  -0.45573  -0.45125
 Alpha  occ. eigenvalues --   -0.37773  -0.37630  -0.36756  -0.36665
 Alpha virt. eigenvalues --    0.04440   0.04740   0.10781   0.10945   0.16041
 Alpha virt. eigenvalues --    0.16113   0.20293   0.21950   0.26300   0.27114
 Alpha virt. eigenvalues --    0.27790   0.29063   0.30431   0.31283   0.32029

 Mulliken charges:
               1
     1  C   -0.183295
     2  C   -0.218351
     3  C   -0.170375
     4  C    0.158775
     5  C   -0.173943
     6  C   -0.228992
     7  H    0.246527
     8  H    0.232640
     9  H    0.277585
    10  H    0.274205
    11  H    0.223094
    12  N    0.488013
    13  O   -0.461857
    14  O   -0.458451
    15  C   -0.169461
    16  C   -0.218960
    17  C   -0.169851
    18  C    0.156091
    19  C   -0.169266
    20  C   -0.221752
    21  H    0.228498
    22  H    0.225258
    23  H    0.276084
    24  H    0.273892
    25  H    0.223144
    26  N    0.490019
    27  O   -0.473167
    28  O   -0.456104
 Sum of Mulliken charges =  -0.00000

 Dipole moment (field-independent basis, Debye):
    X=              2.4668    Y=              1.8368    Z=              2.0748  Tot=              3.7100
 Quadrupole moment (field-independent basis, Debye-Ang):
   XX=           -135.0082   YY=           -101.4477   ZZ=           -100.8125
   XY=             26.2067   XZ=             -6.0937   YZ=              1.2214

 Normal termination of Gaussian 16 at Thu May  6 11:32:43 2021.
