 Gaussian 16, Revision A.03,
 Gaussian 16:  EM64L-G16RevA.03 25-Dec-2016

 -------------
 #p 6-31g* mp2
 -------------

 ------------------------------------------------------
 Input file generated by CHIRIPA (05-May-2021 14:57:24)
 ------------------------------------------------------
 Symbolic Z-matrix:
 Charge =  0 Multiplicity = 1

                         Standard orientation:
 ---------------------------------------------------------------------
 Center     Atomic      Atomic             Coordinates (Angstroms)
 Number     Number       Type             X           Y           Z
 ---------------------------------------------------------------------
      1          6           0       -1.303658   -2.177586    0.098044
      2          6           0       -1.407320   -1.327466   -1.007882
      3          6           0       -2.405353   -0.349884   -1.060880
      4          6           0       -3.286830   -0.249809    0.014422
      5          6           0       -3.209331   -1.081922    1.130160
      6          6           0       -2.203409   -2.052322    1.161660
      7          1           0       -0.525298   -2.934206    0.130864
      8          1           0       -0.709946   -1.422461   -1.835342
      9          1           0       -2.508353    0.321382   -1.904806
     10          1           0       -3.919095   -0.963127    1.939815
     11          1           0       -2.125289   -2.711160    2.021819
     12          7           0       -4.347579    0.781312   -0.030305
     13          8           0       -5.111846    0.849132    0.929869
     14          8           0       -4.394642    1.502161   -1.024689
     15          6           0        1.878251    2.616844    0.106859
     16          6           0        3.092736    2.455445    0.781766
     17          6           0        3.784983    1.242509    0.717523
     18          6           0        3.231280    0.207342   -0.034232
     19          6           0        2.023312    0.337305   -0.717760
     20          6           0        1.348350    1.559124   -0.639434
     21          1           0        1.347210    3.562531    0.162235
     22          1           0        3.506646    3.275158    1.362106
     23          1           0        4.727007    1.090345    1.230216
     24          1           0        1.635800   -0.498016   -1.288276
     25          1           0        0.405355    1.681615   -1.164602
     26          7           0        3.954982   -1.081439   -0.109697
     27          8           0        3.445983   -1.978064   -0.778743
     28          8           0        5.017515   -1.170560    0.501628
 ---------------------------------------------------------------------

 SCF Done:  E(RHF) =  -868.338083137     A.U. after   16 cycles
 E2 =    -0.2600695955D+01 EUMP2 =    -0.87093877909180D+03

 The electronic state is 1-A.
 Alpha  occ. eigenvalues --  -20.61385 -20.61344 -20.61265 -20.61247 -15.86414
 Alpha  occ. eigenvalues --  -15.86315 -11.31684 -11.31653 -11.28333 -11.28261
 Alpha  occ. eigenvalues --  -11.28216 -11.28161 -11.27886 -11.27846 -11.27315
 Alpha  occ. eigenvalues --  -11.27165 -11.27161 -11.27135  -1.60441  -1.60337
 Alpha  occ. eigenvalues --   -1.40001  -1.39890  -1.19858  -1.19793  -1.09218
 Alpha  occ. eigenvalues --   -1.09201  -1.05307  -1.05155  -0.96076  -0.96046
 Alpha  occ. eigenvalues --   -0.86688  -0.86554  -0.82958  -0.82856  -0.78074
 Alpha  occ. eigenvalues --   -0.77898  -0.72637  -0.72527  -0.71761  -0.71665
 Alpha  occ. eigenvalues --   -0.70926  -0.70859  -0.65514  -0.65473  -0.65356
 Alpha  occ. eigenvalues --   -0.65070  -0.62809  -0.62371  -0.55691  -0.55620
 Alpha  occ. eigenvalues --   -0.53683  -0.53470  -0.53381  -0.53165  -0.49406
 Alpha  occ. eigenvalues --   -0.49370  -0.49290  -0.49281  -0.45436  -0.45296
 Alpha  occ. eigenvalues --   -0.37838  -0.37720  -0.37087  -0.36523
 Alpha virt. eigenvalues --    0.04535   0.04550   0.10498   0.11057   0.15896
 Alpha virt. eigenvalues --    0.16167   0.19150   0.22109   0.25115   0.26307
 Alpha virt. eigenvalues --    0.28218   0.29498   0.30102   0.31039   0.31786

 Mulliken charges:
               1
     1  C   -0.170093
     2  C   -0.224378
     3  C   -0.176598
     4  C    0.158688
     5  C   -0.169891
     6  C   -0.218281
     7  H    0.237101
     8  H    0.222638
     9  H    0.272761
    10  H    0.277160
    11  H    0.227320
    12  N    0.487917
    13  O   -0.458373
    14  O   -0.462307
    15  C   -0.170797
    16  C   -0.218332
    17  C   -0.170804
    18  C    0.158235
    19  C   -0.170949
    20  C   -0.216073
    21  H    0.230022
    22  H    0.225608
    23  H    0.276325
    24  H    0.265865
    25  H    0.223185
    26  N    0.488295
    27  O   -0.466826
    28  O   -0.457417
 Sum of Mulliken charges =  -0.00000

 Dipole moment (field-independent basis, Debye):
    X=              1.1552    Y=              0.8993    Z=              0.6622  Tot=              1.6068
 Quadrupole moment (field-independent basis, Debye-Ang):
   XX=           -143.5612   YY=           -100.4221   ZZ=            -99.8764
   XY=             27.9557   XZ=              1.1722   YZ=             -0.6146

 Normal termination of Gaussian 16 at Fri May  7 12:35:17 2021.
