 Gaussian 16, Revision A.03,
 Gaussian 16:  EM64L-G16RevA.03 25-Dec-2016

 -------------
 #p 6-31g* mp2
 -------------

 ------------------------------------------------------
 Input file generated by CHIRIPA (05-May-2021 14:57:26)
 ------------------------------------------------------
 Symbolic Z-matrix:
 Charge =  0 Multiplicity = 1

                         Standard orientation:
 ---------------------------------------------------------------------
 Center     Atomic      Atomic             Coordinates (Angstroms)
 Number     Number       Type             X           Y           Z
 ---------------------------------------------------------------------
      1          6           0       -3.415872   -2.026854    0.834671
      2          6           0       -2.141036   -1.900822    0.273040
      3          6           0       -1.712618   -0.676275   -0.248007
      4          6           0       -2.588823    0.406439   -0.190688
      5          6           0       -3.864953    0.312519    0.362451
      6          6           0       -4.272252   -0.921730    0.877508
      7          1           0       -3.740475   -2.981880    1.237107
      8          1           0       -1.473835   -2.757379    0.238418
      9          1           0       -0.730958   -0.550778   -0.688475
     10          1           0       -4.507663    1.184260    0.382696
     11          1           0       -5.262860   -1.016681    1.313083
     12          7           0       -2.146454    1.707948   -0.739126
     13          8           0       -2.937293    2.646723   -0.676582
     14          8           0       -1.017263    1.764651   -1.221152
     15          6           0        3.071645    1.875610    1.487076
     16          6           0        3.230238    1.921576    0.098099
     17          6           0        3.005808    0.782120   -0.680245
     18          6           0        2.622101   -0.391818   -0.033771
     19          6           0        2.455775   -0.469327    1.348119
     20          6           0        2.685600    0.682409    2.106561
     21          1           0        3.248083    2.765536    2.083982
     22          1           0        3.529959    2.846856   -0.385708
     23          1           0        3.121246    0.789725   -1.757293
     24          1           0        2.156100   -1.406192    1.801879
     25          1           0        2.561666    0.643777    3.185075
     26          7           0        2.381651   -1.604608   -0.847234
     27          8           0        2.044361   -2.626608   -0.253608
     28          8           0        2.535030   -1.510231   -2.063048
 ---------------------------------------------------------------------

 SCF Done:  E(RHF) =  -868.339620441     A.U. after   16 cycles
 E2 =    -0.2599916200D+01 EUMP2 =    -0.87093953664130D+03

 The electronic state is 1-A.
 Alpha  occ. eigenvalues --  -20.61130 -20.61062 -20.60688 -20.60680 -15.86123
 Alpha  occ. eigenvalues --  -15.85730 -11.31131 -11.30946 -11.27733 -11.27601
 Alpha  occ. eigenvalues --  -11.27514 -11.27439 -11.27330 -11.27179 -11.26639
 Alpha  occ. eigenvalues --  -11.26515 -11.26513 -11.26335  -1.60187  -1.59763
 Alpha  occ. eigenvalues --   -1.39740  -1.39319  -1.19271  -1.19091  -1.08740
 Alpha  occ. eigenvalues --   -1.08515  -1.04609  -1.04453  -0.95628  -0.95380
 Alpha  occ. eigenvalues --   -0.86037  -0.85861  -0.82468  -0.82200  -0.77560
 Alpha  occ. eigenvalues --   -0.77270  -0.72340  -0.71966  -0.71536  -0.71079
 Alpha  occ. eigenvalues --   -0.70380  -0.70190  -0.64926  -0.64734  -0.64617
 Alpha  occ. eigenvalues --   -0.64428  -0.61973  -0.61787  -0.55135  -0.54972
 Alpha  occ. eigenvalues --   -0.52973  -0.52809  -0.52707  -0.52500  -0.49120
 Alpha  occ. eigenvalues --   -0.49066  -0.48717  -0.48700  -0.45209  -0.44756
 Alpha  occ. eigenvalues --   -0.37234  -0.37074  -0.36199  -0.36012
 Alpha virt. eigenvalues --    0.04905   0.05237   0.11412   0.11652   0.16480
 Alpha virt. eigenvalues --    0.16771   0.21482   0.21774   0.27119   0.27545
 Alpha virt. eigenvalues --    0.28377   0.28531   0.31179   0.31378   0.32268

 Mulliken charges:
               1
     1  C   -0.171509
     2  C   -0.222920
     3  C   -0.171617
     4  C    0.157356
     5  C   -0.172196
     6  C   -0.218876
     7  H    0.225767
     8  H    0.237350
     9  H    0.275178
    10  H    0.273712
    11  H    0.221990
    12  N    0.487942
    13  O   -0.462418
    14  O   -0.462393
    15  C   -0.168209
    16  C   -0.213436
    17  C   -0.162249
    18  C    0.151012
    19  C   -0.173597
    20  C   -0.218133
    21  H    0.226984
    22  H    0.227159
    23  H    0.278301
    24  H    0.270871
    25  H    0.222261
    26  N    0.486588
    27  O   -0.469827
    28  O   -0.455092
 Sum of Mulliken charges =  -0.00000

 Dipole moment (field-independent basis, Debye):
    X=             -0.5147    Y=             -0.1573    Z=              4.7152  Tot=              4.7458
 Quadrupole moment (field-independent basis, Debye-Ang):
   XX=            -88.9855   YY=           -110.5756   ZZ=           -102.9044
   XY=             21.9936   XZ=              0.2111   YZ=             -1.3721

 Normal termination of Gaussian 16 at Wed May  5 18:02:20 2021.
