 Gaussian 16, Revision A.03,
 Gaussian 16:  EM64L-G16RevA.03 25-Dec-2016

 -------------
 #p 6-31g* mp2
 -------------

 ------------------------------------------------------
 Input file generated by CHIRIPA (05-May-2021 14:55:24)
 ------------------------------------------------------
 Symbolic Z-matrix:
 Charge =  0 Multiplicity = 1

                         Standard orientation:
 ---------------------------------------------------------------------
 Center     Atomic      Atomic             Coordinates (Angstroms)
 Number     Number       Type             X           Y           Z
 ---------------------------------------------------------------------
      1          6           0       -2.726263   -2.050595   -1.363858
      2          6           0       -1.485557   -1.406252   -1.319202
      3          6           0       -1.360820   -0.146201   -0.726530
      4          6           0       -2.502600    0.443104   -0.185839
      5          6           0       -3.752534   -0.173434   -0.214785
      6          6           0       -3.853803   -1.433217   -0.812479
      7          1           0       -2.814047   -3.029329   -1.826210
      8          1           0       -0.608195   -1.883329   -1.746609
      9          1           0       -0.412474    0.375071   -0.678244
     10          1           0       -4.609217    0.327287    0.219716
     11          1           0       -4.818627   -1.931269   -0.845721
     12          7           0       -2.382969    1.776922    0.444255
     13          8           0       -3.404004    2.274871    0.913479
     14          8           0       -1.270432    2.299164    0.456967
     15          6           0        3.806852    0.177246    0.184752
     16          6           0        4.062504    0.253280   -1.320853
     17          6           0        5.222408    1.183536   -1.677279
     18          1           0        3.600027    1.186408    0.566537
     19          1           0        4.721345   -0.166001    0.688021
     20          1           0        3.147377    0.594956   -1.821271
     21          1           0        4.268555   -0.756206   -1.699131
     22          1           0        6.149079    0.842430   -1.204491
     23          1           0        5.021530    2.201269   -1.327324
     24          1           0        5.387740    1.222991   -2.758467
     25          6           0        2.650279   -0.748830    0.556843
     26          6           0        2.394628   -0.824864    2.062448
     27          6           0        1.234723   -1.755120    2.418873
     28          1           0        1.735787   -0.405584    0.053574
     29          1           0        2.857105   -1.757992    0.175058
     30          1           0        2.188576    0.184622    2.440726
     31          1           0        3.309754   -1.166540    2.562866
     32          1           0        1.435602   -2.772853    2.068920
     33          1           0        0.308052   -1.414014    1.946085
     34          1           0        1.069392   -1.794574    3.500063
 ---------------------------------------------------------------------

 SCF Done:  E(RHF) =  -669.535641910     A.U. after   15 cycles
 E2 =    -0.2092220024D+01 EUMP2 =    -0.67162786193426D+03

 The electronic state is 1-A.
 Alpha  occ. eigenvalues --  -20.60814 -20.60807 -15.85866 -11.31229 -11.27786
 Alpha  occ. eigenvalues --  -11.27783 -11.27519 -11.26807 -11.26795 -11.21825
 Alpha  occ. eigenvalues --  -11.21764 -11.21665 -11.21519 -11.21166 -11.21156
 Alpha  occ. eigenvalues --   -1.59888  -1.39441  -1.19398  -1.08789  -1.08631
 Alpha  occ. eigenvalues --   -1.04799  -1.03669  -0.96127  -0.95628  -0.87142
 Alpha  occ. eigenvalues --   -0.86194  -0.82459  -0.79740  -0.78493  -0.77499
 Alpha  occ. eigenvalues --   -0.72085  -0.71210  -0.70511  -0.65302  -0.65042
 Alpha  occ. eigenvalues --   -0.64766  -0.62159  -0.61043  -0.59495  -0.57745
 Alpha  occ. eigenvalues --   -0.55439  -0.55275  -0.53132  -0.52900  -0.52795
 Alpha  occ. eigenvalues --   -0.52541  -0.50062  -0.48842  -0.48840  -0.48056
 Alpha  occ. eigenvalues --   -0.46762  -0.46008  -0.45914  -0.44846  -0.43951
 Alpha  occ. eigenvalues --   -0.37370  -0.36374
 Alpha virt. eigenvalues --    0.04991   0.11209   0.16477   0.19909   0.22893
 Alpha virt. eigenvalues --    0.24182   0.25012   0.26794   0.27754   0.27952
 Alpha virt. eigenvalues --    0.29888   0.31024   0.31223   0.31762   0.31921

 Mulliken charges:
               1
     1  C   -0.170807
     2  C   -0.219433
     3  C   -0.177615
     4  C    0.159713
     5  C   -0.170707
     6  C   -0.218281
     7  H    0.225941
     8  H    0.225301
     9  H    0.281983
    10  H    0.275737
    11  H    0.223729
    12  N    0.487855
    13  O   -0.459981
    14  O   -0.461005
    15  C   -0.299055
    16  C   -0.299393
    17  C   -0.476043
    18  H    0.156680
    19  H    0.150812
    20  H    0.148525
    21  H    0.149524
    22  H    0.155637
    23  H    0.158735
    24  H    0.160070
    25  C   -0.300692
    26  C   -0.300497
    27  C   -0.478216
    28  H    0.141698
    29  H    0.146711
    30  H    0.160377
    31  H    0.152495
    32  H    0.151293
    33  H    0.156186
    34  H    0.162721
 Sum of Mulliken charges =  -0.00000

 Dipole moment (field-independent basis, Debye):
    X=             -0.3895    Y=             -4.6248    Z=             -2.1537  Tot=              5.1165
 Quadrupole moment (field-independent basis, Debye-Ang):
   XX=            -87.6000   YY=            -99.4398   ZZ=            -94.5045
   XY=             11.1526   XZ=              5.1483   YZ=              0.2668

 Normal termination of Gaussian 16 at Thu May  6 19:19:04 2021.
