 Gaussian 16, Revision A.03,
 Gaussian 16:  EM64L-G16RevA.03 25-Dec-2016

 -------------
 #p 6-31g* mp2
 -------------

 ------------------------------------------------------
 Input file generated by CHIRIPA (05-May-2021 14:51:09)
 ------------------------------------------------------
 Symbolic Z-matrix:
 Charge =  0 Multiplicity = 1

                         Standard orientation:
 ---------------------------------------------------------------------
 Center     Atomic      Atomic             Coordinates (Angstroms)
 Number     Number       Type             X           Y           Z
 ---------------------------------------------------------------------
      1          6           0       -3.238959   -0.264768   -0.485750
      2          6           0       -2.362585   -1.516876   -0.439085
      3          6           0       -3.013846   -2.720051   -1.121744
      4          1           0       -4.203580   -0.482054   -0.006961
      5          1           0       -3.458679   -0.018329   -1.533789
      6          1           0       -2.143438   -1.760080    0.608504
      7          1           0       -1.399866   -1.296527   -0.917870
      8          1           0       -3.217415   -2.501773   -2.175080
      9          1           0       -3.965211   -2.967960   -0.640032
     10          1           0       -2.370255   -3.604145   -1.076715
     11          6           0       -2.601497    0.946493    0.192643
     12          6           0       -3.477871    2.198601    0.145977
     13          6           0       -2.826610    3.401775    0.828637
     14          1           0       -2.381776    0.700054    1.240682
     15          1           0       -1.636876    1.163779   -0.286146
     16          1           0       -4.440589    1.978252    0.624763
     17          1           0       -3.697018    2.441805   -0.901612
     18          1           0       -1.875244    3.649684    0.346925
     19          1           0       -2.623041    3.183498    1.881973
     20          1           0       -3.470201    4.285870    0.783608
     21          6           0        3.375604    0.258193    0.277691
     22          6           0        3.832880    0.963360   -0.999660
     23          6           0        4.743246    2.159744   -0.720927
     24          1           0        2.850119    0.979088    0.918878
     25          1           0        4.258595   -0.075029    0.840438
     26          1           0        2.949261    1.293932   -1.560512
     27          1           0        4.357170    0.240655   -1.637965
     28          1           0        5.641994    1.842661   -0.182123
     29          1           0        4.226087    2.901923   -0.104229
     30          1           0        5.058302    2.649037   -1.647854
     31          6           0        2.464851   -0.939917    0.015417
     32          6           0        2.007576   -1.645084    1.292767
     33          6           0        1.097209   -2.841468    1.014034
     34          1           0        1.581860   -0.606696   -0.547331
     35          1           0        2.990337   -1.660813   -0.625770
     36          1           0        1.483286   -0.922379    1.931072
     37          1           0        2.891195   -1.975658    1.853619
     38          1           0        1.614369   -3.583648    0.397336
     39          1           0        0.198461   -2.524385    0.475230
     40          1           0        0.782154   -3.330762    1.940961
 ---------------------------------------------------------------------

 SCF Done:  E(RHF) =  -470.732818553     A.U. after   11 cycles
 E2 =    -0.1583453396D+01 EUMP2 =    -0.47231627194885D+03

 The electronic state is 1-A.
 Alpha  occ. eigenvalues --  -11.21670 -11.21656 -11.21597 -11.21532 -11.21472
 Alpha  occ. eigenvalues --  -11.21412 -11.21381 -11.21322 -11.21120 -11.21112
 Alpha  occ. eigenvalues --  -11.21066 -11.20889  -1.08504  -1.08392  -1.03610
 Alpha  occ. eigenvalues --   -1.03468  -0.96045  -0.95921  -0.87056  -0.86945
 Alpha  occ. eigenvalues --   -0.79747  -0.79490  -0.78357  -0.78174  -0.65134
 Alpha  occ. eigenvalues --   -0.65022  -0.60989  -0.60913  -0.59428  -0.59286
 Alpha  occ. eigenvalues --   -0.57742  -0.57470  -0.55319  -0.55204  -0.52731
 Alpha  occ. eigenvalues --   -0.52621  -0.52458  -0.52351  -0.49982  -0.49907
 Alpha  occ. eigenvalues --   -0.48120  -0.47740  -0.46702  -0.46601  -0.45985
 Alpha  occ. eigenvalues --   -0.45771  -0.45720  -0.45426  -0.43839  -0.43742
 Alpha virt. eigenvalues --    0.20956   0.23348   0.23442   0.24744   0.25186
 Alpha virt. eigenvalues --    0.26500   0.26925   0.27587   0.28659   0.29251
 Alpha virt. eigenvalues --    0.30644   0.30920   0.31660   0.31851   0.32024

 Mulliken charges:
               1
     1  C   -0.296871
     2  C   -0.306268
     3  C   -0.476948
     4  H    0.150032
     5  H    0.149694
     6  H    0.154872
     7  H    0.153735
     8  H    0.155449
     9  H    0.155621
    10  H    0.162028
    11  C   -0.298646
    12  C   -0.299673
    13  C   -0.475744
    14  H    0.149571
    15  H    0.148930
    16  H    0.152240
    17  H    0.152130
    18  H    0.155006
    19  H    0.155226
    20  H    0.160547
    21  C   -0.298348
    22  C   -0.299513
    23  C   -0.475705
    24  H    0.149875
    25  H    0.149630
    26  H    0.151331
    27  H    0.151924
    28  H    0.155253
    29  H    0.155226
    30  H    0.160142
    31  C   -0.299771
    32  C   -0.298631
    33  C   -0.486685
    34  H    0.149891
    35  H    0.149529
    36  H    0.151687
    37  H    0.151459
    38  H    0.153807
    39  H    0.169279
    40  H    0.158692
 Sum of Mulliken charges =  -0.00000

 Dipole moment (field-independent basis, Debye):
    X=             -0.0661    Y=              0.0042    Z=             -0.0110  Tot=              0.0672
 Quadrupole moment (field-independent basis, Debye-Ang):
   XX=            -84.4395   YY=            -86.1007   ZZ=            -84.2379
   XY=             -1.1888   XZ=             -0.6369   YZ=             -0.6095

 Normal termination of Gaussian 16 at Thu May  6 00:34:21 2021.
