 Gaussian 16, Revision A.03,
 Gaussian 16:  EM64L-G16RevA.03 25-Dec-2016

 -------------
 #p 6-31g* mp2
 -------------

 ------------------------------------------------------
 Input file generated by CHIRIPA (05-May-2021 14:57:23)
 ------------------------------------------------------
 Symbolic Z-matrix:
 Charge =  0 Multiplicity = 1

                         Standard orientation:
 ---------------------------------------------------------------------
 Center     Atomic      Atomic             Coordinates (Angstroms)
 Number     Number       Type             X           Y           Z
 ---------------------------------------------------------------------
      1          6           0       -3.342977   -2.278883   -0.483900
      2          6           0       -2.047931   -1.752185   -0.528259
      3          6           0       -1.835396   -0.377439   -0.388795
      4          6           0       -2.945744    0.445278   -0.205615
      5          6           0       -4.248176   -0.049290   -0.157001
      6          6           0       -4.437037   -1.427256   -0.298739
      7          1           0       -3.498884   -3.348069   -0.593123
      8          1           0       -1.196391   -2.411186   -0.671937
      9          1           0       -0.843533    0.056955   -0.419238
     10          1           0       -5.077241    0.632759   -0.012509
     11          1           0       -5.443910   -1.833504   -0.263881
     12          7           0       -2.733274    1.902364   -0.056766
     13          8           0       -3.728201    2.605967    0.103546
     14          8           0       -1.575836    2.313235   -0.103230
     15          6           0        1.339167   -1.088967    1.930125
     16          6           0        1.572738   -1.798788    0.747704
     17          6           0        2.480122   -1.318532   -0.201272
     18          6           0        3.139465   -0.119686    0.065799
     19          6           0        2.928262    0.610457    1.234376
     20          6           0        2.016480    0.111274    2.169266
     21          1           0        0.632580   -1.469393    2.661841
     22          1           0        1.048158   -2.731190    0.559319
     23          1           0        2.679924   -1.847817   -1.125044
     24          1           0        3.466276    1.536983    1.394091
     25          1           0        1.837075    0.664651    3.086671
     26          7           0        4.102400    0.398758   -0.931383
     27          8           0        4.670543    1.457423   -0.672389
     28          8           0        4.270771   -0.263367   -1.953086
 ---------------------------------------------------------------------

 SCF Done:  E(RHF) =  -868.337109744     A.U. after   16 cycles
 E2 =    -0.2601436257D+01 EUMP2 =    -0.87093854600111D+03

 The electronic state is 1-A.
 Alpha  occ. eigenvalues --  -20.61078 -20.61073 -20.60951 -20.60929 -15.86135
 Alpha  occ. eigenvalues --  -15.86006 -11.31555 -11.31535 -11.28235 -11.28161
 Alpha  occ. eigenvalues --  -11.28105 -11.28066 -11.27958 -11.27927 -11.27322
 Alpha  occ. eigenvalues --  -11.27230 -11.27172 -11.27071  -1.60156  -1.60014
 Alpha  occ. eigenvalues --   -1.39705  -1.39563  -1.19781  -1.19736  -1.09158
 Alpha  occ. eigenvalues --   -1.09106  -1.05240  -1.05120  -0.95968  -0.95901
 Alpha  occ. eigenvalues --   -0.86622  -0.86524  -0.82819  -0.82719  -0.77874
 Alpha  occ. eigenvalues --   -0.77714  -0.72350  -0.72221  -0.71485  -0.71338
 Alpha  occ. eigenvalues --   -0.70867  -0.70822  -0.65462  -0.65396  -0.65389
 Alpha  occ. eigenvalues --   -0.64987  -0.62662  -0.62367  -0.55716  -0.55640
 Alpha  occ. eigenvalues --   -0.53629  -0.53493  -0.53322  -0.53063  -0.49118
 Alpha  occ. eigenvalues --   -0.49098  -0.48993  -0.48963  -0.45097  -0.44933
 Alpha  occ. eigenvalues --   -0.37820  -0.37771  -0.36861  -0.36616
 Alpha virt. eigenvalues --    0.04591   0.04893   0.10722   0.10888   0.16084
 Alpha virt. eigenvalues --    0.16217   0.19596   0.21858   0.25193   0.27825
 Alpha virt. eigenvalues --    0.28013   0.28274   0.29679   0.31628   0.32083

 Mulliken charges:
               1
     1  C   -0.171020
     2  C   -0.222765
     3  C   -0.173000
     4  C    0.157460
     5  C   -0.170180
     6  C   -0.219159
     7  H    0.225335
     8  H    0.216198
     9  H    0.282004
    10  H    0.276719
    11  H    0.224494
    12  N    0.487787
    13  O   -0.459844
    14  O   -0.459107
    15  C   -0.171043
    16  C   -0.227979
    17  C   -0.174608
    18  C    0.159357
    19  C   -0.165366
    20  C   -0.215499
    21  H    0.227972
    22  H    0.216801
    23  H    0.275331
    24  H    0.280324
    25  H    0.228728
    26  N    0.488499
    27  O   -0.456399
    28  O   -0.461040
 Sum of Mulliken charges =  -0.00000

 Dipole moment (field-independent basis, Debye):
    X=             -3.9757    Y=             -6.6601    Z=              3.1206  Tot=              8.3607
 Quadrupole moment (field-independent basis, Debye-Ang):
   XX=           -116.6037   YY=           -106.9852   ZZ=           -103.3298
   XY=             10.0155   XZ=             12.9543   YZ=              3.1205

 Normal termination of Gaussian 16 at Fri May  7 11:01:34 2021.
