 Gaussian 16, Revision A.03,
 Gaussian 16:  EM64L-G16RevA.03 25-Dec-2016

 -------------
 #p 6-31g* mp2
 -------------

 ------------------------------------------------------
 Input file generated by CHIRIPA (05-May-2021 14:51:12)
 ------------------------------------------------------
 Symbolic Z-matrix:
 Charge =  0 Multiplicity = 1

                         Standard orientation:
 ---------------------------------------------------------------------
 Center     Atomic      Atomic             Coordinates (Angstroms)
 Number     Number       Type             X           Y           Z
 ---------------------------------------------------------------------
      1          6           0       -2.905175    0.074041   -0.355259
      2          6           0       -4.312469    0.671694   -0.373078
      3          6           0       -4.593908    1.483702   -1.637684
      4          1           0       -2.168488    0.884199   -0.444046
      5          1           0       -2.774680   -0.565361   -1.239301
      6          1           0       -4.440745    1.308682    0.511460
      7          1           0       -5.045887   -0.139964   -0.284045
      8          1           0       -4.493331    0.855905   -2.528951
      9          1           0       -3.884751    2.312782   -1.728926
     10          1           0       -5.605357    1.901749   -1.629553
     11          6           0       -2.608812   -0.740531    0.902664
     12          6           0       -1.201517   -1.338184    0.920482
     13          6           0       -0.920079   -2.150192    2.185089
     14          1           0       -2.739307   -0.101129    1.786706
     15          1           0       -3.345498   -1.550688    0.991451
     16          1           0       -0.468100   -0.526526    0.831450
     17          1           0       -1.073241   -1.975172    0.035944
     18          1           0       -1.629235   -2.979271    2.276330
     19          1           0       -1.020655   -1.522395    3.076356
     20          1           0        0.091371   -2.568238    2.176957
     21          6           0        2.588610    0.809321    0.299386
     22          6           0        2.932081    2.268195   -0.003435
     23          6           0        2.589430    3.208411    1.152584
     24          1           0        1.517619    0.732022    0.531652
     25          1           0        3.128019    0.492835    1.202862
     26          1           0        2.393260    2.581418   -0.906860
     27          1           0        4.002341    2.342000   -0.235194
     28          1           0        3.137814    2.923569    2.056321
     29          1           0        1.519590    3.164347    1.380839
     30          1           0        2.843120    4.246164    0.914740
     31          6           0        2.925377   -0.142832   -0.846790
     32          6           0        2.581905   -1.601706   -0.543969
     33          6           0        2.924557   -2.541921   -1.699988
     34          1           0        2.385968    0.173655   -1.750266
     35          1           0        3.996368   -0.065533   -1.079057
     36          1           0        1.511645   -1.675511   -0.312210
     37          1           0        3.120727   -1.914928    0.359456
     38          1           0        3.994397   -2.497857   -1.928244
     39          1           0        2.376173   -2.257080   -2.603726
     40          1           0        2.670867   -3.579675   -1.462145
 ---------------------------------------------------------------------

 SCF Done:  E(RHF) =  -470.732634235     A.U. after   11 cycles
 E2 =    -0.1584194834D+01 EUMP2 =    -0.47231682906920D+03

 The electronic state is 1-A.
 Alpha  occ. eigenvalues --  -11.21644 -11.21641 -11.21613 -11.21495 -11.21458
 Alpha  occ. eigenvalues --  -11.21397 -11.21391 -11.21326 -11.21107 -11.21098
 Alpha  occ. eigenvalues --  -11.21085 -11.21032  -1.08500  -1.08401  -1.03591
 Alpha  occ. eigenvalues --   -1.03498  -0.96018  -0.95969  -0.87033  -0.86983
 Alpha  occ. eigenvalues --   -0.79714  -0.79545  -0.78434  -0.78096  -0.65201
 Alpha  occ. eigenvalues --   -0.64983  -0.61002  -0.60904  -0.59463  -0.59262
 Alpha  occ. eigenvalues --   -0.57647  -0.57563  -0.55331  -0.55236  -0.52719
 Alpha  occ. eigenvalues --   -0.52649  -0.52456  -0.52382  -0.49997  -0.49885
 Alpha  occ. eigenvalues --   -0.48083  -0.47879  -0.46831  -0.46573  -0.46172
 Alpha  occ. eigenvalues --   -0.45747  -0.45726  -0.45130  -0.43818  -0.43762
 Alpha virt. eigenvalues --    0.21075   0.23174   0.23587   0.24321   0.25543
 Alpha virt. eigenvalues --    0.26609   0.26809   0.27661   0.28082   0.29582
 Alpha virt. eigenvalues --    0.30394   0.31236   0.31664   0.31844   0.32256

 Mulliken charges:
               1
     1  C   -0.298375
     2  C   -0.299672
     3  C   -0.475750
     4  H    0.148602
     5  H    0.149532
     6  H    0.152088
     7  H    0.152198
     8  H    0.155213
     9  H    0.155128
    10  H    0.160474
    11  C   -0.296783
    12  C   -0.310750
    13  C   -0.476771
    14  H    0.149590
    15  H    0.149904
    16  H    0.160193
    17  H    0.152105
    18  H    0.155258
    19  H    0.155337
    20  H    0.162409
    21  C   -0.306047
    22  C   -0.299097
    23  C   -0.475566
    24  H    0.155985
    25  H    0.149558
    26  H    0.151816
    27  H    0.152201
    28  H    0.155365
    29  H    0.154309
    30  H    0.160388
    31  C   -0.297347
    32  C   -0.310467
    33  C   -0.475257
    34  H    0.149233
    35  H    0.149480
    36  H    0.165267
    37  H    0.150764
    38  H    0.154911
    39  H    0.154841
    40  H    0.159734
 Sum of Mulliken charges =  -0.00000

 Dipole moment (field-independent basis, Debye):
    X=             -0.0311    Y=             -0.0065    Z=              0.0155  Tot=              0.0353
 Quadrupole moment (field-independent basis, Debye-Ang):
   XX=            -84.0236   YY=            -85.1196   ZZ=            -85.7180
   XY=              0.5973   XZ=              0.4119   YZ=              0.2311

 Normal termination of Gaussian 16 at Wed May  5 21:31:18 2021.
