 Gaussian 16, Revision A.03,
 Gaussian 16:  EM64L-G16RevA.03 25-Dec-2016

 -------------
 #p 6-31g* mp2
 -------------

 ------------------------------------------------------
 Input file generated by CHIRIPA (05-May-2021 14:57:21)
 ------------------------------------------------------
 Symbolic Z-matrix:
 Charge =  0 Multiplicity = 1

                         Standard orientation:
 ---------------------------------------------------------------------
 Center     Atomic      Atomic             Coordinates (Angstroms)
 Number     Number       Type             X           Y           Z
 ---------------------------------------------------------------------
      1          6           0       -3.492054   -2.344763   -0.690043
      2          6           0       -4.592900   -1.543735   -0.369086
      3          6           0       -4.428863   -0.177524   -0.121891
      4          6           0       -3.144064    0.357015   -0.204667
      5          6           0       -2.027539   -0.414908   -0.522150
      6          6           0       -2.215138   -1.778790   -0.765418
      7          1           0       -3.628634   -3.405164   -0.880545
      8          1           0       -5.585733   -1.980562   -0.309839
      9          1           0       -5.263696    0.465689    0.128608
     10          1           0       -1.050089    0.049150   -0.573727
     11          1           0       -1.358382   -2.398459   -1.014465
     12          7           0       -2.957933    1.802129    0.054948
     13          8           0       -1.815678    2.248906   -0.024296
     14          8           0       -3.957824    2.460669    0.332763
     15          6           0        5.028897    0.737189   -1.234179
     16          6           0        4.111655    1.631836   -0.673114
     17          6           0        3.080303    1.168741    0.149323
     18          6           0        2.995488   -0.201600    0.390694
     19          6           0        3.893940   -1.117985   -0.153652
     20          6           0        4.917309   -0.632452   -0.973117
     21          1           0        5.826975    1.105647   -1.871913
     22          1           0        4.195878    2.696048   -0.874126
     23          1           0        2.356601    1.839267    0.596612
     24          1           0        3.784290   -2.173255    0.064980
     25          1           0        5.628225   -1.329563   -1.407492
     26          7           0        1.907867   -0.703735    1.259799
     27          8           0        1.854836   -1.915727    1.457034
     28          8           0        1.129017    0.124190    1.727310
 ---------------------------------------------------------------------

 SCF Done:  E(RHF) =  -868.338787662     A.U. after   16 cycles
 E2 =    -0.2599277801D+01 EUMP2 =    -0.87093806546349D+03

 The electronic state is 1-A.
 Alpha  occ. eigenvalues --  -20.61092 -20.61034 -20.60095 -20.60077 -15.86085
 Alpha  occ. eigenvalues --  -15.85140 -11.31314 -11.30395 -11.27916 -11.27786
 Alpha  occ. eigenvalues --  -11.27594 -11.27010 -11.26925 -11.26885 -11.26796
 Alpha  occ. eigenvalues --  -11.26735 -11.26018 -11.25932  -1.60147  -1.59159
 Alpha  occ. eigenvalues --   -1.39693  -1.38716  -1.19481  -1.18571  -1.08908
 Alpha  occ. eigenvalues --   -1.07995  -1.04848  -1.03965  -0.95756  -0.94847
 Alpha  occ. eigenvalues --   -0.86254  -0.85373  -0.82576  -0.81688  -0.77641
 Alpha  occ. eigenvalues --   -0.76736  -0.72290  -0.71508  -0.71363  -0.70571
 Alpha  occ. eigenvalues --   -0.70466  -0.69702  -0.65124  -0.64840  -0.64239
 Alpha  occ. eigenvalues --   -0.63985  -0.62179  -0.61319  -0.55360  -0.54505
 Alpha  occ. eigenvalues --   -0.53207  -0.52925  -0.52289  -0.52075  -0.49073
 Alpha  occ. eigenvalues --   -0.49047  -0.48124  -0.48118  -0.45110  -0.44142
 Alpha  occ. eigenvalues --   -0.37474  -0.36559  -0.36448  -0.35540
 Alpha virt. eigenvalues --    0.04835   0.05813   0.11192   0.12110   0.16347
 Alpha virt. eigenvalues --    0.17306   0.21369   0.22122   0.27312   0.27762
 Alpha virt. eigenvalues --    0.28348   0.28940   0.30956   0.31573   0.32428

 Mulliken charges:
               1
     1  C   -0.170593
     2  C   -0.219066
     3  C   -0.171396
     4  C    0.157007
     5  C   -0.161642
     6  C   -0.216219
     7  H    0.223447
     8  H    0.220554
     9  H    0.273143
    10  H    0.274112
    11  H    0.224023
    12  N    0.488911
    13  O   -0.461127
    14  O   -0.463769
    15  C   -0.170392
    16  C   -0.218857
    17  C   -0.171995
    18  C    0.153692
    19  C   -0.172567
    20  C   -0.218939
    21  H    0.226449
    22  H    0.226999
    23  H    0.285276
    24  H    0.273448
    25  H    0.223053
    26  N    0.484221
    27  O   -0.464566
    28  O   -0.453208
 Sum of Mulliken charges =  -0.00000

 Dipole moment (field-independent basis, Debye):
    X=              3.3934    Y=             -3.1896    Z=             -3.9053  Tot=              6.0778
 Quadrupole moment (field-independent basis, Debye-Ang):
   XX=            -73.4752   YY=           -105.5415   ZZ=           -108.2604
   XY=             18.7689   XZ=             -6.2413   YZ=              2.8448

 Normal termination of Gaussian 16 at Thu May  6 12:48:36 2021.
