 Gaussian 16, Revision A.03,
 Gaussian 16:  EM64L-G16RevA.03 25-Dec-2016

 -------------
 #p 6-31g* mp2
 -------------

 ------------------------------------------------------
 Input file generated by CHIRIPA (05-May-2021 14:55:21)
 ------------------------------------------------------
 Symbolic Z-matrix:
 Charge =  0 Multiplicity = 1

                         Standard orientation:
 ---------------------------------------------------------------------
 Center     Atomic      Atomic             Coordinates (Angstroms)
 Number     Number       Type             X           Y           Z
 ---------------------------------------------------------------------
      1          6           0       -3.308776    2.533376    0.684451
      2          6           0       -4.052557    2.085660   -0.412299
      3          6           0       -3.933235    0.766728   -0.860327
      4          6           0       -3.056768   -0.081320   -0.185116
      5          6           0       -2.302162    0.334984    0.910580
      6          6           0       -2.437488    1.658152    1.341232
      7          1           0       -3.407685    3.559599    1.025741
      8          1           0       -4.729986    2.763154   -0.924292
      9          1           0       -4.497082    0.393856   -1.706768
     10          1           0       -1.635035   -0.363725    1.400646
     11          1           0       -1.858603    2.003102    2.193258
     12          7           0       -2.921976   -1.479856   -0.650225
     13          8           0       -2.142912   -2.207275   -0.038213
     14          8           0       -3.597941   -1.822129   -1.617984
     15          6           0        4.627417    0.140219    0.191075
     16          6           0        5.138605    0.689574   -1.141171
     17          6           0        6.512753    1.349071   -1.020438
     18          1           0        4.580335    0.957600    0.923616
     19          1           0        5.351659   -0.588085    0.581513
     20          1           0        4.412947    1.415600   -1.529657
     21          1           0        5.184296   -0.129172   -1.870679
     22          1           0        7.254215    0.630601   -0.656245
     23          1           0        6.478484    2.184152   -0.313285
     24          1           0        6.859034    1.734777   -1.984378
     25          6           0        3.254781   -0.522109    0.086582
     26          6           0        2.743594   -1.071464    1.418828
     27          6           0        1.369445   -1.730961    1.298095
     28          1           0        2.530539    0.206195   -0.303856
     29          1           0        3.301864   -1.339490   -0.645959
     30          1           0        2.697903   -0.252716    2.148336
     31          1           0        3.469251   -1.797490    1.807314
     32          1           0        1.403714   -2.566042    0.590942
     33          1           0        0.627984   -1.012491    0.933902
     34          1           0        1.023165   -2.116667    2.262035
 ---------------------------------------------------------------------

 SCF Done:  E(RHF) =  -669.535377119     A.U. after   15 cycles
 E2 =    -0.2091480214D+01 EUMP2 =    -0.67162685733365D+03

 The electronic state is 1-A.
 Alpha  occ. eigenvalues --  -20.60768 -20.60757 -15.85809 -11.31194 -11.27766
 Alpha  occ. eigenvalues --  -11.27731 -11.27515 -11.26792 -11.26781 -11.21551
 Alpha  occ. eigenvalues --  -11.21460 -11.21328 -11.21241 -11.21050 -11.20756
 Alpha  occ. eigenvalues --   -1.59836  -1.39387  -1.19370  -1.08763  -1.08335
 Alpha  occ. eigenvalues --   -1.04776  -1.03415  -0.95857  -0.95587  -0.86863
 Alpha  occ. eigenvalues --   -0.86170  -0.82422  -0.79476  -0.78148  -0.77458
 Alpha  occ. eigenvalues --   -0.72027  -0.71157  -0.70483  -0.65021  -0.64992
 Alpha  occ. eigenvalues --   -0.64772  -0.62156  -0.60804  -0.59227  -0.57458
 Alpha  occ. eigenvalues --   -0.55343  -0.55090  -0.53104  -0.52899  -0.52527
 Alpha  occ. eigenvalues --   -0.52228  -0.49780  -0.48790  -0.48786  -0.47769
 Alpha  occ. eigenvalues --   -0.46516  -0.45680  -0.45620  -0.44763  -0.43670
 Alpha  occ. eigenvalues --   -0.37354  -0.36375
 Alpha virt. eigenvalues --    0.05030   0.11196   0.16547   0.21128   0.22970
 Alpha virt. eigenvalues --    0.24294   0.26342   0.26952   0.27626   0.27757
 Alpha virt. eigenvalues --    0.29204   0.30734   0.31486   0.31861   0.32072

 Mulliken charges:
               1
     1  C   -0.170707
     2  C   -0.218491
     3  C   -0.170784
     4  C    0.157338
     5  C   -0.175197
     6  C   -0.220203
     7  H    0.225562
     8  H    0.223483
     9  H    0.275622
    10  H    0.283315
    11  H    0.223635
    12  N    0.488063
    13  O   -0.460010
    14  O   -0.460482
    15  C   -0.297917
    16  C   -0.299527
    17  C   -0.475578
    18  H    0.147316
    19  H    0.149991
    20  H    0.150959
    21  H    0.153351
    22  H    0.155528
    23  H    0.153993
    24  H    0.160168
    25  C   -0.297998
    26  C   -0.300992
    27  C   -0.474941
    28  H    0.147721
    29  H    0.152966
    30  H    0.145862
    31  H    0.152602
    32  H    0.166744
    33  H    0.150562
    34  H    0.158042
 Sum of Mulliken charges =  -0.00000

 Dipole moment (field-independent basis, Debye):
    X=             -0.5124    Y=              4.8126    Z=              1.5788  Tot=              5.0908
 Quadrupole moment (field-independent basis, Debye-Ang):
   XX=            -91.0584   YY=            -95.1731   ZZ=            -93.2896
   XY=            -17.0906   XZ=             -2.3217   YZ=             -1.5092

 Normal termination of Gaussian 16 at Thu May  6 14:11:12 2021.
