 Gaussian 16, Revision A.03,
 Gaussian 16:  EM64L-G16RevA.03 25-Dec-2016

 -------------
 #p 6-31g* mp2
 -------------

 ------------------------------------------------------
 Input file generated by CHIRIPA (05-May-2021 14:55:25)
 ------------------------------------------------------
 Symbolic Z-matrix:
 Charge =  0 Multiplicity = 1

                         Standard orientation:
 ---------------------------------------------------------------------
 Center     Atomic      Atomic             Coordinates (Angstroms)
 Number     Number       Type             X           Y           Z
 ---------------------------------------------------------------------
      1          6           0        1.125111   -2.100739   -0.067816
      2          6           0        2.448561   -2.545701    0.015920
      3          6           0        3.504459   -1.630136    0.052895
      4          6           0        3.199340   -0.270795    0.004081
      5          6           0        1.891214    0.203666   -0.079499
      6          6           0        0.851145   -0.729893   -0.115175
      7          1           0        0.311012   -2.818961   -0.096035
      8          1           0        2.664301   -3.609721    0.052851
      9          1           0        4.538259   -1.947140    0.117587
     10          1           0        1.707496    1.270636   -0.114725
     11          1           0       -0.175695   -0.381450   -0.180220
     12          7           0        4.308793    0.707997    0.042537
     13          8           0        4.013522    1.900258   -0.001808
     14          8           0        5.452647    0.264381    0.116297
     15          6           0       -3.149533    0.783466   -0.152127
     16          6           0       -2.902724    2.255380    0.180344
     17          6           0       -1.474683    2.701322   -0.135297
     18          1           0       -2.437592    0.162983    0.409198
     19          1           0       -2.938806    0.615047   -1.217315
     20          1           0       -3.115186    2.421264    1.244280
     21          1           0       -3.615461    2.872419   -0.381692
     22          1           0       -1.254561    2.564390   -1.198968
     23          1           0       -0.751444    2.110672    0.436242
     24          1           0       -1.320190    3.756699    0.110002
     25          6           0       -4.572677    0.322740    0.157905
     26          6           0       -4.819486   -1.149175   -0.174567
     27          6           0       -6.247527   -1.595117    0.141075
     28          1           0       -4.783405    0.491159    1.223093
     29          1           0       -5.284618    0.943223   -0.403420
     30          1           0       -4.106749   -1.766214    0.387470
     31          1           0       -4.607024   -1.315059   -1.238503
     32          1           0       -6.970768   -1.004466   -0.430464
     33          1           0       -6.467649   -1.458185    1.204746
     34          1           0       -6.402021   -2.650493   -0.104225
 ---------------------------------------------------------------------

 SCF Done:  E(RHF) =  -669.535311674     A.U. after   15 cycles
 E2 =    -0.2092272810D+01 EUMP2 =    -0.67162758448420D+03

 The electronic state is 1-A.
 Alpha  occ. eigenvalues --  -20.60678 -20.60673 -15.85729 -11.31076 -11.27654
 Alpha  occ. eigenvalues --  -11.27607 -11.27380 -11.26670 -11.26571 -11.22488
 Alpha  occ. eigenvalues --  -11.22428 -11.22408 -11.22200 -11.22000 -11.21714
 Alpha  occ. eigenvalues --   -1.59754  -1.39307  -1.19245  -1.09332  -1.08644
 Alpha  occ. eigenvalues --   -1.04652  -1.04358  -0.96826  -0.95483  -0.87841
 Alpha  occ. eigenvalues --   -0.86044  -0.82326  -0.80440  -0.79192  -0.77352
 Alpha  occ. eigenvalues --   -0.71949  -0.71077  -0.70361  -0.65976  -0.64897
 Alpha  occ. eigenvalues --   -0.64643  -0.62116  -0.61653  -0.60165  -0.58438
 Alpha  occ. eigenvalues --   -0.56121  -0.55153  -0.53481  -0.53297  -0.52979
 Alpha  occ. eigenvalues --   -0.52700  -0.50763  -0.48781  -0.48704  -0.48666
 Alpha  occ. eigenvalues --   -0.47456  -0.46670  -0.46603  -0.44717  -0.44631
 Alpha  occ. eigenvalues --   -0.37232  -0.36244
 Alpha virt. eigenvalues --    0.05151   0.11383   0.16604   0.19880   0.22409
 Alpha virt. eigenvalues --    0.23572   0.25374   0.25501   0.26173   0.28478
 Alpha virt. eigenvalues --    0.29323   0.29809   0.30933   0.31274   0.31460

 Mulliken charges:
               1
     1  C   -0.173438
     2  C   -0.218601
     3  C   -0.171242
     4  C    0.159631
     5  C   -0.177699
     6  C   -0.229036
     7  H    0.225410
     8  H    0.222883
     9  H    0.275134
    10  H    0.279274
    11  H    0.238104
    12  N    0.488181
    13  O   -0.460448
    14  O   -0.460985
    15  C   -0.305436
    16  C   -0.299738
    17  C   -0.483397
    18  H    0.143581
    19  H    0.150388
    20  H    0.155824
    21  H    0.156796
    22  H    0.157228
    23  H    0.150082
    24  H    0.169733
    25  C   -0.297625
    26  C   -0.300131
    27  C   -0.476143
    28  H    0.152424
    29  H    0.153492
    30  H    0.147959
    31  H    0.152193
    32  H    0.157382
    33  H    0.156837
    34  H    0.161387
 Sum of Mulliken charges =  -0.00000

 Dipole moment (field-independent basis, Debye):
    X=             -4.1998    Y=             -3.3026    Z=             -0.1420  Tot=              5.3447
 Quadrupole moment (field-independent basis, Debye-Ang):
   XX=           -117.8718   YY=            -89.9641   ZZ=            -94.7692
   XY=            -13.7398   XZ=              0.1716   YZ=             -0.3703

 Normal termination of Gaussian 16 at Thu May  6 07:59:47 2021.
