 Gaussian 16, Revision A.03,
 Gaussian 16:  EM64L-G16RevA.03 25-Dec-2016

 -------------
 #p 6-31g* mp2
 -------------

 ------------------------------------------------------
 Input file generated by CHIRIPA (05-May-2021 14:51:13)
 ------------------------------------------------------
 Symbolic Z-matrix:
 Charge =  0 Multiplicity = 1

                         Standard orientation:
 ---------------------------------------------------------------------
 Center     Atomic      Atomic             Coordinates (Angstroms)
 Number     Number       Type             X           Y           Z
 ---------------------------------------------------------------------
      1          6           0       -3.145147    0.157681   -0.201811
      2          6           0       -4.538184   -0.236203   -0.694039
      3          6           0       -5.008311    0.610347   -1.877309
      4          1           0       -3.150465    1.218545    0.083645
      5          1           0       -2.430047    0.060537   -1.030418
      6          1           0       -5.250198   -0.139670    0.135619
      7          1           0       -4.529599   -1.296302   -0.978176
      8          1           0       -4.320595    0.506294   -2.722779
      9          1           0       -5.045288    1.669497   -1.602656
     10          1           0       -6.006333    0.311890   -2.213070
     11          6           0       -2.661291   -0.679649    0.980766
     12          6           0       -1.268254   -0.285764    1.472995
     13          6           0       -0.798127   -1.132314    2.656264
     14          1           0       -3.376391   -0.582504    1.809374
     15          1           0       -2.655973   -1.740512    0.695310
     16          1           0       -1.276839    0.774335    1.757132
     17          1           0       -0.556240   -0.382297    0.643336
     18          1           0       -0.761150   -2.191465    2.381611
     19          1           0       -1.485843   -1.028261    3.501735
     20          1           0        0.199895   -0.833857    2.992025
     21          6           0        2.454261    0.878615   -0.409495
     22          6           0        3.085653    2.108632    0.243489
     23          6           0        2.175392    3.336199    0.195558
     24          1           0        2.206282    1.112425   -1.453901
     25          1           0        1.504333    0.651737    0.094051
     26          1           0        4.034784    2.332295   -0.260238
     27          1           0        3.332332    1.871805    1.286406
     28          1           0        1.232518    3.137157    0.715147
     29          1           0        1.938961    3.600264   -0.840285
     30          1           0        2.646396    4.203938    0.667833
     31          6           0        3.352177   -0.356648   -0.369461
     32          6           0        2.720785   -1.586665   -1.022444
     33          6           0        3.631046   -2.814232   -0.974513
     34          1           0        4.302104   -0.129770   -0.873007
     35          1           0        3.600155   -0.590458    0.674945
     36          1           0        2.474106   -1.349837   -2.065363
     37          1           0        1.771654   -1.810328   -0.518718
     38          1           0        3.867476   -3.078297    0.061330
     39          1           0        4.573920   -2.615191   -1.494103
     40          1           0        3.160041   -3.681970   -1.446789
 ---------------------------------------------------------------------

 SCF Done:  E(RHF) =  -470.733277094     A.U. after   11 cycles
 E2 =    -0.1583299476D+01 EUMP2 =    -0.47231657656975D+03

 The electronic state is 1-A.
 Alpha  occ. eigenvalues --  -11.21663 -11.21625 -11.21612 -11.21576 -11.21435
 Alpha  occ. eigenvalues --  -11.21380 -11.21370 -11.21299 -11.21153 -11.21084
 Alpha  occ. eigenvalues --  -11.21074 -11.21045  -1.08474  -1.08410  -1.03574
 Alpha  occ. eigenvalues --   -1.03520  -0.96020  -0.95965  -0.87035  -0.86982
 Alpha  occ. eigenvalues --   -0.79664  -0.79575  -0.78368  -0.78141  -0.65190
 Alpha  occ. eigenvalues --   -0.64971  -0.60980  -0.60912  -0.59395  -0.59331
 Alpha  occ. eigenvalues --   -0.57656  -0.57557  -0.55321  -0.55234  -0.52717
 Alpha  occ. eigenvalues --   -0.52666  -0.52445  -0.52391  -0.49993  -0.49884
 Alpha  occ. eigenvalues --   -0.48038  -0.47879  -0.46780  -0.46622  -0.46080
 Alpha  occ. eigenvalues --   -0.45774  -0.45745  -0.45211  -0.43818  -0.43769
 Alpha virt. eigenvalues --    0.20497   0.23144   0.23895   0.24251   0.25609
 Alpha virt. eigenvalues --    0.26537   0.26964   0.27815   0.28147   0.29385
 Alpha virt. eigenvalues --    0.30213   0.31530   0.31683   0.31880   0.32231

 Mulliken charges:
               1
     1  C   -0.298595
     2  C   -0.299695
     3  C   -0.475739
     4  H    0.149759
     5  H    0.150113
     6  H    0.151918
     7  H    0.151966
     8  H    0.155305
     9  H    0.155271
    10  H    0.160267
    11  C   -0.297361
    12  C   -0.308364
    13  C   -0.475987
    14  H    0.149667
    15  H    0.149723
    16  H    0.151695
    17  H    0.159271
    18  H    0.155364
    19  H    0.155894
    20  H    0.159838
    21  C   -0.307968
    22  C   -0.298869
    23  C   -0.476014
    24  H    0.148976
    25  H    0.160017
    26  H    0.151735
    27  H    0.151512
    28  H    0.155608
    29  H    0.155145
    30  H    0.160001
    31  C   -0.297510
    32  C   -0.301983
    33  C   -0.475648
    34  H    0.149512
    35  H    0.149384
    36  H    0.151753
    37  H    0.153140
    38  H    0.155443
    39  H    0.155390
    40  H    0.160066
 Sum of Mulliken charges =  -0.00000

 Dipole moment (field-independent basis, Debye):
    X=             -0.0271    Y=             -0.0058    Z=              0.0018  Tot=              0.0277
 Quadrupole moment (field-independent basis, Debye-Ang):
   XX=            -85.0111   YY=            -85.5131   ZZ=            -84.2861
   XY=              0.5744   XZ=             -1.0258   YZ=              0.5985

 Normal termination of Gaussian 16 at Wed May  5 21:36:21 2021.
