 Gaussian 16, Revision A.03,
 Gaussian 16:  EM64L-G16RevA.03 25-Dec-2016

 -------------
 #p 6-31g* mp2
 -------------

 ------------------------------------------------------
 Input file generated by CHIRIPA (05-May-2021 14:55:24)
 ------------------------------------------------------
 Symbolic Z-matrix:
 Charge =  0 Multiplicity = 1

                         Standard orientation:
 ---------------------------------------------------------------------
 Center     Atomic      Atomic             Coordinates (Angstroms)
 Number     Number       Type             X           Y           Z
 ---------------------------------------------------------------------
      1          6           0       -3.082273   -2.137494    1.257136
      2          6           0       -3.634110   -1.958095   -0.015582
      3          6           0       -3.321451   -0.824467   -0.771677
      4          6           0       -2.449479    0.113898   -0.221746
      5          6           0       -1.883498   -0.036412    1.043309
      6          6           0       -2.210266   -1.177772    1.781596
      7          1           0       -3.330634   -3.021127    1.837572
      8          1           0       -4.311615   -2.701779   -0.425418
      9          1           0       -3.734395   -0.660496   -1.759609
     10          1           0       -1.211216    0.722306    1.425150
     11          1           0       -1.780206   -1.314466    2.769729
     12          7           0       -2.111013    1.318112   -1.012763
     13          8           0       -1.340196    2.130143   -0.505727
     14          8           0       -2.622949    1.427143   -2.124820
     15          6           0        3.209875   -0.652350    0.046898
     16          6           0        4.379139   -1.179797   -0.785333
     17          6           0        4.371704   -2.703132   -0.916441
     18          1           0        3.244258   -1.107961    1.045988
     19          1           0        2.266004   -0.977163   -0.412446
     20          1           0        5.320500   -0.852920   -0.325327
     21          1           0        4.342079   -0.722732   -1.782495
     22          1           0        3.448357   -3.044031   -1.395835
     23          1           0        4.432338   -3.174959    0.069613
     24          1           0        5.216083   -3.058677   -1.515168
     25          6           0        3.203595    0.868852    0.187025
     26          6           0        2.034332    1.396299    1.019256
     27          6           0        2.041766    2.919633    1.150364
     28          1           0        4.147466    1.193664    0.646369
     29          1           0        3.169212    1.324462   -0.812065
     30          1           0        2.071392    0.939233    2.016419
     31          1           0        1.092970    1.069422    0.559249
     32          1           0        1.981132    3.391461    0.164310
     33          1           0        2.965114    3.260533    1.629758
     34          1           0        1.197388    3.275178    1.749091
 ---------------------------------------------------------------------

 SCF Done:  E(RHF) =  -669.535814573     A.U. after   15 cycles
 E2 =    -0.2092325514D+01 EUMP2 =    -0.67162814008706D+03

 The electronic state is 1-A.
 Alpha  occ. eigenvalues --  -20.60922 -20.60916 -15.85946 -11.31253 -11.27819
 Alpha  occ. eigenvalues --  -11.27786 -11.27551 -11.26824 -11.26806 -11.21443
 Alpha  occ. eigenvalues --  -11.21201 -11.21145 -11.21004 -11.21002 -11.20382
 Alpha  occ. eigenvalues --   -1.59983  -1.39539  -1.19423  -1.08831  -1.08139
 Alpha  occ. eigenvalues --   -1.04814  -1.03197  -0.95696  -0.95613  -0.86652
 Alpha  occ. eigenvalues --   -0.86218  -0.82505  -0.79304  -0.78009  -0.77527
 Alpha  occ. eigenvalues --   -0.72173  -0.71299  -0.70532  -0.65087  -0.64863
 Alpha  occ. eigenvalues --   -0.64708  -0.62181  -0.60557  -0.59029  -0.57261
 Alpha  occ. eigenvalues --   -0.55322  -0.54903  -0.53150  -0.52909  -0.52321
 Alpha  occ. eigenvalues --   -0.52070  -0.49571  -0.48947  -0.48923  -0.47606
 Alpha  occ. eigenvalues --   -0.46328  -0.45547  -0.45462  -0.44784  -0.43460
 Alpha  occ. eigenvalues --   -0.37403  -0.36405
 Alpha virt. eigenvalues --    0.04928   0.11160   0.16434   0.21055   0.23199
 Alpha virt. eigenvalues --    0.24267   0.26487   0.26958   0.27664   0.28005
 Alpha virt. eigenvalues --    0.29096   0.30672   0.31596   0.31808   0.32207

 Mulliken charges:
               1
     1  C   -0.170464
     2  C   -0.218599
     3  C   -0.170846
     4  C    0.157081
     5  C   -0.172321
     6  C   -0.219616
     7  H    0.225919
     8  H    0.223659
     9  H    0.275570
    10  H    0.280894
    11  H    0.224277
    12  N    0.488630
    13  O   -0.460884
    14  O   -0.459145
    15  C   -0.297912
    16  C   -0.299522
    17  C   -0.475457
    18  H    0.145564
    19  H    0.148599
    20  H    0.151705
    21  H    0.153880
    22  H    0.154464
    23  H    0.153218
    24  H    0.160157
    25  C   -0.297980
    26  C   -0.308753
    27  C   -0.471332
    28  H    0.147934
    29  H    0.154444
    30  H    0.141058
    31  H    0.161675
    32  H    0.165129
    33  H    0.149364
    34  H    0.159615
 Sum of Mulliken charges =  -0.00000

 Dipole moment (field-independent basis, Debye):
    X=             -1.3262    Y=             -4.1485    Z=              2.6613  Tot=              5.1041
 Quadrupole moment (field-independent basis, Debye-Ang):
   XX=            -87.7016   YY=            -96.8120   ZZ=            -93.0618
   XY=             11.8508   XZ=             -3.9708   YZ=              2.0676

 Normal termination of Gaussian 16 at Wed May  5 19:10:13 2021.
