 Gaussian 16, Revision A.03,
 Gaussian 16:  EM64L-G16RevA.03 25-Dec-2016

 -------------
 #p 6-31g* mp2
 -------------

 ------------------------------------------------------
 Input file generated by CHIRIPA (05-May-2021 14:51:12)
 ------------------------------------------------------
 Symbolic Z-matrix:
 Charge =  0 Multiplicity = 1

                         Standard orientation:
 ---------------------------------------------------------------------
 Center     Atomic      Atomic             Coordinates (Angstroms)
 Number     Number       Type             X           Y           Z
 ---------------------------------------------------------------------
      1          6           0        3.800068   -0.331462   -0.313427
      2          6           0        3.071939   -1.671097   -0.198578
      3          6           0        3.983368   -2.865531   -0.482164
      4          1           0        4.226072   -0.238178   -1.321774
      5          1           0        4.647441   -0.321482    0.386040
      6          1           0        2.225365   -1.678012   -0.897063
      7          1           0        2.647456   -1.761119    0.809551
      8          1           0        4.821169   -2.886625    0.222283
      9          1           0        4.396680   -2.803046   -1.494028
     10          1           0        3.442496   -3.812969   -0.394530
     11          6           0        2.902123    0.872129   -0.032730
     12          6           0        3.630252    2.211765   -0.147579
     13          6           0        2.718824    3.406198    0.136006
     14          1           0        2.054750    0.862149   -0.732198
     15          1           0        2.476119    0.778845    0.975617
     16          1           0        4.054735    2.301787   -1.155709
     17          1           0        4.476826    2.218680    0.550905
     18          1           0        2.305511    3.343713    1.147871
     19          1           0        1.881023    3.427292   -0.568441
     20          1           0        3.259695    4.353636    0.048372
     21          6           0       -3.892935    0.258437    0.071869
     22          6           0       -5.214322   -0.317365   -0.438403
     23          6           0       -6.288402    0.752742   -0.635932
     24          1           0       -4.070587    0.781360    1.021571
     25          1           0       -3.531911    1.014862   -0.638677
     26          1           0       -5.572046   -1.073469    0.272199
     27          1           0       -5.033469   -0.839143   -1.386905
     28          1           0       -5.956199    1.502774   -1.360981
     29          1           0       -6.497837    1.267116    0.307549
     30          1           0       -7.224661    0.319222   -1.001090
     31          6           0       -2.809255   -0.799104    0.274289
     32          6           0       -1.487870   -0.223303    0.784561
     33          6           0       -0.413790   -1.293409    0.982091
     34          1           0       -3.170281   -1.555530    0.984835
     35          1           0       -2.631603   -1.322028   -0.675414
     36          1           0       -1.668723    0.298476    1.733063
     37          1           0       -1.130145    0.532802    0.073960
     38          1           0       -0.204354   -1.807783    0.038609
     39          1           0       -0.745992   -2.043441    1.707139
     40          1           0        0.522469   -0.859890    1.347247
 ---------------------------------------------------------------------

 SCF Done:  E(RHF) =  -470.731769933     A.U. after   11 cycles
 E2 =    -0.1583999579D+01 EUMP2 =    -0.47231576951195D+03

 The electronic state is 1-A.
 Alpha  occ. eigenvalues --  -11.21611 -11.21580 -11.21517 -11.21488 -11.21409
 Alpha  occ. eigenvalues --  -11.21366 -11.21337 -11.21305 -11.21080 -11.21055
 Alpha  occ. eigenvalues --  -11.21010 -11.20888  -1.08442  -1.08367  -1.03532
 Alpha  occ. eigenvalues --   -1.03448  -0.95966  -0.95924  -0.87023  -0.86911
 Alpha  occ. eigenvalues --   -0.79719  -0.79426  -0.78255  -0.78166  -0.65087
 Alpha  occ. eigenvalues --   -0.64999  -0.60937  -0.60858  -0.59455  -0.59191
 Alpha  occ. eigenvalues --   -0.57678  -0.57440  -0.55257  -0.55219  -0.52839
 Alpha  occ. eigenvalues --   -0.52522  -0.52397  -0.52302  -0.49950  -0.49856
 Alpha  occ. eigenvalues --   -0.47922  -0.47839  -0.46675  -0.46494  -0.45814
 Alpha  occ. eigenvalues --   -0.45730  -0.45660  -0.45593  -0.43788  -0.43574
 Alpha virt. eigenvalues --    0.21531   0.23167   0.24017   0.24138   0.24994
 Alpha virt. eigenvalues --    0.26377   0.27220   0.27363   0.27837   0.29601
 Alpha virt. eigenvalues --    0.30651   0.31047   0.31698   0.31897   0.32310

 Mulliken charges:
               1
     1  C   -0.298370
     2  C   -0.301659
     3  C   -0.475559
     4  H    0.149235
     5  H    0.149104
     6  H    0.153504
     7  H    0.155575
     8  H    0.154680
     9  H    0.154471
    10  H    0.160196
    11  C   -0.300797
    12  C   -0.299483
    13  C   -0.475589
    14  H    0.150623
    15  H    0.150491
    16  H    0.152007
    17  H    0.151970
    18  H    0.155292
    19  H    0.154967
    20  H    0.160309
    21  C   -0.298110
    22  C   -0.299568
    23  C   -0.475659
    24  H    0.149611
    25  H    0.149280
    26  H    0.151876
    27  H    0.151775
    28  H    0.155104
    29  H    0.155168
    30  H    0.160150
    31  C   -0.298480
    32  C   -0.300361
    33  C   -0.479139
    34  H    0.149387
    35  H    0.149169
    36  H    0.151163
    37  H    0.152010
    38  H    0.156197
    39  H    0.153067
    40  H    0.166394
 Sum of Mulliken charges =  -0.00000

 Dipole moment (field-independent basis, Debye):
    X=              0.0303    Y=              0.0002    Z=              0.0062  Tot=              0.0310
 Quadrupole moment (field-independent basis, Debye-Ang):
   XX=            -85.9079   YY=            -86.1892   ZZ=            -82.9172
   XY=              1.1292   XZ=             -0.0771   YZ=             -0.2341

 Normal termination of Gaussian 16 at Wed May  5 23:10:40 2021.
