 Gaussian 16, Revision A.03,
 Gaussian 16:  EM64L-G16RevA.03 25-Dec-2016

 -------------
 #p 6-31g* mp2
 -------------

 ------------------------------------------------------
 Input file generated by CHIRIPA (05-May-2021 14:53:18)
 ------------------------------------------------------
 Symbolic Z-matrix:
 Charge =  0 Multiplicity = 1

                         Standard orientation:
 ---------------------------------------------------------------------
 Center     Atomic      Atomic             Coordinates (Angstroms)
 Number     Number       Type             X           Y           Z
 ---------------------------------------------------------------------
      1          6           0        3.581756    0.666296   -0.377072
      2          6           0        3.430807    2.068293    0.214202
      3          6           0        3.853482    3.169040   -0.759192
      4          1           0        4.627657    0.511876   -0.675723
      5          1           0        2.981117    0.596229   -1.294524
      6          1           0        4.030457    2.135259    1.131017
      7          1           0        2.385184    2.219324    0.511656
      8          1           0        3.247857    3.130889   -1.670435
      9          1           0        4.902479    3.046346   -1.047554
     10          1           0        3.737472    4.163061   -0.316106
     11          6           0        3.163150   -0.444849    0.584101
     12          6           0        3.314100   -1.846845   -0.007173
     13          6           0        2.891425   -2.947593    0.966220
     14          1           0        3.763789   -0.374782    1.501553
     15          1           0        2.117250   -0.290428    0.882752
     16          1           0        4.359723   -1.997876   -0.304627
     17          1           0        2.714449   -1.913811   -0.923989
     18          1           0        1.842428   -2.824898    1.254583
     19          1           0        3.497049   -2.909441    1.877463
     20          1           0        3.007435   -3.941613    0.523134
     21          6           0       -4.274763    1.722541    0.554401
     22          6           0       -4.739832    0.486223    0.094240
     23          6           0       -3.840231   -0.523419   -0.260569
     24          6           0       -2.476176   -0.261395   -0.142286
     25          6           0       -1.981841    0.959974    0.312883
     26          6           0       -2.899676    1.955062    0.662065
     27          1           0       -4.980677    2.501202    0.827839
     28          1           0       -5.807190    0.302836    0.009608
     29          1           0       -4.172938   -1.489718   -0.619723
     30          1           0       -0.912019    1.113196    0.386514
     31          1           0       -2.535633    2.914240    1.019126
     32          7           0       -1.514157   -1.322553   -0.514927
     33          8           0       -0.317344   -1.066730   -0.401658
     34          8           0       -1.975155   -2.390019   -0.913216
 ---------------------------------------------------------------------

 SCF Done:  E(RHF) =  -669.536425930     A.U. after   15 cycles
 E2 =    -0.2092001722D+01 EUMP2 =    -0.67162842765262D+03

 The electronic state is 1-A.
 Alpha  occ. eigenvalues --  -20.61068 -20.61061 -15.86092 -11.31366 -11.27926
 Alpha  occ. eigenvalues --  -11.27918 -11.27649 -11.26918 -11.26908 -11.21217
 Alpha  occ. eigenvalues --  -11.20798 -11.20570 -11.20218 -11.20158 -11.19663
 Alpha  occ. eigenvalues --   -1.60121  -1.39680  -1.19528  -1.08941  -1.07503
 Alpha  occ. eigenvalues --   -1.04918  -1.02608  -0.95791  -0.95075  -0.86321
 Alpha  occ. eigenvalues --   -0.86107  -0.82630  -0.78764  -0.77701  -0.77221
 Alpha  occ. eigenvalues --   -0.72333  -0.71429  -0.70638  -0.65198  -0.64920
 Alpha  occ. eigenvalues --   -0.64087  -0.62266  -0.59964  -0.58530  -0.56675
 Alpha  occ. eigenvalues --   -0.55423  -0.54346  -0.53251  -0.53008  -0.51834
 Alpha  occ. eigenvalues --   -0.51508  -0.49157  -0.49056  -0.48939  -0.47065
 Alpha  occ. eigenvalues --   -0.45802  -0.45188  -0.44777  -0.44509  -0.42857
 Alpha  occ. eigenvalues --   -0.37504  -0.36516
 Alpha virt. eigenvalues --    0.04818   0.11139   0.16311   0.20315   0.22997
 Alpha virt. eigenvalues --    0.25266   0.25635   0.27485   0.28036   0.28854
 Alpha virt. eigenvalues --    0.29287   0.31267   0.32133   0.32340   0.32745

 Mulliken charges:
               1
     1  C   -0.298627
     2  C   -0.297004
     3  C   -0.475204
     4  H    0.146920
     5  H    0.153711
     6  H    0.150857
     7  H    0.142532
     8  H    0.154469
     9  H    0.156042
    10  H    0.156099
    11  C   -0.301039
    12  C   -0.297340
    13  C   -0.477101
    14  H    0.141588
    15  H    0.161264
    16  H    0.143144
    17  H    0.166075
    18  H    0.165965
    19  H    0.145978
    20  H    0.157140
    21  C   -0.170338
    22  C   -0.218624
    23  C   -0.170490
    24  C    0.157435
    25  C   -0.171479
    26  C   -0.218841
    27  H    0.226346
    28  H    0.224097
    29  H    0.275991
    30  H    0.276655
    31  H    0.224455
    32  N    0.493911
    33  O   -0.466745
    34  O   -0.457842
 Sum of Mulliken charges =  -0.00000

 Dipole moment (field-independent basis, Debye):
    X=             -3.7419    Y=              3.6231    Z=              1.2032  Tot=              5.3457
 Quadrupole moment (field-independent basis, Debye-Ang):
   XX=            -75.3687   YY=            -96.5310   ZZ=            -96.0739
   XY=             -6.2257   XZ=             -1.7103   YZ=              0.7404

 Normal termination of Gaussian 16 at Thu May  6 01:16:34 2021.
