 Gaussian 16, Revision A.03,
 Gaussian 16:  EM64L-G16RevA.03 25-Dec-2016

 -------------
 #p 6-31g* mp2
 -------------

 ------------------------------------------------------
 Input file generated by CHIRIPA (05-May-2021 14:55:21)
 ------------------------------------------------------
 Symbolic Z-matrix:
 Charge =  0 Multiplicity = 1

                         Standard orientation:
 ---------------------------------------------------------------------
 Center     Atomic      Atomic             Coordinates (Angstroms)
 Number     Number       Type             X           Y           Z
 ---------------------------------------------------------------------
      1          6           0       -3.117926    1.744614    0.185157
      2          6           0       -2.084561    1.463764    1.085046
      3          6           0       -1.434801    0.226213    1.056294
      4          6           0       -1.845841   -0.711495    0.110228
      5          6           0       -2.872006   -0.461536   -0.799605
      6          6           0       -3.507664    0.782764   -0.752643
      7          1           0       -3.617198    2.708595    0.214565
      8          1           0       -1.779783    2.208844    1.814437
      9          1           0       -0.631802   -0.017559    1.741264
     10          1           0       -3.153667   -1.224352   -1.515284
     11          1           0       -4.309874    0.998114   -1.452734
     12          7           0       -1.165434   -2.025207    0.070150
     13          8           0       -1.546267   -2.834373   -0.772971
     14          8           0       -0.264182   -2.220854    0.882618
     15          6           0        2.330408    1.254838   -0.557658
     16          6           0        1.964450    2.463290    0.304723
     17          6           0        1.615214    3.698417   -0.526114
     18          1           0        3.180118    1.516710   -1.202919
     19          1           0        1.490071    1.022431   -1.226400
     20          1           0        2.804694    2.692493    0.972609
     21          1           0        1.115635    2.198449    0.948143
     22          1           0        0.762508    3.493380   -1.181442
     23          1           0        2.461165    3.990231   -1.156838
     24          1           0        1.356775    4.550459    0.110355
     25          6           0        2.682022    0.012310    0.258565
     26          6           0        3.047981   -1.196143   -0.603816
     27          6           0        3.397217   -2.431269    0.227021
     28          1           0        3.522359    0.244716    0.927307
     29          1           0        1.832312   -0.249562    0.903825
     30          1           0        3.896796   -0.931302   -1.247237
     31          1           0        2.207736   -1.425346   -1.271702
     32          1           0        2.551266   -2.723084    0.857744
     33          1           0        4.249922   -2.226233    0.882349
     34          1           0        3.655656   -3.283311   -0.409448
 ---------------------------------------------------------------------

 SCF Done:  E(RHF) =  -669.536023006     A.U. after   15 cycles
 E2 =    -0.2094826065D+01 EUMP2 =    -0.67163084907104D+03

 The electronic state is 1-A.
 Alpha  occ. eigenvalues --  -20.61097 -20.61088 -15.86110 -11.31393 -11.27950
 Alpha  occ. eigenvalues --  -11.27943 -11.27664 -11.26941 -11.26931 -11.21716
 Alpha  occ. eigenvalues --  -11.21278 -11.21158 -11.20787 -11.20708 -11.19762
 Alpha  occ. eigenvalues --   -1.60144  -1.39704  -1.19557  -1.08963  -1.08055
 Alpha  occ. eigenvalues --   -1.04945  -1.03059  -0.95815  -0.95502  -0.86528
 Alpha  occ. eigenvalues --   -0.86342  -0.82655  -0.79236  -0.77915  -0.77579
 Alpha  occ. eigenvalues --   -0.72348  -0.71465  -0.70660  -0.65218  -0.64964
 Alpha  occ. eigenvalues --   -0.64678  -0.62278  -0.60436  -0.58992  -0.57097
 Alpha  occ. eigenvalues --   -0.55442  -0.54782  -0.53260  -0.53027  -0.52224
 Alpha  occ. eigenvalues --   -0.51931  -0.49586  -0.49088  -0.48947  -0.47508
 Alpha  occ. eigenvalues --   -0.46286  -0.45536  -0.45251  -0.44749  -0.43327
 Alpha  occ. eigenvalues --   -0.37521  -0.36503
 Alpha virt. eigenvalues --    0.04745   0.11042   0.16136   0.20368   0.23252
 Alpha virt. eigenvalues --    0.24726   0.25289   0.27194   0.27695   0.28400
 Alpha virt. eigenvalues --    0.29617   0.30636   0.31792   0.31878   0.32367

 Mulliken charges:
               1
     1  C   -0.170828
     2  C   -0.218368
     3  C   -0.169242
     4  C    0.156146
     5  C   -0.170586
     6  C   -0.218575
     7  H    0.226842
     8  H    0.225387
     9  H    0.277842
    10  H    0.276147
    11  H    0.224343
    12  N    0.490907
    13  O   -0.457581
    14  O   -0.462478
    15  C   -0.298041
    16  C   -0.298170
    17  C   -0.475724
    18  H    0.149825
    19  H    0.147942
    20  H    0.152552
    21  H    0.141126
    22  H    0.154461
    23  H    0.157494
    24  H    0.155692
    25  C   -0.306649
    26  C   -0.294486
    27  C   -0.483886
    28  H    0.146309
    29  H    0.157626
    30  H    0.146223
    31  H    0.152875
    32  H    0.180830
    33  H    0.146410
    34  H    0.157635
 Sum of Mulliken charges =  -0.00000

 Dipole moment (field-independent basis, Debye):
    X=             -2.6465    Y=              4.4172    Z=              0.1494  Tot=              5.1515
 Quadrupole moment (field-independent basis, Debye-Ang):
   XX=            -84.2046   YY=           -102.4385   ZZ=            -92.4556
   XY=             -5.6482   XZ=              2.0286   YZ=              1.9687

 Normal termination of Gaussian 16 at Thu May  6 19:08:37 2021.
