 Gaussian 16, Revision A.03,
 Gaussian 16:  EM64L-G16RevA.03 25-Dec-2016

 -------------
 #p 6-31g* mp2
 -------------

 ------------------------------------------------------
 Input file generated by CHIRIPA (05-May-2021 14:53:16)
 ------------------------------------------------------
 Symbolic Z-matrix:
 Charge =  0 Multiplicity = 1

                         Standard orientation:
 ---------------------------------------------------------------------
 Center     Atomic      Atomic             Coordinates (Angstroms)
 Number     Number       Type             X           Y           Z
 ---------------------------------------------------------------------
      1          6           0       -2.846831    1.470622   -0.160954
      2          6           0       -1.546447    1.959958   -0.799340
      3          6           0       -1.466091    3.484539   -0.882947
      4          1           0       -3.698624    1.852918   -0.739957
      5          1           0       -2.936358    1.899259    0.846840
      6          1           0       -1.458726    1.529420   -1.805103
      7          1           0       -0.697646    1.576294   -0.218862
      8          1           0       -1.528234    3.928927    0.115682
      9          1           0       -2.293638    3.881787   -1.479572
     10          1           0       -0.528496    3.812545   -1.342498
     11          6           0       -2.941957   -0.051373   -0.070337
     12          6           0       -4.242341   -0.540709    0.568049
     13          6           0       -4.322697   -2.065290    0.651655
     14          1           0       -2.852431   -0.480010   -1.078132
     15          1           0       -2.090164   -0.433669    0.508665
     16          1           0       -5.091142   -0.157045   -0.012430
     17          1           0       -4.330062   -0.110171    1.573811
     18          1           0       -3.495150   -2.462537    1.248280
     19          1           0       -4.260555   -2.509678   -0.346973
     20          1           0       -5.260292   -2.393296    1.111207
     21          6           0        3.738389    1.312542    0.926122
     22          6           0        4.096686    0.596471   -0.220782
     23          6           0        3.285834   -0.439933   -0.692939
     24          6           0        2.118440   -0.734883    0.009549
     25          6           0        1.734384   -0.039788    1.155251
     26          6           0        2.560459    0.992692    1.609274
     27          1           0        4.374192    2.116121    1.285861
     28          1           0        5.010908    0.842678   -0.753347
     29          1           0        3.539322   -1.010477   -1.578174
     30          1           0        0.816992   -0.308340    1.664846
     31          1           0        2.279698    1.547104    2.500253
     32          7           0        1.251970   -1.829999   -0.480704
     33          8           0        0.228603   -2.070329    0.156164
     34          8           0        1.612603   -2.427286   -1.492548
 ---------------------------------------------------------------------

 SCF Done:  E(RHF) =  -669.535921232     A.U. after   15 cycles
 E2 =    -0.2092761429D+01 EUMP2 =    -0.67162868266114D+03

 The electronic state is 1-A.
 Alpha  occ. eigenvalues --  -20.60912 -20.60899 -15.85939 -11.31301 -11.27878
 Alpha  occ. eigenvalues --  -11.27850 -11.27592 -11.26884 -11.26866 -11.21351
 Alpha  occ. eigenvalues --  -11.20994 -11.20953 -11.20898 -11.20501 -11.20186
 Alpha  occ. eigenvalues --   -1.59965  -1.39522  -1.19469  -1.08860  -1.07886
 Alpha  occ. eigenvalues --   -1.04873  -1.03025  -0.95701  -0.95457  -0.86474
 Alpha  occ. eigenvalues --   -0.86267  -0.82537  -0.79123  -0.77734  -0.77477
 Alpha  occ. eigenvalues --   -0.72165  -0.71274  -0.70574  -0.65126  -0.64881
 Alpha  occ. eigenvalues --   -0.64526  -0.62220  -0.60440  -0.58862  -0.57053
 Alpha  occ. eigenvalues --   -0.55367  -0.54750  -0.53200  -0.52962  -0.52198
 Alpha  occ. eigenvalues --   -0.51854  -0.49408  -0.48922  -0.48918  -0.47420
 Alpha  occ. eigenvalues --   -0.46180  -0.45444  -0.45118  -0.44561  -0.43252
 Alpha  occ. eigenvalues --   -0.37431  -0.36450
 Alpha virt. eigenvalues --    0.04908   0.11107   0.16398   0.20917   0.23133
 Alpha virt. eigenvalues --    0.24789   0.25853   0.27498   0.27613   0.28418
 Alpha virt. eigenvalues --    0.29062   0.31074   0.31754   0.32019   0.32386

 Mulliken charges:
               1
     1  C   -0.298142
     2  C   -0.301155
     3  C   -0.474683
     4  H    0.148378
     5  H    0.143967
     6  H    0.154461
     7  H    0.147619
     8  H    0.151501
     9  H    0.156046
    10  H    0.157593
    11  C   -0.304488
    12  C   -0.299622
    13  C   -0.475045
    14  H    0.153531
    15  H    0.163911
    16  H    0.148545
    17  H    0.146458
    18  H    0.161776
    19  H    0.158131
    20  H    0.155111
    21  C   -0.170494
    22  C   -0.218205
    23  C   -0.170775
    24  C    0.159497
    25  C   -0.170705
    26  C   -0.219014
    27  H    0.226155
    28  H    0.223947
    29  H    0.275928
    30  H    0.276048
    31  H    0.224160
    32  N    0.489733
    33  O   -0.460829
    34  O   -0.459339
 Sum of Mulliken charges =  -0.00000

 Dipole moment (field-independent basis, Debye):
    X=              3.2397    Y=              3.6563    Z=              1.6756  Tot=              5.1645
 Quadrupole moment (field-independent basis, Debye-Ang):
   XX=            -80.5161   YY=           -102.4922   ZZ=            -91.3542
   XY=              5.6543   XZ=              1.6428   YZ=             -0.2403

 Normal termination of Gaussian 16 at Thu May  6 04:20:49 2021.
