 Gaussian 16, Revision A.03,
 Gaussian 16:  EM64L-G16RevA.03 25-Dec-2016

 -------------
 #p 6-31g* mp2
 -------------

 ------------------------------------------------------
 Input file generated by CHIRIPA (05-May-2021 14:55:20)
 ------------------------------------------------------
 Symbolic Z-matrix:
 Charge =  0 Multiplicity = 1

                         Standard orientation:
 ---------------------------------------------------------------------
 Center     Atomic      Atomic             Coordinates (Angstroms)
 Number     Number       Type             X           Y           Z
 ---------------------------------------------------------------------
      1          6           0       -5.478880    0.863006   -0.050816
      2          6           0       -4.274572    1.574027   -0.026032
      3          6           0       -3.051171    0.897806   -0.002318
      4          6           0       -3.069118   -0.496097   -0.004134
      5          6           0       -4.252321   -1.232797   -0.028524
      6          6           0       -5.463936   -0.535671   -0.051980
      7          1           0       -6.424670    1.396430   -0.069137
      8          1           0       -4.283141    2.660291   -0.025067
      9          1           0       -2.104120    1.423290    0.017136
     10          1           0       -4.211779   -2.315282   -0.028847
     11          1           0       -6.397675   -1.090476   -0.071200
     12          7           0       -1.780196   -1.223047    0.020834
     13          8           0       -1.823025   -2.451378    0.018695
     14          8           0       -0.751517   -0.550734    0.042072
     15          6           0        3.491053    0.672760    0.219751
     16          6           0        3.083504    2.076119   -0.230217
     17          6           0        1.661865    2.443939    0.195749
     18          1           0        2.782341   -0.058074   -0.193230
     19          1           0        3.406316    0.606845    1.313309
     20          1           0        3.170311    2.139793   -1.322475
     21          1           0        3.793380    2.803679    0.183726
     22          1           0        1.564905    2.408346    1.285672
     23          1           0        0.938296    1.740686   -0.229086
     24          1           0        1.391204    3.451113   -0.136218
     25          6           0        4.909710    0.290533   -0.198632
     26          6           0        5.317259   -1.112826    0.251335
     27          6           0        6.738898   -1.480644   -0.174630
     28          1           0        4.994448    0.356449   -1.292190
     29          1           0        5.618423    1.021368    0.214349
     30          1           0        4.607383   -1.840386   -0.162607
     31          1           0        5.230453   -1.176499    1.343593
     32          1           0        7.462467   -0.777393    0.250204
     33          1           0        6.835858   -1.445052   -1.264553
     34          1           0        7.009560   -2.487819    0.157337
 ---------------------------------------------------------------------

 SCF Done:  E(RHF) =  -669.536222459     A.U. after   15 cycles
 E2 =    -0.2091064537D+01 EUMP2 =    -0.67162728699571D+03

 The electronic state is 1-A.
 Alpha  occ. eigenvalues --  -20.60915 -20.60908 -15.85956 -11.31260 -11.27826
 Alpha  occ. eigenvalues --  -11.27812 -11.27564 -11.26832 -11.26819 -11.20805
 Alpha  occ. eigenvalues --  -11.20804 -11.20563 -11.20426 -11.20324 -11.20228
 Alpha  occ. eigenvalues --   -1.59980  -1.39536  -1.19430  -1.08838  -1.07564
 Alpha  occ. eigenvalues --   -1.04824  -1.02732  -0.95683  -0.95183  -0.86228
 Alpha  occ. eigenvalues --   -0.86207  -0.82518  -0.78806  -0.77579  -0.77333
 Alpha  occ. eigenvalues --   -0.72184  -0.71294  -0.70539  -0.65088  -0.64827
 Alpha  occ. eigenvalues --   -0.64191  -0.62171  -0.60128  -0.58558  -0.56786
 Alpha  occ. eigenvalues --   -0.55331  -0.54459  -0.53158  -0.52916  -0.51932
 Alpha  occ. eigenvalues --   -0.51599  -0.49192  -0.48929  -0.48845  -0.47101
 Alpha  occ. eigenvalues --   -0.45817  -0.44957  -0.44903  -0.44782  -0.42980
 Alpha  occ. eigenvalues --   -0.37411  -0.36425
 Alpha virt. eigenvalues --    0.04960   0.11229   0.16460   0.21084   0.23698
 Alpha virt. eigenvalues --    0.24781   0.26269   0.27487   0.27726   0.28519
 Alpha virt. eigenvalues --    0.29211   0.30557   0.31639   0.32345   0.32595

 Mulliken charges:
               1
     1  C   -0.170451
     2  C   -0.219390
     3  C   -0.171546
     4  C    0.157290
     5  C   -0.170769
     6  C   -0.218724
     7  H    0.225879
     8  H    0.224177
     9  H    0.279151
    10  H    0.275648
    11  H    0.223656
    12  N    0.494253
    13  O   -0.459451
    14  O   -0.467435
    15  C   -0.301423
    16  C   -0.297784
    17  C   -0.486794
    18  H    0.165802
    19  H    0.148230
    20  H    0.149303
    21  H    0.147394
    22  H    0.153003
    23  H    0.175982
    24  H    0.149942
    25  C   -0.297993
    26  C   -0.299654
    27  C   -0.475280
    28  H    0.147562
    29  H    0.145882
    30  H    0.156231
    31  H    0.151312
    32  H    0.152988
    33  H    0.153996
    34  H    0.159013
 Sum of Mulliken charges =  -0.00000

 Dipole moment (field-independent basis, Debye):
    X=             -4.7801    Y=              2.3860    Z=             -0.0996  Tot=              5.3435
 Quadrupole moment (field-independent basis, Debye-Ang):
   XX=            -67.9246   YY=            -94.3048   ZZ=            -95.0439
   XY=             -3.1568   XZ=              0.8732   YZ=              0.3178

 Normal termination of Gaussian 16 at Wed May  5 20:33:07 2021.
