 Gaussian 16, Revision A.03,
 Gaussian 16:  EM64L-G16RevA.03 25-Dec-2016

 -------------
 #p 6-31g* mp2
 -------------

 ------------------------------------------------------
 Input file generated by CHIRIPA (05-May-2021 14:55:25)
 ------------------------------------------------------
 Symbolic Z-matrix:
 Charge =  0 Multiplicity = 1

                         Standard orientation:
 ---------------------------------------------------------------------
 Center     Atomic      Atomic             Coordinates (Angstroms)
 Number     Number       Type             X           Y           Z
 ---------------------------------------------------------------------
      1          6           0       -5.706140    1.675017   -0.102222
      2          6           0       -5.872113    0.382278   -0.609961
      3          6           0       -4.818889   -0.536301   -0.571469
      4          6           0       -3.607875   -0.126670   -0.015648
      5          6           0       -3.411490    1.154177    0.498310
      6          6           0       -4.478523    2.056169    0.449321
      7          1           0       -6.529673    2.382148   -0.136200
      8          1           0       -6.824378    0.083507   -1.038880
      9          1           0       -4.920006   -1.543397   -0.957411
     10          1           0       -2.450440    1.422888    0.919732
     11          1           0       -4.346757    3.059467    0.844386
     12          7           0       -2.485565   -1.090348    0.030658
     13          8           0       -1.428608   -0.704879    0.525525
     14          8           0       -2.684105   -2.212901   -0.428791
     15          6           0        5.529841    0.210540    0.283681
     16          6           0        6.433148    0.748211   -0.826694
     17          6           0        7.779921    1.248045   -0.303090
     18          1           0        5.364766    1.001150    1.028415
     19          1           0        6.047805   -0.606508    0.804776
     20          1           0        5.913080    1.563081   -1.346435
     21          1           0        6.595935   -0.043713   -1.568970
     22          1           0        8.322433    0.439822    0.197968
     23          1           0        7.635698    2.055747    0.421768
     24          1           0        8.409783    1.627964   -1.113518
     25          6           0        4.179843   -0.292858   -0.224084
     26          6           0        3.276536   -0.830528    0.886290
     27          6           0        1.929762   -1.330363    0.362685
     28          1           0        3.661879    0.524190   -0.745180
     29          1           0        4.344917   -1.083469   -0.968819
     30          1           0        3.113749   -0.038606    1.628566
     31          1           0        3.796604   -1.645399    1.406031
     32          1           0        2.073986   -2.138064   -0.362172
     33          1           0        1.387250   -0.522141   -0.138372
     34          1           0        1.299900   -1.710283    1.173115
 ---------------------------------------------------------------------

 SCF Done:  E(RHF) =  -669.535392339     A.U. after   15 cycles
 E2 =    -0.2091012404D+01 EUMP2 =    -0.67162640474238D+03

 The electronic state is 1-A.
 Alpha  occ. eigenvalues --  -20.60872 -20.60867 -15.85907 -11.31264 -11.27834
 Alpha  occ. eigenvalues --  -11.27828 -11.27574 -11.26847 -11.26837 -11.21062
 Alpha  occ. eigenvalues --  -11.20694 -11.20639 -11.20474 -11.20354 -11.19197
 Alpha  occ. eigenvalues --   -1.59938  -1.39495  -1.19437  -1.08835  -1.07592
 Alpha  occ. eigenvalues --   -1.04838  -1.02569  -0.95678  -0.94968  -0.86239
 Alpha  occ. eigenvalues --   -0.85974  -0.82504  -0.78670  -0.77556  -0.77357
 Alpha  occ. eigenvalues --   -0.72130  -0.71257  -0.70545  -0.65093  -0.64841
 Alpha  occ. eigenvalues --   -0.64239  -0.62186  -0.59978  -0.58429  -0.56577
 Alpha  occ. eigenvalues --   -0.55341  -0.54275  -0.53168  -0.52931  -0.51626
 Alpha  occ. eigenvalues --   -0.51404  -0.49067  -0.48885  -0.48712  -0.46964
 Alpha  occ. eigenvalues --   -0.45750  -0.44989  -0.44868  -0.44711  -0.42777
 Alpha  occ. eigenvalues --   -0.37417  -0.36441
 Alpha virt. eigenvalues --    0.04963   0.11213   0.16445   0.21342   0.23617
 Alpha virt. eigenvalues --    0.25312   0.27257   0.27424   0.28167   0.28271
 Alpha virt. eigenvalues --    0.29148   0.30914   0.32268   0.32456   0.32628

 Mulliken charges:
               1
     1  C   -0.170711
     2  C   -0.218559
     3  C   -0.170645
     4  C    0.157791
     5  C   -0.171018
     6  C   -0.218507
     7  H    0.225862
     8  H    0.223713
     9  H    0.275849
    10  H    0.275485
    11  H    0.223661
    12  N    0.490488
    13  O   -0.460305
    14  O   -0.459260
    15  C   -0.297156
    16  C   -0.298851
    17  C   -0.475153
    18  H    0.147497
    19  H    0.148457
    20  H    0.150432
    21  H    0.151464
    22  H    0.154694
    23  H    0.153957
    24  H    0.158404
    25  C   -0.296955
    26  C   -0.301755
    27  C   -0.468771
    28  H    0.147031
    29  H    0.148512
    30  H    0.147057
    31  H    0.147191
    32  H    0.149186
    33  H    0.159698
    34  H    0.171218
 Sum of Mulliken charges =  -0.00000

 Dipole moment (field-independent basis, Debye):
    X=             -4.3255    Y=              3.3415    Z=             -0.1549  Tot=              5.4681
 Quadrupole moment (field-independent basis, Debye-Ang):
   XX=            -67.3701   YY=            -92.8557   ZZ=            -94.6894
   XY=            -10.5670   XZ=              1.8604   YZ=              1.7775

 Normal termination of Gaussian 16 at Thu May  6 11:06:06 2021.
