 Gaussian 16, Revision A.03,
 Gaussian 16:  EM64L-G16RevA.03 25-Dec-2016

 -------------
 #p 6-31g* mp2
 -------------

 ------------------------------------------------------
 Input file generated by CHIRIPA (05-May-2021 14:57:27)
 ------------------------------------------------------
 Symbolic Z-matrix:
 Charge =  0 Multiplicity = 1

                         Standard orientation:
 ---------------------------------------------------------------------
 Center     Atomic      Atomic             Coordinates (Angstroms)
 Number     Number       Type             X           Y           Z
 ---------------------------------------------------------------------
      1          6           0        4.499458    1.404927   -1.262614
      2          6           0        4.356298    0.061747   -1.625786
      3          6           0        3.575132   -0.803165   -0.853610
      4          6           0        2.948444   -0.289017    0.280499
      5          6           0        3.071758    1.044248    0.668426
      6          6           0        3.857863    1.891034   -0.118684
      7          1           0        5.108204    2.069771   -1.868260
      8          1           0        4.853408   -0.318528   -2.513658
      9          1           0        3.447255   -1.847402   -1.111745
     10          1           0        2.563984    1.394256    1.558975
     11          1           0        3.967256    2.933705    0.165773
     12          7           0        2.118845   -1.195066    1.105872
     13          8           0        1.577057   -0.717558    2.100402
     14          8           0        2.026101   -2.365578    0.742641
     15          6           0       -3.116652    2.612928    0.353549
     16          6           0       -4.276263    1.975285   -0.099478
     17          6           0       -4.270398    0.605381   -0.378542
     18          6           0       -3.082129   -0.099415   -0.192614
     19          6           0       -1.910553    0.507360    0.257415
     20          6           0       -1.939573    1.878227    0.530238
     21          1           0       -3.130202    3.677476    0.567908
     22          1           0       -5.191833    2.543348   -0.237613
     23          1           0       -5.153813    0.086569   -0.730438
     24          1           0       -1.012989   -0.085428    0.385477
     25          1           0       -1.037504    2.370790    0.881941
     26          7           0       -3.063662   -1.550180   -0.484742
     27          8           0       -2.004029   -2.148720   -0.312804
     28          8           0       -4.109173   -2.061279   -0.880120
 ---------------------------------------------------------------------

 SCF Done:  E(RHF) =  -868.337128989     A.U. after   16 cycles
 E2 =    -0.2600102652D+01 EUMP2 =    -0.87093723164061D+03

 The electronic state is 1-A.
 Alpha  occ. eigenvalues --  -20.61031 -20.60934 -20.60116 -20.60061 -15.86018
 Alpha  occ. eigenvalues --  -15.85144 -11.31472 -11.30639 -11.28106 -11.27977
 Alpha  occ. eigenvalues --  -11.27776 -11.27275 -11.27176 -11.27106 -11.27071
 Alpha  occ. eigenvalues --  -11.27016 -11.26327 -11.26300  -1.60048  -1.59171
 Alpha  occ. eigenvalues --   -1.39599  -1.38715  -1.19645  -1.18847  -1.09020
 Alpha  occ. eigenvalues --   -1.08231  -1.05056  -1.04267  -0.95839  -0.95033
 Alpha  occ. eigenvalues --   -0.86448  -0.85667  -0.82666  -0.81856  -0.77712
 Alpha  occ. eigenvalues --   -0.76871  -0.72217  -0.71441  -0.71308  -0.70740
 Alpha  occ. eigenvalues --   -0.70501  -0.69959  -0.65290  -0.65051  -0.64500
 Alpha  occ. eigenvalues --   -0.64289  -0.62402  -0.61602  -0.55538  -0.54803
 Alpha  occ. eigenvalues --   -0.53384  -0.53143  -0.52598  -0.52370  -0.49005
 Alpha  occ. eigenvalues --   -0.48960  -0.48145  -0.48103  -0.44960  -0.44091
 Alpha  occ. eigenvalues --   -0.37624  -0.36863  -0.36665  -0.35872
 Alpha virt. eigenvalues --    0.04809   0.05665   0.10965   0.11774   0.16281
 Alpha virt. eigenvalues --    0.17109   0.20896   0.21845   0.26447   0.27389
 Alpha virt. eigenvalues --    0.28451   0.28583   0.30774   0.31138   0.32530

 Mulliken charges:
               1
     1  C   -0.170791
     2  C   -0.218146
     3  C   -0.169322
     4  C    0.157102
     5  C   -0.175993
     6  C   -0.218191
     7  H    0.226399
     8  H    0.225667
     9  H    0.280001
    10  H    0.271237
    11  H    0.222192
    12  N    0.486119
    13  O   -0.466766
    14  O   -0.446123
    15  C   -0.171273
    16  C   -0.219233
    17  C   -0.170978
    18  C    0.157400
    19  C   -0.169571
    20  C   -0.218569
    21  H    0.222310
    22  H    0.221191
    23  H    0.274447
    24  H    0.282034
    25  H    0.218782
    26  N    0.486913
    27  O   -0.452480
    28  O   -0.464355
 Sum of Mulliken charges =  -0.00000

 Dipole moment (field-independent basis, Debye):
    X=              3.1186    Y=              7.9775    Z=             -1.9530  Tot=              8.7852
 Quadrupole moment (field-independent basis, Debye-Ang):
   XX=            -83.2353   YY=           -105.6115   ZZ=           -105.9299
   XY=             -8.4892   XZ=            -10.8758   YZ=              3.2070

 Normal termination of Gaussian 16 at Fri May  7 05:08:21 2021.
