 Gaussian 16, Revision A.03,
 Gaussian 16:  EM64L-G16RevA.03 25-Dec-2016

 -------------
 #p 6-31g* mp2
 -------------

 ------------------------------------------------------
 Input file generated by CHIRIPA (05-May-2021 14:55:23)
 ------------------------------------------------------
 Symbolic Z-matrix:
 Charge =  0 Multiplicity = 1

                         Standard orientation:
 ---------------------------------------------------------------------
 Center     Atomic      Atomic             Coordinates (Angstroms)
 Number     Number       Type             X           Y           Z
 ---------------------------------------------------------------------
      1          6           0        2.831374   -2.224212   -0.763951
      2          6           0        1.754717   -1.374053   -0.490898
      3          6           0        1.975767   -0.040287   -0.134871
      4          6           0        3.292292    0.412057   -0.061150
      5          6           0        4.385938   -0.410383   -0.327273
      6          6           0        4.141240   -1.740517   -0.681412
      7          1           0        2.650472   -3.258902   -1.039788
      8          1           0        0.736397   -1.746962   -0.554211
      9          1           0        1.160736    0.639580    0.081747
     10          1           0        5.389867   -0.009827   -0.255861
     11          1           0        4.979323   -2.398487   -0.892921
     12          7           0        3.538826    1.822132    0.314761
     13          8           0        4.708128    2.196316    0.372704
     14          8           0        2.558089    2.526466    0.544340
     15          6           0       -3.908855   -0.845032    0.533044
     16          6           0       -2.388981   -1.003971    0.481003
     17          6           0       -1.897536   -2.238978    1.236671
     18          1           0       -4.229289   -0.786275    1.582241
     19          1           0       -4.379223   -1.744628    0.112478
     20          1           0       -1.921603   -0.103756    0.900273
     21          1           0       -2.072107   -1.062163   -0.568197
     22          1           0       -2.336668   -3.148799    0.814783
     23          1           0       -2.185309   -2.184946    2.291596
     24          1           0       -0.808287   -2.333231    1.186548
     25          6           0       -4.415396    0.385103   -0.217896
     26          6           0       -5.935270    0.544042   -0.165855
     27          6           0       -6.426715    1.779049   -0.921523
     28          1           0       -3.945028    1.284699    0.202669
     29          1           0       -4.094962    0.326347   -1.267093
     30          1           0       -6.252144    0.602235    0.883344
     31          1           0       -6.402648   -0.356173   -0.585125
     32          1           0       -6.138942    1.725018   -1.976449
     33          1           0       -5.987582    2.688871   -0.499636
     34          1           0       -7.515964    1.873303   -0.871400
 ---------------------------------------------------------------------

 SCF Done:  E(RHF) =  -669.535563982     A.U. after   15 cycles
 E2 =    -0.2091409627D+01 EUMP2 =    -0.67162697360876D+03

 The electronic state is 1-A.
 Alpha  occ. eigenvalues --  -20.60738 -20.60733 -15.85792 -11.31150 -11.27730
 Alpha  occ. eigenvalues --  -11.27710 -11.27465 -11.26739 -11.26689 -11.22460
 Alpha  occ. eigenvalues --  -11.21957 -11.21946 -11.21883 -11.21750 -11.21254
 Alpha  occ. eigenvalues --   -1.59814  -1.39368  -1.19325  -1.08956  -1.08721
 Alpha  occ. eigenvalues --   -1.04728  -1.04077  -0.96512  -0.95556  -0.87527
 Alpha  occ. eigenvalues --   -0.86123  -0.82388  -0.80167  -0.78727  -0.77436
 Alpha  occ. eigenvalues --   -0.72010  -0.71137  -0.70433  -0.65584  -0.64976
 Alpha  occ. eigenvalues --   -0.64763  -0.62148  -0.61458  -0.59880  -0.58112
 Alpha  occ. eigenvalues --   -0.55770  -0.55224  -0.53325  -0.53068  -0.53009
 Alpha  occ. eigenvalues --   -0.52592  -0.50433  -0.48768  -0.48765  -0.48471
 Alpha  occ. eigenvalues --   -0.47193  -0.46273  -0.46162  -0.44775  -0.44316
 Alpha  occ. eigenvalues --   -0.37307  -0.36321
 Alpha virt. eigenvalues --    0.05091   0.11257   0.16513   0.19634   0.22695
 Alpha virt. eigenvalues --    0.23822   0.25688   0.26008   0.26948   0.28227
 Alpha virt. eigenvalues --    0.29110   0.29943   0.31033   0.31330   0.31773

 Mulliken charges:
               1
     1  C   -0.171900
     2  C   -0.224667
     3  C   -0.173414
     4  C    0.158728
     5  C   -0.170771
     6  C   -0.218533
     7  H    0.225824
     8  H    0.232592
     9  H    0.276782
    10  H    0.275506
    11  H    0.223256
    12  N    0.488113
    13  O   -0.460616
    14  O   -0.460529
    15  C   -0.298109
    16  C   -0.305059
    17  C   -0.480780
    18  H    0.152844
    19  H    0.150421
    20  H    0.154992
    21  H    0.146918
    22  H    0.156713
    23  H    0.162119
    24  H    0.154837
    25  C   -0.299513
    26  C   -0.300198
    27  C   -0.476190
    28  H    0.152572
    29  H    0.149530
    30  H    0.153028
    31  H    0.151744
    32  H    0.155427
    33  H    0.157102
    34  H    0.161230
 Sum of Mulliken charges =  -0.00000

 Dipole moment (field-independent basis, Debye):
    X=             -1.0520    Y=             -4.9345    Z=             -1.2807  Tot=              5.2054
 Quadrupole moment (field-independent basis, Debye-Ang):
   XX=            -95.0672   YY=            -99.8177   ZZ=            -94.8628
   XY=            -17.3679   XZ=             -5.1822   YZ=              0.7367

 Normal termination of Gaussian 16 at Wed May  5 20:43:10 2021.
