 Gaussian 16, Revision A.03,
 Gaussian 16:  EM64L-G16RevA.03 25-Dec-2016

 -------------
 #p 6-31g* mp2
 -------------

 ------------------------------------------------------
 Input file generated by CHIRIPA (05-May-2021 14:55:24)
 ------------------------------------------------------
 Symbolic Z-matrix:
 Charge =  0 Multiplicity = 1

                         Standard orientation:
 ---------------------------------------------------------------------
 Center     Atomic      Atomic             Coordinates (Angstroms)
 Number     Number       Type             X           Y           Z
 ---------------------------------------------------------------------
      1          6           0       -2.352204    2.190455    0.606372
      2          6           0       -2.219037    1.236130    1.620301
      3          6           0       -2.400385   -0.122472    1.344870
      4          6           0       -2.715551   -0.493164    0.038521
      5          6           0       -2.855019    0.433825   -0.993240
      6          6           0       -2.669211    1.786968   -0.694868
      7          1           0       -2.209597    3.243730    0.829244
      8          1           0       -1.972908    1.546587    2.631776
      9          1           0       -2.303283   -0.882305    2.110796
     10          1           0       -3.101031    0.093830   -1.991889
     11          1           0       -2.773258    2.525906   -1.484292
     12          7           0       -2.909897   -1.928566   -0.265209
     13          8           0       -3.187004   -2.229382   -1.424242
     14          8           0       -2.781438   -2.725637    0.661512
     15          6           0        4.007985   -0.097520   -0.384625
     16          6           0        4.509685   -1.143902    0.611048
     17          6           0        5.656223   -1.988182    0.053878
     18          1           0        3.680378   -0.602531   -1.303636
     19          1           0        4.842809    0.558005   -0.668791
     20          1           0        3.673848   -1.796401    0.894309
     21          1           0        4.835958   -0.636356    1.527868
     22          1           0        6.508058   -1.353789   -0.211684
     23          1           0        5.339346   -2.520424   -0.848844
     24          1           0        5.999434   -2.729692    0.782045
     25          6           0        2.861829    0.754396    0.157863
     26          6           0        2.360128    1.800779   -0.837810
     27          6           0        1.213590    2.645058   -0.280641
     28          1           0        2.027004    0.098871    0.442028
     29          1           0        3.189436    1.259408    1.076874
     30          1           0        2.033856    1.293233   -1.754631
     31          1           0        3.195966    2.453277   -1.121071
     32          1           0        1.530468    3.177301    0.622081
     33          1           0        0.361755    2.010665   -0.015078
     34          1           0        0.870380    3.386569   -1.008808
 ---------------------------------------------------------------------

 SCF Done:  E(RHF) =  -669.534740706     A.U. after   15 cycles
 E2 =    -0.2092481657D+01 EUMP2 =    -0.67162722236278D+03

 The electronic state is 1-A.
 Alpha  occ. eigenvalues --  -20.60819 -20.60814 -15.85875 -11.31248 -11.27835
 Alpha  occ. eigenvalues --  -11.27823 -11.27537 -11.26817 -11.26802 -11.21839
 Alpha  occ. eigenvalues --  -11.21622 -11.21556 -11.21441 -11.21364 -11.21046
 Alpha  occ. eigenvalues --   -1.59896  -1.39449  -1.19438  -1.08831  -1.08556
 Alpha  occ. eigenvalues --   -1.04831  -1.03671  -0.96144  -0.95646  -0.87162
 Alpha  occ. eigenvalues --   -0.86223  -0.82478  -0.79750  -0.78367  -0.77525
 Alpha  occ. eigenvalues --   -0.72091  -0.71222  -0.70525  -0.65189  -0.65076
 Alpha  occ. eigenvalues --   -0.64820  -0.62172  -0.61083  -0.59515  -0.57757
 Alpha  occ. eigenvalues --   -0.55515  -0.55316  -0.53348  -0.52914  -0.52817
 Alpha  occ. eigenvalues --   -0.52420  -0.50018  -0.48850  -0.48846  -0.48053
 Alpha  occ. eigenvalues --   -0.46755  -0.45913  -0.45818  -0.44853  -0.43935
 Alpha  occ. eigenvalues --   -0.37295  -0.36448
 Alpha virt. eigenvalues --    0.04996   0.11192   0.16462   0.21242   0.22755
 Alpha virt. eigenvalues --    0.24196   0.26532   0.27135   0.27388   0.27612
 Alpha virt. eigenvalues --    0.28566   0.30852   0.31311   0.31540   0.31967

 Mulliken charges:
               1
     1  C   -0.171557
     2  C   -0.218215
     3  C   -0.171402
     4  C    0.158066
     5  C   -0.171369
     6  C   -0.216405
     7  H    0.227806
     8  H    0.224393
     9  H    0.275988
    10  H    0.275875
    11  H    0.224181
    12  N    0.488080
    13  O   -0.460336
    14  O   -0.460388
    15  C   -0.298563
    16  C   -0.300168
    17  C   -0.475897
    18  H    0.151477
    19  H    0.149079
    20  H    0.154005
    21  H    0.150690
    22  H    0.154485
    23  H    0.156648
    24  H    0.160900
    25  C   -0.298713
    26  C   -0.298309
    27  C   -0.485115
    28  H    0.150889
    29  H    0.147849
    30  H    0.153063
    31  H    0.151549
    32  H    0.150625
    33  H    0.167256
    34  H    0.153534
 Sum of Mulliken charges =  -0.00000

 Dipole moment (field-independent basis, Debye):
    X=              0.6222    Y=              4.9984    Z=              1.0796  Tot=              5.1513
 Quadrupole moment (field-independent basis, Debye-Ang):
   XX=            -99.3331   YY=           -100.3928   ZZ=            -90.0844
   XY=            -13.8352   XZ=             -1.4644   YZ=             -1.4245

 Normal termination of Gaussian 16 at Thu May  6 17:42:51 2021.
