 Gaussian 16, Revision A.03,
 Gaussian 16:  EM64L-G16RevA.03 25-Dec-2016

 -------------
 #p 6-31g* mp2
 -------------

 ------------------------------------------------------
 Input file generated by CHIRIPA (05-May-2021 14:53:13)
 ------------------------------------------------------
 Symbolic Z-matrix:
 Charge =  0 Multiplicity = 1

                         Standard orientation:
 ---------------------------------------------------------------------
 Center     Atomic      Atomic             Coordinates (Angstroms)
 Number     Number       Type             X           Y           Z
 ---------------------------------------------------------------------
      1          6           0        4.138188   -0.015687   -0.322460
      2          6           0        3.151893   -1.169799   -0.140159
      3          6           0        1.705244   -0.760721   -0.418828
      4          1           0        3.854112    0.809817    0.344465
      5          1           0        4.056093    0.368992   -1.348461
      6          1           0        3.236806   -1.553089    0.884777
      7          1           0        3.438463   -1.992725   -0.807457
      8          1           0        1.598595   -0.397884   -1.446240
      9          1           0        1.395792    0.044249    0.255608
     10          1           0        1.017120   -1.600828   -0.282572
     11          6           0        5.588487   -0.409038   -0.047442
     12          6           0        6.574782    0.745074   -0.229743
     13          6           0        8.021431    0.335996    0.048926
     14          1           0        5.670582   -0.793716    0.978559
     15          1           0        5.872564   -1.234542   -0.714367
     16          1           0        6.288213    1.568000    0.437555
     17          1           0        6.489870    1.128365   -1.254679
     18          1           0        8.330883   -0.468974   -0.625510
     19          1           0        8.128080   -0.026840    1.076339
     20          1           0        8.709555    1.176103   -0.087330
     21          6           0       -1.496217    0.778123    0.972795
     22          6           0       -1.964385   -0.532671    1.111209
     23          6           0       -3.238897   -0.883196    0.655908
     24          6           0       -4.022153    0.106721    0.064416
     25          6           0       -3.583979    1.421299   -0.087823
     26          6           0       -2.306080    1.749213    0.374775
     27          1           0       -0.504830    1.041637    1.329318
     28          1           0       -1.337620   -1.288904    1.575239
     29          1           0       -3.626283   -1.890379    0.750414
     30          1           0       -4.231797    2.153322   -0.554611
     31          1           0       -1.945110    2.767988    0.265955
     32          7           0       -5.373215   -0.252395   -0.421454
     33          8           0       -6.043823    0.638151   -0.938995
     34          8           0       -5.735987   -1.417616   -0.275536
 ---------------------------------------------------------------------

 SCF Done:  E(RHF) =  -669.534988187     A.U. after   15 cycles
 E2 =    -0.2091458571D+01 EUMP2 =    -0.67162644675831D+03

 The electronic state is 1-A.
 Alpha  occ. eigenvalues --  -20.60721 -20.60716 -15.85775 -11.31128 -11.27704
 Alpha  occ. eigenvalues --  -11.27698 -11.27426 -11.26709 -11.26698 -11.22377
 Alpha  occ. eigenvalues --  -11.22092 -11.22079 -11.22047 -11.21930 -11.21479
 Alpha  occ. eigenvalues --   -1.59797  -1.39351  -1.19304  -1.09076  -1.08699
 Alpha  occ. eigenvalues --   -1.04707  -1.04189  -0.96655  -0.95535  -0.87672
 Alpha  occ. eigenvalues --   -0.86100  -0.82373  -0.80257  -0.78867  -0.77418
 Alpha  occ. eigenvalues --   -0.71994  -0.71121  -0.70441  -0.65708  -0.64956
 Alpha  occ. eigenvalues --   -0.64715  -0.62063  -0.61589  -0.60023  -0.58258
 Alpha  occ. eigenvalues --   -0.56042  -0.55163  -0.53426  -0.53093  -0.52913
 Alpha  occ. eigenvalues --   -0.52782  -0.50577  -0.48757  -0.48749  -0.48557
 Alpha  occ. eigenvalues --   -0.47282  -0.46414  -0.46323  -0.44760  -0.44434
 Alpha  occ. eigenvalues --   -0.37244  -0.36307
 Alpha virt. eigenvalues --    0.05101   0.11294   0.16531   0.20158   0.22492
 Alpha virt. eigenvalues --    0.23929   0.25527   0.26421   0.26533   0.27388
 Alpha virt. eigenvalues --    0.28937   0.29805   0.31165   0.31548   0.32402

 Mulliken charges:
               1
     1  C   -0.298258
     2  C   -0.300655
     3  C   -0.475596
     4  H    0.146584
     5  H    0.151347
     6  H    0.150797
     7  H    0.155726
     8  H    0.161172
     9  H    0.143626
    10  H    0.160343
    11  C   -0.298637
    12  C   -0.299984
    13  C   -0.476021
    14  H    0.149728
    15  H    0.151397
    16  H    0.151372
    17  H    0.152784
    18  H    0.156177
    19  H    0.155492
    20  H    0.161458
    21  C   -0.167632
    22  C   -0.218118
    23  C   -0.171617
    24  C    0.158422
    25  C   -0.170877
    26  C   -0.219846
    27  H    0.226460
    28  H    0.223723
    29  H    0.275298
    30  H    0.275366
    31  H    0.223167
    32  N    0.488101
    33  O   -0.460637
    34  O   -0.460661
 Sum of Mulliken charges =  -0.00000

 Dipole moment (field-independent basis, Debye):
    X=              4.9223    Y=              1.2383    Z=              1.6440  Tot=              5.3352
 Quadrupole moment (field-independent basis, Debye-Ang):
   XX=           -134.3816   YY=            -90.0589   ZZ=            -93.8678
   XY=             -5.3391   XZ=             -6.8393   YZ=             -1.0860

 Normal termination of Gaussian 16 at Thu May  6 04:10:53 2021.
