 Gaussian 16, Revision A.03,
 Gaussian 16:  EM64L-G16RevA.03 25-Dec-2016

 -------------
 #p 6-31g* mp2
 -------------

 ------------------------------------------------------
 Input file generated by CHIRIPA (05-May-2021 14:51:13)
 ------------------------------------------------------
 Symbolic Z-matrix:
 Charge =  0 Multiplicity = 1

                         Standard orientation:
 ---------------------------------------------------------------------
 Center     Atomic      Atomic             Coordinates (Angstroms)
 Number     Number       Type             X           Y           Z
 ---------------------------------------------------------------------
      1          6           0        2.122673    1.699582    0.287544
      2          6           0        0.735608    2.181047   -0.139337
      3          6           0        0.337881    3.500261    0.523446
      4          1           0        2.143505    1.583710    1.379828
      5          1           0        2.863467    2.472799    0.041061
      6          1           0       -0.002163    1.406570    0.106620
      7          1           0        0.718018    2.295602   -1.230751
      8          1           0        1.051696    4.290166    0.268265
      9          1           0        0.327424    3.396083    1.613235
     10          1           0       -0.657031    3.825993    0.204216
     11          6           0        2.534455    0.381927   -0.366635
     12          6           0        3.921520   -0.099538    0.060247
     13          6           0        4.319247   -1.418751   -0.602537
     14          1           0        1.793661   -0.391290   -0.120152
     15          1           0        2.513623    0.497799   -1.458919
     16          1           0        3.939110   -0.214093    1.151661
     17          1           0        4.659291    0.674939   -0.185711
     18          1           0        4.329704   -1.314573   -1.692325
     19          1           0        3.605432   -2.208657   -0.347355
     20          1           0        5.314159   -1.744484   -0.283306
     21          6           0       -2.773572   -0.634120   -0.429547
     22          6           0       -3.865094    0.150689    0.298901
     23          6           0       -4.747154    0.959187   -0.652991
     24          1           0       -2.150570    0.064327   -1.004860
     25          1           0       -3.241935   -1.309065   -1.159260
     26          1           0       -3.394882    0.822953    1.027995
     27          1           0       -4.485454   -0.549686    0.872700
     28          1           0       -5.242794    0.299652   -1.372682
     29          1           0       -4.146026    1.680089   -1.216504
     30          1           0       -5.520631    1.512427   -0.111217
     31          6           0       -1.883556   -1.447389    0.508638
     32          6           0       -0.792033   -2.232199   -0.219811
     33          6           0        0.090025   -3.040697    0.732081
     34          1           0       -1.415192   -0.772444    1.238350
     35          1           0       -2.506558   -2.145836    1.083950
     36          1           0       -0.171674   -1.531824   -0.793609
     37          1           0       -1.262246   -2.904462   -0.948905
     38          1           0       -0.511103   -3.761599    1.295593
     39          1           0        0.585667   -2.381162    1.451772
     40          1           0        0.863503   -3.593936    0.190307
 ---------------------------------------------------------------------

 SCF Done:  E(RHF) =  -470.732965404     A.U. after   11 cycles
 E2 =    -0.1584837794D+01 EUMP2 =    -0.47231780319808D+03

 The electronic state is 1-A.
 Alpha  occ. eigenvalues --  -11.21681 -11.21612 -11.21609 -11.21605 -11.21442
 Alpha  occ. eigenvalues --  -11.21431 -11.21364 -11.21359 -11.21154 -11.21140
 Alpha  occ. eigenvalues --  -11.21074 -11.21062  -1.08519  -1.08416  -1.03587
 Alpha  occ. eigenvalues --   -1.03546  -0.96036  -0.95997  -0.87036  -0.87026
 Alpha  occ. eigenvalues --   -0.79662  -0.79598  -0.78376  -0.78195  -0.65444
 Alpha  occ. eigenvalues --   -0.64794  -0.61089  -0.60866  -0.59417  -0.59346
 Alpha  occ. eigenvalues --   -0.57639  -0.57611  -0.55432  -0.55188  -0.52725
 Alpha  occ. eigenvalues --   -0.52700  -0.52488  -0.52381  -0.49966  -0.49950
 Alpha  occ. eigenvalues --   -0.47989  -0.47913  -0.46762  -0.46604  -0.46152
 Alpha  occ. eigenvalues --   -0.45810  -0.45730  -0.45288  -0.43821  -0.43807
 Alpha virt. eigenvalues --    0.19223   0.21804   0.23848   0.24851   0.26097
 Alpha virt. eigenvalues --    0.26490   0.26722   0.27552   0.27976   0.30529
 Alpha virt. eigenvalues --    0.30585   0.31371   0.31685   0.31922   0.32576

 Mulliken charges:
               1
     1  C   -0.297492
     2  C   -0.306910
     3  C   -0.475545
     4  H    0.149209
     5  H    0.149954
     6  H    0.157814
     7  H    0.151980
     8  H    0.155750
     9  H    0.155201
    10  H    0.160205
    11  C   -0.308789
    12  C   -0.298643
    13  C   -0.477647
    14  H    0.161101
    15  H    0.149130
    16  H    0.151696
    17  H    0.151916
    18  H    0.154986
    19  H    0.157135
    20  H    0.160300
    21  C   -0.301229
    22  C   -0.299830
    23  C   -0.475708
    24  H    0.152885
    25  H    0.149781
    26  H    0.151962
    27  H    0.151931
    28  H    0.155205
    29  H    0.155246
    30  H    0.160282
    31  C   -0.299631
    32  C   -0.306077
    33  C   -0.477978
    34  H    0.149258
    35  H    0.150224
    36  H    0.157375
    37  H    0.152878
    38  H    0.156034
    39  H    0.154626
    40  H    0.161412
 Sum of Mulliken charges =  -0.00000

 Dipole moment (field-independent basis, Debye):
    X=             -0.0036    Y=             -0.0090    Z=             -0.0114  Tot=              0.0150
 Quadrupole moment (field-independent basis, Debye-Ang):
   XX=            -84.9491   YY=            -85.1357   ZZ=            -84.6475
   XY=              1.6050   XZ=             -0.4826   YZ=             -0.3479

 Normal termination of Gaussian 16 at Wed May  5 21:36:20 2021.
