 Gaussian 16, Revision A.03,
 Gaussian 16:  EM64L-G16RevA.03 25-Dec-2016

 -------------
 #p 6-31g* mp2
 -------------

 ------------------------------------------------------
 Input file generated by CHIRIPA (05-May-2021 14:55:24)
 ------------------------------------------------------
 Symbolic Z-matrix:
 Charge =  0 Multiplicity = 1

                         Standard orientation:
 ---------------------------------------------------------------------
 Center     Atomic      Atomic             Coordinates (Angstroms)
 Number     Number       Type             X           Y           Z
 ---------------------------------------------------------------------
      1          6           0        2.976268    2.193429    0.299801
      2          6           0        4.046919    1.318962    0.513191
      3          6           0        3.886398   -0.057802    0.330700
      4          6           0        2.635870   -0.527891   -0.067401
      5          6           0        1.549943    0.317932   -0.287939
      6          6           0        1.733389    1.691009   -0.099379
      7          1           0        3.109869    3.261500    0.443922
      8          1           0        5.013286    1.706328    0.823235
      9          1           0        4.698309   -0.757225    0.488899
     10          1           0        0.598527   -0.097924   -0.596629
     11          1           0        0.900130    2.367780   -0.265833
     12          7           0        2.453799   -1.983457   -0.263809
     13          8           0        1.342029   -2.372523   -0.614856
     14          8           0        3.426308   -2.707703   -0.062987
     15          6           0       -3.392115    1.069208   -0.258837
     16          6           0       -2.180359    1.888467    0.186637
     17          6           0       -2.153971    3.287659   -0.429283
     18          1           0       -3.389819    0.989084   -1.354520
     19          1           0       -4.310314    1.607983    0.013242
     20          1           0       -1.264733    1.347655   -0.084966
     21          1           0       -2.185435    1.966489    1.281398
     22          1           0       -3.050551    3.849409   -0.147889
     23          1           0       -2.124617    3.227059   -1.522017
     24          1           0       -1.279472    3.855964   -0.097406
     25          6           0       -3.432531   -0.331940    0.348516
     26          6           0       -4.644286   -1.151198   -0.096958
     27          6           0       -4.670674   -2.550390    0.518962
     28          1           0       -2.514331   -0.870714    0.076436
     29          1           0       -3.434826   -0.251815    1.444199
     30          1           0       -4.639210   -1.229220   -1.191720
     31          1           0       -5.559912   -0.610386    0.174645
     32          1           0       -4.700028   -2.489790    1.611695
     33          1           0       -3.774095   -3.112140    0.237567
     34          1           0       -5.545173   -3.118695    0.187084
 ---------------------------------------------------------------------

 SCF Done:  E(RHF) =  -669.534653172     A.U. after   15 cycles
 E2 =    -0.2092806531D+01 EUMP2 =    -0.67162745970271D+03

 The electronic state is 1-A.
 Alpha  occ. eigenvalues --  -20.60762 -20.60757 -15.85813 -11.31153 -11.27715
 Alpha  occ. eigenvalues --  -11.27700 -11.27444 -11.26732 -11.26664 -11.22458
 Alpha  occ. eigenvalues --  -11.22034 -11.21851 -11.21628 -11.21542 -11.20898
 Alpha  occ. eigenvalues --   -1.59835  -1.39390  -1.19319  -1.08838  -1.08714
 Alpha  occ. eigenvalues --   -1.04732  -1.03935  -0.96371  -0.95561  -0.87387
 Alpha  occ. eigenvalues --   -0.86118  -0.82414  -0.80070  -0.78566  -0.77435
 Alpha  occ. eigenvalues --   -0.72034  -0.71156  -0.70445  -0.65519  -0.64961
 Alpha  occ. eigenvalues --   -0.64747  -0.62246  -0.61208  -0.59777  -0.57955
 Alpha  occ. eigenvalues --   -0.55635  -0.55211  -0.53114  -0.53049  -0.52920
 Alpha  occ. eigenvalues --   -0.52640  -0.50302  -0.48793  -0.48785  -0.48339
 Alpha  occ. eigenvalues --   -0.47088  -0.46094  -0.45967  -0.44801  -0.44171
 Alpha  occ. eigenvalues --   -0.37298  -0.36305
 Alpha virt. eigenvalues --    0.05075   0.11323   0.16546   0.19483   0.22718
 Alpha virt. eigenvalues --    0.23558   0.24621   0.26392   0.26785   0.28508
 Alpha virt. eigenvalues --    0.30019   0.30673   0.31198   0.31421   0.32277

 Mulliken charges:
               1
     1  C   -0.172375
     2  C   -0.218507
     3  C   -0.171196
     4  C    0.159478
     5  C   -0.177180
     6  C   -0.223718
     7  H    0.225599
     8  H    0.223259
     9  H    0.275345
    10  H    0.277902
    11  H    0.233817
    12  N    0.488853
    13  O   -0.461759
    14  O   -0.460286
    15  C   -0.298222
    16  C   -0.306495
    17  C   -0.479458
    18  H    0.151101
    19  H    0.151610
    20  H    0.144745
    21  H    0.156912
    22  H    0.162307
    23  H    0.158048
    24  H    0.152263
    25  C   -0.301694
    26  C   -0.299905
    27  C   -0.477306
    28  H    0.155216
    29  H    0.150494
    30  H    0.153046
    31  H    0.150870
    32  H    0.154729
    33  H    0.162100
    34  H    0.160408
 Sum of Mulliken charges =  -0.00000

 Dipole moment (field-independent basis, Debye):
    X=              0.4647    Y=              5.0640    Z=              0.7142  Tot=              5.1352
 Quadrupole moment (field-independent basis, Debye-Ang):
   XX=            -85.9840   YY=           -101.5074   ZZ=            -94.8580
   XY=             12.1528   XZ=              2.8657   YZ=             -0.2315

 Normal termination of Gaussian 16 at Thu May  6 09:29:44 2021.
