 Gaussian 16, Revision A.03,
 Gaussian 16:  EM64L-G16RevA.03 25-Dec-2016

 -------------
 #p 6-31g* mp2
 -------------

 ------------------------------------------------------
 Input file generated by CHIRIPA (05-May-2021 14:55:22)
 ------------------------------------------------------
 Symbolic Z-matrix:
 Charge =  0 Multiplicity = 1

                         Standard orientation:
 ---------------------------------------------------------------------
 Center     Atomic      Atomic             Coordinates (Angstroms)
 Number     Number       Type             X           Y           Z
 ---------------------------------------------------------------------
      1          6           0        2.996933    2.599309    0.246297
      2          6           0        4.107278    2.152883   -0.477830
      3          6           0        4.347709    0.784925   -0.637303
      4          6           0        3.453295   -0.112932   -0.056642
      5          6           0        2.338205    0.300732    0.670507
      6          6           0        2.117491    1.673441    0.817148
      7          1           0        2.817819    3.663817    0.365195
      8          1           0        4.791948    2.869648   -0.922262
      9          1           0        5.199512    0.411857   -1.192883
     10          1           0        1.673433   -0.437757    1.101934
     11          1           0        1.254367    2.017263    1.380040
     12          7           0        3.697392   -1.563642   -0.218676
     13          8           0        2.894435   -2.334408    0.302685
     14          8           0        4.687050   -1.902475   -0.863972
     15          6           0       -5.111614   -0.307300    0.139729
     16          6           0       -6.023683    0.557672   -0.730869
     17          6           0       -7.506883    0.254280   -0.516701
     18          1           0       -5.305616   -1.366749   -0.076780
     19          1           0       -5.369769   -0.151849    1.196415
     20          1           0       -5.762959    0.401681   -1.785528
     21          1           0       -5.827352    1.615189   -0.512401
     22          1           0       -7.788896    0.428123    0.526777
     23          1           0       -7.724138   -0.792280   -0.753583
     24          1           0       -8.140805    0.883862   -1.148864
     25          6           0       -3.625832   -0.015678   -0.063090
     26          6           0       -2.713765   -0.880649    0.807507
     27          6           0       -1.230565   -0.577257    0.593339
     28          1           0       -3.367678   -0.171128   -1.119776
     29          1           0       -3.431831    1.043772    0.153418
     30          1           0       -2.910096   -1.938166    0.589039
     31          1           0       -2.974488   -0.724658    1.862167
     32          1           0       -1.013309    0.469303    0.830222
     33          1           0       -0.948551   -0.751100   -0.450139
     34          1           0       -0.596643   -1.206839    1.225501
 ---------------------------------------------------------------------

 SCF Done:  E(RHF) =  -669.535155425     A.U. after   15 cycles
 E2 =    -0.2091749710D+01 EUMP2 =    -0.67162690513518D+03

 The electronic state is 1-A.
 Alpha  occ. eigenvalues --  -20.60699 -20.60694 -15.85750 -11.31074 -11.27673
 Alpha  occ. eigenvalues --  -11.27592 -11.27418 -11.26682 -11.26654 -11.21930
 Alpha  occ. eigenvalues --  -11.21793 -11.21680 -11.21623 -11.21579 -11.21220
 Alpha  occ. eigenvalues --   -1.59774  -1.39328  -1.19262  -1.08698  -1.08668
 Alpha  occ. eigenvalues --   -1.04666  -1.03822  -0.96305  -0.95501  -0.87340
 Alpha  occ. eigenvalues --   -0.86060  -0.82339  -0.79907  -0.78500  -0.77372
 Alpha  occ. eigenvalues --   -0.71971  -0.71096  -0.70381  -0.65327  -0.64916
 Alpha  occ. eigenvalues --   -0.64685  -0.62061  -0.61205  -0.59643  -0.57892
 Alpha  occ. eigenvalues --   -0.55586  -0.55186  -0.53195  -0.53026  -0.52672
 Alpha  occ. eigenvalues --   -0.52540  -0.50231  -0.48727  -0.48726  -0.48204
 Alpha  occ. eigenvalues --   -0.46905  -0.46047  -0.45956  -0.44742  -0.44068
 Alpha  occ. eigenvalues --   -0.37255  -0.36242
 Alpha virt. eigenvalues --    0.05129   0.11361   0.16584   0.20610   0.22711
 Alpha virt. eigenvalues --    0.23978   0.25780   0.26387   0.26870   0.27771
 Alpha virt. eigenvalues --    0.28862   0.29385   0.31422   0.31626   0.32211

 Mulliken charges:
               1
     1  C   -0.170758
     2  C   -0.219089
     3  C   -0.170525
     4  C    0.156817
     5  C   -0.171538
     6  C   -0.222488
     7  H    0.225088
     8  H    0.222946
     9  H    0.275186
    10  H    0.284223
    11  H    0.223635
    12  N    0.487566
    13  O   -0.461104
    14  O   -0.460814
    15  C   -0.298670
    16  C   -0.299727
    17  C   -0.475867
    18  H    0.151607
    19  H    0.149458
    20  H    0.152664
    21  H    0.150856
    22  H    0.155168
    23  H    0.156202
    24  H    0.160573
    25  C   -0.298734
    26  C   -0.300045
    27  C   -0.483502
    28  H    0.151379
    29  H    0.146759
    30  H    0.157511
    31  H    0.151689
    32  H    0.145533
    33  H    0.163674
    34  H    0.164328
 Sum of Mulliken charges =  -0.00000

 Dipole moment (field-independent basis, Debye):
    X=             -1.0010    Y=              5.0198    Z=              0.5311  Tot=              5.1461
 Quadrupole moment (field-independent basis, Debye-Ang):
   XX=            -98.6636   YY=            -95.8199   ZZ=            -93.5293
   XY=             18.9310   XZ=             -0.4279   YZ=             -0.4459

 Normal termination of Gaussian 16 at Thu May  6 03:03:54 2021.
