 Gaussian 16, Revision A.03,
 Gaussian 16:  EM64L-G16RevA.03 25-Dec-2016

 -------------
 #p 6-31g* mp2
 -------------

 ------------------------------------------------------
 Input file generated by CHIRIPA (05-May-2021 14:55:21)
 ------------------------------------------------------
 Symbolic Z-matrix:
 Charge =  0 Multiplicity = 1

                         Standard orientation:
 ---------------------------------------------------------------------
 Center     Atomic      Atomic             Coordinates (Angstroms)
 Number     Number       Type             X           Y           Z
 ---------------------------------------------------------------------
      1          6           0        0.938937    2.838177   -0.552559
      2          6           0        1.515812    2.015955   -1.526051
      3          6           0        2.118850    0.806682   -1.167510
      4          6           0        2.127086    0.448989    0.179812
      5          6           0        1.560785    1.246602    1.172992
      6          6           0        0.963222    2.451558    0.791486
      7          1           0        0.472609    3.775893   -0.840003
      8          1           0        1.498428    2.313665   -2.570614
      9          1           0        2.572907    0.151097   -1.900626
     10          1           0        1.593668    0.923025    2.206256
     11          1           0        0.515995    3.088111    1.549664
     12          7           0        2.762597   -0.828930    0.571540
     13          8           0        2.756721   -1.121428    1.765293
     14          8           0        3.254554   -1.513866   -0.322595
     15          6           0       -2.133474   -1.434710    0.018909
     16          6           0       -0.974506   -1.602889   -0.964196
     17          6           0       -0.072888   -2.788214   -0.617953
     18          1           0       -1.730245   -1.306640    1.032787
     19          1           0       -2.729371   -2.357791    0.033812
     20          1           0       -0.381774   -0.679262   -0.978270
     21          1           0       -1.380536   -1.730382   -1.975879
     22          1           0       -0.644863   -3.721713   -0.623081
     23          1           0        0.359573   -2.664621    0.380197
     24          1           0        0.748962   -2.889964   -1.333543
     25          6           0       -3.043732   -0.253879   -0.313951
     26          6           0       -4.202699   -0.085700    0.669154
     27          6           0       -5.104317    1.099625    0.322911
     28          1           0       -2.447836    0.669203   -0.328854
     29          1           0       -3.446961   -0.381948   -1.327829
     30          1           0       -3.796670    0.041793    1.680838
     31          1           0       -4.795432   -1.009326    0.683229
     32          1           0       -5.536778    0.976032   -0.675239
     33          1           0       -4.532343    2.033123    0.328039
     34          1           0       -5.926168    1.201376    1.038502
 ---------------------------------------------------------------------

 SCF Done:  E(RHF) =  -669.535196632     A.U. after   15 cycles
 E2 =    -0.2095042915D+01 EUMP2 =    -0.67163023954611D+03

 The electronic state is 1-A.
 Alpha  occ. eigenvalues --  -20.60914 -20.60906 -15.85925 -11.31290 -11.27887
 Alpha  occ. eigenvalues --  -11.27858 -11.27642 -11.26916 -11.26894 -11.21696
 Alpha  occ. eigenvalues --  -11.21396 -11.21278 -11.21240 -11.21177 -11.20375
 Alpha  occ. eigenvalues --   -1.59966  -1.39522  -1.19501  -1.08885  -1.08336
 Alpha  occ. eigenvalues --   -1.04899  -1.03391  -0.95826  -0.95714  -0.86825
 Alpha  occ. eigenvalues --   -0.86290  -0.82549  -0.79469  -0.78141  -0.77595
 Alpha  occ. eigenvalues --   -0.72165  -0.71325  -0.70594  -0.65146  -0.64983
 Alpha  occ. eigenvalues --   -0.64890  -0.62238  -0.60814  -0.59210  -0.57431
 Alpha  occ. eigenvalues --   -0.55395  -0.55117  -0.53284  -0.52980  -0.52470
 Alpha  occ. eigenvalues --   -0.52236  -0.49763  -0.48924  -0.48918  -0.47764
 Alpha  occ. eigenvalues --   -0.46518  -0.45660  -0.45567  -0.44914  -0.43583
 Alpha  occ. eigenvalues --   -0.37436  -0.36467
 Alpha virt. eigenvalues --    0.04900   0.11115   0.16375   0.21261   0.22812
 Alpha virt. eigenvalues --    0.24320   0.26608   0.27125   0.27532   0.27834
 Alpha virt. eigenvalues --    0.28490   0.30913   0.31387   0.31772   0.31896

 Mulliken charges:
               1
     1  C   -0.171317
     2  C   -0.215854
     3  C   -0.174843
     4  C    0.161574
     5  C   -0.172260
     6  C   -0.218074
     7  H    0.226576
     8  H    0.224557
     9  H    0.276111
    10  H    0.275994
    11  H    0.224210
    12  N    0.489650
    13  O   -0.460180
    14  O   -0.457659
    15  C   -0.296514
    16  C   -0.308990
    17  C   -0.484365
    18  H    0.149289
    19  H    0.150115
    20  H    0.154855
    21  H    0.148173
    22  H    0.153781
    23  H    0.161482
    24  H    0.170248
    25  C   -0.298142
    26  C   -0.299315
    27  C   -0.474908
    28  H    0.146136
    29  H    0.148523
    30  H    0.150860
    31  H    0.153467
    32  H    0.155379
    33  H    0.150920
    34  H    0.160524
 Sum of Mulliken charges =  -0.00000

 Dipole moment (field-independent basis, Debye):
    X=             -2.0394    Y=              4.4831    Z=             -1.3761  Tot=              5.1138
 Quadrupole moment (field-independent basis, Debye-Ang):
   XX=           -105.1981   YY=            -91.2263   ZZ=            -90.4041
   XY=              9.3020   XZ=             -4.5036   YZ=              1.5480

 Normal termination of Gaussian 16 at Wed May  5 22:15:28 2021.
