 Gaussian 16, Revision A.03,
 Gaussian 16:  EM64L-G16RevA.03 25-Dec-2016

 -------------
 #p 6-31g* mp2
 -------------

 ------------------------------------------------------
 Input file generated by CHIRIPA (05-May-2021 14:57:21)
 ------------------------------------------------------
 Symbolic Z-matrix:
 Charge =  0 Multiplicity = 1

                         Standard orientation:
 ---------------------------------------------------------------------
 Center     Atomic      Atomic             Coordinates (Angstroms)
 Number     Number       Type             X           Y           Z
 ---------------------------------------------------------------------
      1          6           0        5.943225    0.223217   -0.899078
      2          6           0        5.337391   -1.011211   -0.642809
      3          6           0        4.080381   -1.072420   -0.033934
      4          6           0        3.454816    0.125797    0.306999
      5          6           0        4.032536    1.371121    0.064725
      6          6           0        5.290015    1.408354   -0.545118
      7          1           0        6.919882    0.261452   -1.372443
      8          1           0        5.842347   -1.933217   -0.916615
      9          1           0        3.588523   -2.014455    0.175980
     10          1           0        3.504569    2.273231    0.349098
     11          1           0        5.758119    2.368454   -0.742933
     12          7           0        2.123828    0.073690    0.952100
     13          8           0        1.593474    1.143665    1.242812
     14          8           0        1.636155   -1.036141    1.154802
     15          6           0       -5.563423    1.535773   -0.115519
     16          6           0       -4.250049    1.974082   -0.314144
     17          6           0       -3.195426    1.057608   -0.363063
     18          6           0       -3.491534   -0.295849   -0.208911
     19          6           0       -4.789517   -0.763615   -0.009598
     20          6           0       -5.828498    0.170729    0.035853
     21          1           0       -6.376605    2.254652   -0.078864
     22          1           0       -4.041229    3.033585   -0.432010
     23          1           0       -2.169334    1.369521   -0.515582
     24          1           0       -4.966486   -1.826182    0.104645
     25          1           0       -6.847506   -0.172542    0.190239
     26          7           0       -2.383331   -1.275538   -0.258864
     27          8           0       -2.670538   -2.462532   -0.120310
     28          8           0       -1.248499   -0.837876   -0.435626
 ---------------------------------------------------------------------

 SCF Done:  E(RHF) =  -868.336309990     A.U. after   16 cycles
 E2 =    -0.2600197915D+01 EUMP2 =    -0.87093650790472D+03

 The electronic state is 1-A.
 Alpha  occ. eigenvalues --  -20.59865 -20.59708 -20.59686 -20.59578 -15.84843
 Alpha  occ. eigenvalues --  -15.84691 -11.30494 -11.30293 -11.27135 -11.27058
 Alpha  occ. eigenvalues --  -11.26932 -11.26912 -11.26853 -11.26729 -11.26210
 Alpha  occ. eigenvalues --  -11.26162 -11.26007 -11.25967  -1.58837  -1.58697
 Alpha  occ. eigenvalues --   -1.38393  -1.38245  -1.18695  -1.18501  -1.08040
 Alpha  occ. eigenvalues --   -1.07858  -1.04145  -1.03941  -0.94832  -0.94645
 Alpha  occ. eigenvalues --   -0.85530  -0.85330  -0.81667  -0.81480  -0.76660
 Alpha  occ. eigenvalues --   -0.76482  -0.71122  -0.70913  -0.70146  -0.69983
 Alpha  occ. eigenvalues --   -0.69812  -0.69618  -0.64348  -0.64169  -0.64143
 Alpha  occ. eigenvalues --   -0.63958  -0.61490  -0.61281  -0.54648  -0.54460
 Alpha  occ. eigenvalues --   -0.52456  -0.52260  -0.52245  -0.52042  -0.47912
 Alpha  occ. eigenvalues --   -0.47828  -0.47657  -0.47596  -0.43790  -0.43492
 Alpha  occ. eigenvalues --   -0.36695  -0.36508  -0.35761  -0.35555
 Alpha virt. eigenvalues --    0.05849   0.06118   0.11890   0.12096   0.17303
 Alpha virt. eigenvalues --    0.17528   0.21964   0.22166   0.27852   0.28057
 Alpha virt. eigenvalues --    0.28886   0.29105   0.31477   0.31689   0.33161

 Mulliken charges:
               1
     1  C   -0.171876
     2  C   -0.218726
     3  C   -0.169970
     4  C    0.160336
     5  C   -0.171980
     6  C   -0.218653
     7  H    0.223027
     8  H    0.222170
     9  H    0.278770
    10  H    0.272334
    11  H    0.220292
    12  N    0.489786
    13  O   -0.470280
    14  O   -0.444856
    15  C   -0.171740
    16  C   -0.219026
    17  C   -0.169496
    18  C    0.159009
    19  C   -0.171552
    20  C   -0.218918
    21  H    0.222355
    22  H    0.221273
    23  H    0.280700
    24  H    0.273844
    25  H    0.220337
    26  N    0.488127
    27  O   -0.465833
    28  O   -0.449453
 Sum of Mulliken charges =  -0.00000

 Dipole moment (field-independent basis, Debye):
    X=              0.8685    Y=              3.4479    Z=             -2.0469  Tot=              4.1027
 Quadrupole moment (field-independent basis, Debye-Ang):
   XX=            -46.6470   YY=            -99.6225   ZZ=           -108.0523
   XY=             -7.6203   XZ=             -6.9894   YZ=             -1.5604

 Normal termination of Gaussian 16 at Thu May  6 01:41:13 2021.
