 Gaussian 16, Revision A.03,
 Gaussian 16:  EM64L-G16RevA.03 25-Dec-2016

 -------------
 #p 6-31g* mp2
 -------------

 ------------------------------------------------------
 Input file generated by CHIRIPA (05-May-2021 14:55:25)
 ------------------------------------------------------
 Symbolic Z-matrix:
 Charge =  0 Multiplicity = 1

                         Standard orientation:
 ---------------------------------------------------------------------
 Center     Atomic      Atomic             Coordinates (Angstroms)
 Number     Number       Type             X           Y           Z
 ---------------------------------------------------------------------
      1          6           0        4.708995    1.804097   -0.025822
      2          6           0        4.376932    1.127541   -1.204180
      3          6           0        3.402351    0.125201   -1.196857
      4          6           0        2.776975   -0.176347    0.011970
      5          6           0        3.085839    0.479760    1.202523
      6          6           0        4.063526    1.478621    1.171657
      7          1           0        5.467279    2.581387   -0.040654
      8          1           0        4.876573    1.378207   -2.135615
      9          1           0        3.125887   -0.414415   -2.094521
     10          1           0        2.570503    0.207730    2.115675
     11          1           0        4.319377    2.002382    2.088314
     12          7           0        1.743585   -1.235638    0.032184
     13          8           0        1.207208   -1.482600    1.110120
     14          8           0        1.489558   -1.798891   -1.030292
     15          6           0       -3.139911   -0.405035    0.120617
     16          6           0       -3.333508   -1.908247   -0.081518
     17          6           0       -2.059058   -2.709618    0.185650
     18          1           0       -2.337788   -0.052683   -0.542249
     19          1           0       -2.798948   -0.221315    1.148909
     20          1           0       -3.675334   -2.088961   -1.108704
     21          1           0       -4.135394   -2.257026    0.581769
     22          1           0       -1.717803   -2.558776    1.214918
     23          1           0       -1.255130   -2.389757   -0.485160
     24          1           0       -2.220005   -3.781691    0.035266
     25          6           0       -4.405150    0.409550   -0.142731
     26          6           0       -4.211554    1.912762    0.059403
     27          6           0       -5.486003    2.714133   -0.207765
     28          1           0       -4.746114    0.225830   -1.171023
     29          1           0       -5.207272    0.057197    0.520136
     30          1           0       -3.409668    2.261541   -0.603882
     31          1           0       -3.869728    2.093476    1.086591
     32          1           0       -6.289932    2.394272    0.463046
     33          1           0       -5.827259    2.563291   -1.237031
     34          1           0       -5.325057    3.786206   -0.057379
 ---------------------------------------------------------------------

 SCF Done:  E(RHF) =  -669.536240961     A.U. after   15 cycles
 E2 =    -0.2091922734D+01 EUMP2 =    -0.67162816369457D+03

 The electronic state is 1-A.
 Alpha  occ. eigenvalues --  -20.61015 -20.61010 -15.86021 -11.31332 -11.27888
 Alpha  occ. eigenvalues --  -11.27884 -11.27621 -11.26889 -11.26879 -11.21043
 Alpha  occ. eigenvalues --  -11.20638 -11.20599 -11.20305 -11.20194 -11.18921
 Alpha  occ. eigenvalues --   -1.60054  -1.39612  -1.19493  -1.08901  -1.07478
 Alpha  occ. eigenvalues --   -1.04886  -1.02450  -0.95748  -0.94854  -0.86287
 Alpha  occ. eigenvalues --   -0.85863  -0.82580  -0.78579  -0.77637  -0.77203
 Alpha  occ. eigenvalues --   -0.72234  -0.71365  -0.70602  -0.65148  -0.64889
 Alpha  occ. eigenvalues --   -0.64125  -0.62233  -0.59855  -0.58368  -0.56471
 Alpha  occ. eigenvalues --   -0.55391  -0.54138  -0.53219  -0.52977  -0.51563
 Alpha  occ. eigenvalues --   -0.51321  -0.49156  -0.48990  -0.48642  -0.46746
 Alpha  occ. eigenvalues --   -0.45639  -0.45043  -0.44677  -0.44596  -0.42727
 Alpha  occ. eigenvalues --   -0.37469  -0.36485
 Alpha virt. eigenvalues --    0.04874   0.11170   0.16376   0.21307   0.23711
 Alpha virt. eigenvalues --    0.25489   0.27227   0.27549   0.28153   0.28375
 Alpha virt. eigenvalues --    0.29364   0.30887   0.32323   0.32564   0.32617

 Mulliken charges:
               1
     1  C   -0.170483
     2  C   -0.218572
     3  C   -0.170767
     4  C    0.159737
     5  C   -0.170663
     6  C   -0.218571
     7  H    0.226141
     8  H    0.223934
     9  H    0.275797
    10  H    0.275889
    11  H    0.223981
    12  N    0.488161
    13  O   -0.457010
    14  O   -0.460032
    15  C   -0.295962
    16  C   -0.300555
    17  C   -0.480462
    18  H    0.148197
    19  H    0.149378
    20  H    0.146606
    21  H    0.145260
    22  H    0.160890
    23  H    0.176893
    24  H    0.150788
    25  C   -0.297328
    26  C   -0.298517
    27  C   -0.475000
    28  H    0.147837
    29  H    0.147945
    30  H    0.149752
    31  H    0.150336
    32  H    0.154624
    33  H    0.154446
    34  H    0.157328
 Sum of Mulliken charges =  -0.00000

 Dipole moment (field-independent basis, Debye):
    X=              4.0594    Y=              3.6886    Z=             -0.0395  Tot=              5.4851
 Quadrupole moment (field-independent basis, Debye-Ang):
   XX=            -77.0217   YY=            -97.6136   ZZ=            -88.9793
   XY=             10.4896   XZ=             -1.3464   YZ=              0.8965

 Normal termination of Gaussian 16 at Wed May  5 17:39:35 2021.
