 Gaussian 16, Revision A.03,
 Gaussian 16:  EM64L-G16RevA.03 25-Dec-2016

 -------------
 #p 6-31g* mp2
 -------------

 ------------------------------------------------------
 Input file generated by CHIRIPA (05-May-2021 14:53:16)
 ------------------------------------------------------
 Symbolic Z-matrix:
 Charge =  0 Multiplicity = 1

                         Standard orientation:
 ---------------------------------------------------------------------
 Center     Atomic      Atomic             Coordinates (Angstroms)
 Number     Number       Type             X           Y           Z
 ---------------------------------------------------------------------
      1          6           0        4.559158   -0.409086    0.320430
      2          6           0        5.628319    0.668724    0.138204
      3          6           0        6.882830    0.403748    0.971140
      4          1           0        4.288703   -0.472277    1.383353
      5          1           0        4.982458   -1.385539    0.047023
      6          1           0        5.202710    1.643043    0.410553
      7          1           0        5.896122    0.729489   -0.924437
      8          1           0        7.333563   -0.554847    0.694488
      9          1           0        6.636212    0.363898    2.037064
     10          1           0        7.633977    1.186369    0.825736
     11          6           0        3.298980   -0.158160   -0.505836
     12          6           0        2.229818   -1.235969   -0.323610
     13          6           0        0.975307   -0.970994   -1.156547
     14          1           0        2.875680    0.818293   -0.232429
     15          1           0        3.569434   -0.094969   -1.568759
     16          1           0        1.962016   -1.296734    0.739030
     17          1           0        2.655427   -2.210289   -0.595960
     18          1           0        1.221926   -0.931144   -2.222470
     19          1           0        0.524574   -0.012399   -0.879895
     20          1           0        0.224160   -1.753615   -1.011142
     21          6           0       -3.645347   -2.198548    0.493613
     22          6           0       -2.939363   -1.837253   -0.658591
     23          6           0       -2.614928   -0.499370   -0.902224
     24          6           0       -3.013922    0.455549    0.031706
     25          6           0       -3.718246    0.127062    1.188993
     26          6           0       -4.031854   -1.216967    1.412108
     27          1           0       -3.893171   -3.240236    0.674904
     28          1           0       -2.637910   -2.597429   -1.373645
     29          1           0       -2.069202   -0.191890   -1.785998
     30          1           0       -4.005195    0.907312    1.883464
     31          1           0       -4.580218   -1.494642    2.307786
     32          7           0       -2.676189    1.875161   -0.215357
     33          8           0       -3.039146    2.697476    0.622912
     34          8           0       -2.054911    2.138656   -1.242597
 ---------------------------------------------------------------------

 SCF Done:  E(RHF) =  -669.535296418     A.U. after   15 cycles
 E2 =    -0.2092100477D+01 EUMP2 =    -0.67162739689445D+03

 The electronic state is 1-A.
 Alpha  occ. eigenvalues --  -20.60811 -20.60803 -15.85849 -11.31158 -11.27762
 Alpha  occ. eigenvalues --  -11.27722 -11.27505 -11.26749 -11.26731 -11.21650
 Alpha  occ. eigenvalues --  -11.21472 -11.21313 -11.21250 -11.21165 -11.20967
 Alpha  occ. eigenvalues --   -1.59877  -1.39432  -1.19354  -1.08757  -1.08365
 Alpha  occ. eigenvalues --   -1.04756  -1.03499  -0.95971  -0.95588  -0.86999
 Alpha  occ. eigenvalues --   -0.86147  -0.82429  -0.79580  -0.78166  -0.77469
 Alpha  occ. eigenvalues --   -0.72068  -0.71197  -0.70466  -0.65012  -0.64993
 Alpha  occ. eigenvalues --   -0.64753  -0.62116  -0.60891  -0.59345  -0.57565
 Alpha  occ. eigenvalues --   -0.55308  -0.55205  -0.53236  -0.52877  -0.52514
 Alpha  occ. eigenvalues --   -0.52351  -0.49883  -0.48826  -0.48824  -0.47879
 Alpha  occ. eigenvalues --   -0.46588  -0.45714  -0.45623  -0.44826  -0.43768
 Alpha  occ. eigenvalues --   -0.37339  -0.36285
 Alpha virt. eigenvalues --    0.05042   0.11237   0.16430   0.21175   0.22947
 Alpha virt. eigenvalues --    0.24320   0.26440   0.26742   0.27405   0.28042
 Alpha virt. eigenvalues --    0.28808   0.29777   0.31428   0.31726   0.32337

 Mulliken charges:
               1
     1  C   -0.298329
     2  C   -0.299944
     3  C   -0.475701
     4  H    0.149334
     5  H    0.148110
     6  H    0.154059
     7  H    0.152115
     8  H    0.154288
     9  H    0.154990
    10  H    0.160629
    11  C   -0.299403
    12  C   -0.299329
    13  C   -0.483096
    14  H    0.154705
    15  H    0.150043
    16  H    0.151962
    17  H    0.149758
    18  H    0.154629
    19  H    0.164814
    20  H    0.152818
    21  C   -0.170850
    22  C   -0.220851
    23  C   -0.164897
    24  C    0.156060
    25  C   -0.170795
    26  C   -0.219121
    27  H    0.225591
    28  H    0.223560
    29  H    0.279018
    30  H    0.275425
    31  H    0.223238
    32  N    0.488157
    33  O   -0.460148
    34  O   -0.460841
 Sum of Mulliken charges =  -0.00000

 Dipole moment (field-independent basis, Debye):
    X=             -1.1955    Y=             -4.9176    Z=              0.8761  Tot=              5.1361
 Quadrupole moment (field-independent basis, Debye-Ang):
   XX=            -88.0067   YY=            -99.4911   ZZ=            -91.0038
   XY=             14.1073   XZ=             -5.7805   YZ=              1.8697

 Normal termination of Gaussian 16 at Wed May  5 21:55:55 2021.
