 Gaussian 16, Revision A.03,
 Gaussian 16:  EM64L-G16RevA.03 25-Dec-2016

 -------------
 #p 6-31g* mp2
 -------------

 ------------------------------------------------------
 Input file generated by CHIRIPA (05-May-2021 14:57:26)
 ------------------------------------------------------
 Symbolic Z-matrix:
 Charge =  0 Multiplicity = 1

                         Standard orientation:
 ---------------------------------------------------------------------
 Center     Atomic      Atomic             Coordinates (Angstroms)
 Number     Number       Type             X           Y           Z
 ---------------------------------------------------------------------
      1          6           0        2.016953   -1.531105   -0.292205
      2          6           0        2.132670   -0.710010    0.834265
      3          6           0        3.302358    0.020761    1.063074
      4          6           0        4.341327   -0.093695    0.140721
      5          6           0        4.256330   -0.903219   -0.990975
      6          6           0        3.077282   -1.624923   -1.199629
      7          1           0        1.104676   -2.095264   -0.462121
      8          1           0        1.310819   -0.635209    1.540672
      9          1           0        3.418675    0.663972    1.926883
     10          1           0        5.092612   -0.957336   -1.677359
     11          1           0        2.990217   -2.261806   -2.075327
     12          7           0        5.584577    0.675141    0.372283
     13          8           0        6.485541    0.557042   -0.455337
     14          8           0        5.634532    1.381295    1.377016
     15          6           0       -1.943262    1.103680   -0.983349
     16          6           0       -2.032074   -0.213002   -0.519688
     17          6           0       -3.242123   -0.713029   -0.029481
     18          6           0       -4.348451    0.135017   -0.017405
     19          6           0       -4.291735    1.451465   -0.472419
     20          6           0       -3.071387    1.930254   -0.958279
     21          1           0       -0.999267    1.483863   -1.362465
     22          1           0       -1.157588   -0.857197   -0.537964
     23          1           0       -3.338909   -1.728296    0.335599
     24          1           0       -5.180668    2.069745   -0.441625
     25          1           0       -3.005354    2.953232   -1.317722
     26          7           0       -5.634927   -0.383098    0.499254
     27          8           0       -6.595080    0.384197    0.499276
     28          8           0       -5.658753   -1.546680    0.894407
 ---------------------------------------------------------------------

 SCF Done:  E(RHF) =  -868.336931014     A.U. after   16 cycles
 E2 =    -0.2599882868D+01 EUMP2 =    -0.87093681388201D+03

 The electronic state is 1-A.
 Alpha  occ. eigenvalues --  -20.61398 -20.61393 -20.61281 -20.61271 -15.86455
 Alpha  occ. eigenvalues --  -15.86339 -11.31988 -11.31802 -11.28545 -11.28533
 Alpha  occ. eigenvalues --  -11.28457 -11.28430 -11.28362 -11.28151 -11.27654
 Alpha  occ. eigenvalues --  -11.27625 -11.27538 -11.27360  -1.60470  -1.60353
 Alpha  occ. eigenvalues --   -1.40018  -1.39904  -1.20177  -1.19999  -1.09570
 Alpha  occ. eigenvalues --   -1.09367  -1.05586  -1.05433  -0.96372  -0.96180
 Alpha  occ. eigenvalues --   -0.86995  -0.86817  -0.83186  -0.83021  -0.78183
 Alpha  occ. eigenvalues --   -0.78060  -0.72670  -0.72553  -0.71796  -0.71679
 Alpha  occ. eigenvalues --   -0.71359  -0.71078  -0.65845  -0.65663  -0.65643
 Alpha  occ. eigenvalues --   -0.65381  -0.62921  -0.62774  -0.56207  -0.55868
 Alpha  occ. eigenvalues --   -0.53947  -0.53746  -0.53665  -0.53501  -0.49443
 Alpha  occ. eigenvalues --   -0.49415  -0.49321  -0.49302  -0.45386  -0.45288
 Alpha  occ. eigenvalues --   -0.38220  -0.37969  -0.37186  -0.37036
 Alpha virt. eigenvalues --    0.04298   0.04503   0.10341   0.10662   0.15621
 Alpha virt. eigenvalues --    0.15957   0.18466   0.21810   0.24828   0.26613
 Alpha virt. eigenvalues --    0.27720   0.28634   0.29732   0.31532   0.31635

 Mulliken charges:
               1
     1  C   -0.178174
     2  C   -0.220508
     3  C   -0.170987
     4  C    0.159483
     5  C   -0.170795
     6  C   -0.217942
     7  H    0.221300
     8  H    0.225680
     9  H    0.278343
    10  H    0.278159
    11  H    0.226065
    12  N    0.487814
    13  O   -0.458263
    14  O   -0.458354
    15  C   -0.172094
    16  C   -0.222735
    17  C   -0.171688
    18  C    0.159016
    19  C   -0.169701
    20  C   -0.218535
    21  H    0.229395
    22  H    0.215607
    23  H    0.274986
    24  H    0.277916
    25  H    0.226490
    26  N    0.488099
    27  O   -0.458308
    28  O   -0.460268
 Sum of Mulliken charges =  -0.00000

 Dipole moment (field-independent basis, Debye):
    X=              0.2466    Y=             -0.7228    Z=             -2.6425  Tot=              2.7506
 Quadrupole moment (field-independent basis, Debye-Ang):
   XX=           -180.0589   YY=            -99.8297   ZZ=           -102.1848
   XY=            -22.1018   XZ=              2.2869   YZ=              0.2788

 Normal termination of Gaussian 16 at Thu May  6 05:09:48 2021.
