 Gaussian 16, Revision A.03,
 Gaussian 16:  EM64L-G16RevA.03 25-Dec-2016

 -------------
 #p 6-31g* mp2
 -------------

 ------------------------------------------------------
 Input file generated by CHIRIPA (05-May-2021 14:53:16)
 ------------------------------------------------------
 Symbolic Z-matrix:
 Charge =  0 Multiplicity = 1

                         Standard orientation:
 ---------------------------------------------------------------------
 Center     Atomic      Atomic             Coordinates (Angstroms)
 Number     Number       Type             X           Y           Z
 ---------------------------------------------------------------------
      1          6           0       -2.680657    1.052829   -0.102343
      2          6           0       -3.478250    2.348617   -0.253228
      3          6           0       -2.589052    3.592414   -0.262633
      4          1           0       -2.097058    1.095129    0.827478
      5          1           0       -1.954720    0.979515   -0.923948
      6          1           0       -4.203414    2.418790    0.567643
      7          1           0       -4.060166    2.303148   -1.182702
      8          1           0       -1.874763    3.549066   -1.091193
      9          1           0       -2.018824    3.665366    0.669097
     10          1           0       -3.179710    4.507372   -0.371422
     11          6           0       -3.555681   -0.199344   -0.091225
     12          6           0       -2.758088   -1.495131    0.059660
     13          6           0       -3.647286   -2.738929    0.069065
     14          1           0       -4.281617   -0.126030    0.730381
     15          1           0       -4.139280   -0.241644   -1.021046
     16          1           0       -2.176172   -1.449662    0.989134
     17          1           0       -2.032924   -1.565305   -0.761210
     18          1           0       -4.217513   -2.811881   -0.862664
     19          1           0       -4.361575   -2.695581    0.897625
     20          1           0       -3.056628   -3.653887    0.177854
     21          6           0        0.792517   -2.246968    0.129302
     22          6           0        0.799735   -1.301293    1.159916
     23          6           0        1.705957   -0.236899    1.140528
     24          6           0        2.594962   -0.148395    0.070422
     25          6           0        2.612384   -1.074670   -0.971213
     26          6           0        1.697268   -2.130844   -0.931104
     27          1           0        0.085087   -3.070623    0.152410
     28          1           0        0.098242   -1.388962    1.984699
     29          1           0        1.733265    0.509264    1.925329
     30          1           0        3.323772   -0.960773   -1.780145
     31          1           0        1.693938   -2.863795   -1.732862
     32          7           0        3.559046    0.974080    0.038929
     33          8           0        4.332040    1.029677   -0.915024
     34          8           0        3.523445    1.777025    0.968793
 ---------------------------------------------------------------------

 SCF Done:  E(RHF) =  -669.534240977     A.U. after   15 cycles
 E2 =    -0.2093335367D+01 EUMP2 =    -0.67162757634446D+03

 The electronic state is 1-A.
 Alpha  occ. eigenvalues --  -20.60735 -20.60729 -15.85790 -11.31143 -11.27732
 Alpha  occ. eigenvalues --  -11.27719 -11.27442 -11.26735 -11.26709 -11.22444
 Alpha  occ. eigenvalues --  -11.21986 -11.21978 -11.21881 -11.21784 -11.21191
 Alpha  occ. eigenvalues --   -1.59811  -1.39365  -1.19328  -1.08998  -1.08707
 Alpha  occ. eigenvalues --   -1.04735  -1.04081  -0.96509  -0.95556  -0.87522
 Alpha  occ. eigenvalues --   -0.86138  -0.82393  -0.80193  -0.78762  -0.77434
 Alpha  occ. eigenvalues --   -0.72009  -0.71135  -0.70433  -0.65644  -0.64980
 Alpha  occ. eigenvalues --   -0.64741  -0.62111  -0.61454  -0.59937  -0.58126
 Alpha  occ. eigenvalues --   -0.55777  -0.55210  -0.53296  -0.53051  -0.52907
 Alpha  occ. eigenvalues --   -0.52821  -0.50438  -0.48775  -0.48764  -0.48461
 Alpha  occ. eigenvalues --   -0.47207  -0.46292  -0.46188  -0.44774  -0.44321
 Alpha  occ. eigenvalues --   -0.37221  -0.36313
 Alpha virt. eigenvalues --    0.05076   0.11239   0.16462   0.19791   0.22725
 Alpha virt. eigenvalues --    0.23739   0.24980   0.26235   0.26694   0.28476
 Alpha virt. eigenvalues --    0.29136   0.29691   0.31034   0.31784   0.32192

 Mulliken charges:
               1
     1  C   -0.297538
     2  C   -0.300440
     3  C   -0.475991
     4  H    0.146165
     5  H    0.152727
     6  H    0.151633
     7  H    0.152447
     8  H    0.157596
     9  H    0.156232
    10  H    0.161530
    11  C   -0.298636
    12  C   -0.302507
    13  C   -0.476310
    14  H    0.150235
    15  H    0.151710
    16  H    0.143745
    17  H    0.154391
    18  H    0.159266
    19  H    0.158447
    20  H    0.152815
    21  C   -0.167507
    22  C   -0.215942
    23  C   -0.171738
    24  C    0.158080
    25  C   -0.170712
    26  C   -0.221258
    27  H    0.228056
    28  H    0.222974
    29  H    0.275175
    30  H    0.275381
    31  H    0.223151
    32  N    0.488125
    33  O   -0.460746
    34  O   -0.460555
 Sum of Mulliken charges =  -0.00000

 Dipole moment (field-independent basis, Debye):
    X=             -3.4818    Y=             -3.8627    Z=              0.0467  Tot=              5.2006
 Quadrupole moment (field-independent basis, Debye-Ang):
   XX=           -112.5655   YY=            -94.5921   ZZ=            -90.2056
   XY=            -11.2180   XZ=             -1.7179   YZ=              1.5437

 Normal termination of Gaussian 16 at Wed May  5 20:21:08 2021.
