 Gaussian 16, Revision A.03,
 Gaussian 16:  EM64L-G16RevA.03 25-Dec-2016

 -------------
 #p 6-31g* mp2
 -------------

 ------------------------------------------------------
 Input file generated by CHIRIPA (05-May-2021 14:57:22)
 ------------------------------------------------------
 Symbolic Z-matrix:
 Charge =  0 Multiplicity = 1

                         Standard orientation:
 ---------------------------------------------------------------------
 Center     Atomic      Atomic             Coordinates (Angstroms)
 Number     Number       Type             X           Y           Z
 ---------------------------------------------------------------------
      1          6           0       -5.823955    1.293526   -0.391536
      2          6           0       -4.579469    1.916899   -0.530033
      3          6           0       -3.398548    1.200629   -0.313399
      4          6           0       -3.499485   -0.143513    0.042105
      5          6           0       -4.724433   -0.792766    0.187920
      6          6           0       -5.892344   -0.056937   -0.033632
      7          1           0       -6.736270    1.857539   -0.561733
      8          1           0       -4.523324    2.965561   -0.807886
      9          1           0       -2.421906    1.658367   -0.413713
     10          1           0       -4.748437   -1.839447    0.465953
     11          1           0       -6.857444   -0.543662    0.074650
     12          7           0       -2.256183   -0.912150    0.274049
     13          8           0       -2.372094   -2.095224    0.586358
     14          8           0       -1.189314   -0.316979    0.139147
     15          6           0        4.604981    2.358230    0.265803
     16          6           0        5.406861    1.360421   -0.298011
     17          6           0        4.918283    0.059637   -0.452282
     18          6           0        3.617330   -0.209525   -0.029950
     19          6           0        2.793963    0.762966    0.535396
     20          6           0        3.303385    2.056849    0.679976
     21          1           0        4.992616    3.366030    0.381880
     22          1           0        6.418080    1.591601   -0.620559
     23          1           0        5.517513   -0.731936   -0.885589
     24          1           0        1.789964    0.502196    0.847494
     25          1           0        2.678374    2.829758    1.118175
     26          7           0        3.089061   -1.582953   -0.188141
     27          8           0        1.939514   -1.794489    0.191901
     28          8           0        3.834553   -2.421906   -0.689176
 ---------------------------------------------------------------------

 SCF Done:  E(RHF) =  -868.336185177     A.U. after   16 cycles
 E2 =    -0.2600211294D+01 EUMP2 =    -0.87093639647091D+03

 The electronic state is 1-A.
 Alpha  occ. eigenvalues --  -20.60445 -20.60405 -20.59513 -20.59385 -15.85500
 Alpha  occ. eigenvalues --  -15.84502 -11.31051 -11.30177 -11.27676 -11.27611
 Alpha  occ. eigenvalues --  -11.27409 -11.26865 -11.26715 -11.26688 -11.26679
 Alpha  occ. eigenvalues --  -11.26672 -11.25947 -11.25894  -1.59479  -1.58541
 Alpha  occ. eigenvalues --   -1.39040  -1.38071  -1.19236  -1.18409  -1.08589
 Alpha  occ. eigenvalues --   -1.07765  -1.04672  -1.03854  -0.95394  -0.94530
 Alpha  occ. eigenvalues --   -0.86060  -0.85238  -0.82235  -0.81349  -0.77257
 Alpha  occ. eigenvalues --   -0.76322  -0.71711  -0.70823  -0.70691  -0.70347
 Alpha  occ. eigenvalues --   -0.69885  -0.69515  -0.64890  -0.64675  -0.64052
 Alpha  occ. eigenvalues --   -0.63872  -0.62022  -0.61168  -0.55158  -0.54385
 Alpha  occ. eigenvalues --   -0.52986  -0.52768  -0.52187  -0.51946  -0.48453
 Alpha  occ. eigenvalues --   -0.48428  -0.47535  -0.47399  -0.44411  -0.43403
 Alpha  occ. eigenvalues --   -0.37223  -0.36445  -0.36284  -0.35478
 Alpha virt. eigenvalues --    0.05287   0.06194   0.11368   0.12169   0.16739
 Alpha virt. eigenvalues --    0.17602   0.21442   0.22247   0.27355   0.27972
 Alpha virt. eigenvalues --    0.28382   0.29252   0.30986   0.31732   0.32546

 Mulliken charges:
               1
     1  C   -0.171378
     2  C   -0.218249
     3  C   -0.171226
     4  C    0.159005
     5  C   -0.170697
     6  C   -0.218346
     7  H    0.224869
     8  H    0.221612
     9  H    0.271220
    10  H    0.277037
    11  H    0.223481
    12  N    0.491111
    13  O   -0.452406
    14  O   -0.463900
    15  C   -0.171750
    16  C   -0.219601
    17  C   -0.171608
    18  C    0.155915
    19  C   -0.175078
    20  C   -0.220977
    21  H    0.221033
    22  H    0.219581
    23  H    0.273434
    24  H    0.294229
    25  H    0.219060
    26  N    0.485074
    27  O   -0.442312
    28  O   -0.469133
 Sum of Mulliken charges =  -0.00000

 Dipole moment (field-independent basis, Debye):
    X=             -2.8995    Y=              7.2698    Z=             -0.1817  Tot=              7.8288
 Quadrupole moment (field-independent basis, Debye-Ang):
   XX=            -58.1528   YY=           -105.0638   ZZ=           -105.5746
   XY=              9.4652   XZ=              2.1309   YZ=             -0.5096

 Normal termination of Gaussian 16 at Thu May  6 08:08:01 2021.
