 Gaussian 16, Revision A.03,
 Gaussian 16:  EM64L-G16RevA.03 25-Dec-2016

 -------------
 #p 6-31g* mp2
 -------------

 ------------------------------------------------------
 Input file generated by CHIRIPA (05-May-2021 14:53:11)
 ------------------------------------------------------
 Symbolic Z-matrix:
 Charge =  0 Multiplicity = 1

                         Standard orientation:
 ---------------------------------------------------------------------
 Center     Atomic      Atomic             Coordinates (Angstroms)
 Number     Number       Type             X           Y           Z
 ---------------------------------------------------------------------
      1          6           0       -2.119879   -0.306391   -0.148791
      2          6           0       -3.153054   -1.317829   -0.646313
      3          6           0       -2.559956   -2.710138   -0.864272
      4          1           0       -1.296386   -0.246372   -0.873498
      5          1           0       -1.683072   -0.671143    0.791183
      6          1           0       -3.588779   -0.950613   -1.584349
      7          1           0       -3.974276   -1.375307    0.079570
      8          1           0       -2.141774   -3.101139    0.068918
      9          1           0       -1.754086   -2.674032   -1.604456
     10          1           0       -3.315797   -3.417318   -1.219884
     11          6           0       -2.697662    1.090158    0.073799
     12          6           0       -1.664487    2.101596    0.571322
     13          6           0       -2.257586    3.493904    0.789281
     14          1           0       -3.134469    1.454909   -0.866175
     15          1           0       -3.521155    1.030138    0.798507
     16          1           0       -0.843265    2.159073   -0.154561
     17          1           0       -1.228762    1.734380    1.509358
     18          1           0       -3.063455    3.457799    1.529464
     19          1           0       -2.675767    3.884905   -0.143909
     20          1           0       -1.501744    4.201084    1.144893
     21          6           0        1.132243   -2.194752    1.525030
     22          6           0        1.745479   -1.065467    2.077460
     23          6           0        2.164842   -0.013028    1.258281
     24          6           0        1.954321   -0.123576   -0.115309
     25          6           0        1.346279   -1.235654   -0.695703
     26          6           0        0.934948   -2.276098    0.142647
     27          1           0        0.809591   -3.007653    2.168834
     28          1           0        1.899991   -0.999565    3.150693
     29          1           0        2.642184    0.872746    1.659489
     30          1           0        1.205851   -1.272598   -1.769171
     31          1           0        0.458973   -3.151906   -0.289152
     32          7           0        2.394031    0.984243   -0.992685
     33          8           0        2.197083    0.862577   -2.199766
     34          8           0        2.927297    1.953244   -0.456678
 ---------------------------------------------------------------------

 SCF Done:  E(RHF) =  -669.533129440     A.U. after   15 cycles
 E2 =    -0.2096405196D+01 EUMP2 =    -0.67162953463649D+03

 The electronic state is 1-A.
 Alpha  occ. eigenvalues --  -20.60803 -20.60796 -15.85853 -11.31181 -11.27752
 Alpha  occ. eigenvalues --  -11.27703 -11.27474 -11.26786 -11.26666 -11.21966
 Alpha  occ. eigenvalues --  -11.21812 -11.21511 -11.21427 -11.21348 -11.20900
 Alpha  occ. eigenvalues --   -1.59879  -1.39432  -1.19359  -1.08766  -1.08547
 Alpha  occ. eigenvalues --   -1.04767  -1.03707  -0.96181  -0.95601  -0.87223
 Alpha  occ. eigenvalues --   -0.86150  -0.82439  -0.79802  -0.78361  -0.77465
 Alpha  occ. eigenvalues --   -0.72071  -0.71201  -0.70480  -0.65210  -0.64996
 Alpha  occ. eigenvalues --   -0.64771  -0.62136  -0.61115  -0.59559  -0.57782
 Alpha  occ. eigenvalues --   -0.55488  -0.55264  -0.53321  -0.53018  -0.52798
 Alpha  occ. eigenvalues --   -0.52381  -0.50151  -0.48831  -0.48827  -0.48089
 Alpha  occ. eigenvalues --   -0.46826  -0.45833  -0.45754  -0.44834  -0.43914
 Alpha  occ. eigenvalues --   -0.37291  -0.36194
 Alpha virt. eigenvalues --    0.05011   0.11156   0.16446   0.20527   0.22874
 Alpha virt. eigenvalues --    0.24139   0.25622   0.26375   0.27160   0.27976
 Alpha virt. eigenvalues --    0.29243   0.30604   0.31062   0.31482   0.32362

 Mulliken charges:
               1
     1  C   -0.301484
     2  C   -0.298862
     3  C   -0.475574
     4  H    0.152468
     5  H    0.150063
     6  H    0.154877
     7  H    0.152302
     8  H    0.148143
     9  H    0.148458
    10  H    0.163024
    11  C   -0.298131
    12  C   -0.300396
    13  C   -0.475857
    14  H    0.151159
    15  H    0.147487
    16  H    0.155654
    17  H    0.148486
    18  H    0.152718
    19  H    0.157078
    20  H    0.162987
    21  C   -0.174219
    22  C   -0.218490
    23  C   -0.171008
    24  C    0.162387
    25  C   -0.175456
    26  C   -0.210041
    27  H    0.225214
    28  H    0.223283
    29  H    0.275549
    30  H    0.274381
    31  H    0.227394
    32  N    0.488108
    33  O   -0.461558
    34  O   -0.460144
 Sum of Mulliken charges =  -0.00000

 Dipole moment (field-independent basis, Debye):
    X=             -1.5300    Y=             -3.8408    Z=              3.0742  Tot=              5.1521
 Quadrupole moment (field-independent basis, Debye-Ang):
   XX=           -101.1422   YY=            -94.1366   ZZ=            -91.7318
   XY=             -6.2533   XZ=              7.8138   YZ=              1.7682

 Normal termination of Gaussian 16 at Thu May  6 02:28:20 2021.
