 Gaussian 16, Revision A.03,
 Gaussian 16:  EM64L-G16RevA.03 25-Dec-2016

 -------------
 #p 6-31g* mp2
 -------------

 ------------------------------------------------------
 Input file generated by CHIRIPA (05-May-2021 14:57:25)
 ------------------------------------------------------
 Symbolic Z-matrix:
 Charge =  0 Multiplicity = 1

                         Standard orientation:
 ---------------------------------------------------------------------
 Center     Atomic      Atomic             Coordinates (Angstroms)
 Number     Number       Type             X           Y           Z
 ---------------------------------------------------------------------
      1          6           0       -4.158897    1.629710   -0.709653
      2          6           0       -4.708533    0.388889   -0.370854
      3          6           0       -3.887600   -0.657431    0.060227
      4          6           0       -2.515125   -0.427095    0.141143
      5          6           0       -1.937506    0.797822   -0.189348
      6          6           0       -2.777573    1.829864   -0.617981
      7          1           0       -4.804049    2.436971   -1.043576
      8          1           0       -5.780938    0.230588   -0.441085
      9          1           0       -4.286636   -1.628042    0.328745
     10          1           0       -0.864803    0.925493   -0.109185
     11          1           0       -2.347944    2.792452   -0.880443
     12          7           0       -1.635912   -1.527229    0.596213
     13          8           0       -0.429863   -1.298863    0.658927
     14          8           0       -2.169481   -2.597049    0.881566
     15          6           0        2.326549    2.468403    1.080442
     16          6           0        2.367445    2.400326   -0.316058
     17          6           0        2.551709    1.174239   -0.962050
     18          6           0        2.692269    0.030904   -0.176989
     19          6           0        2.655983    0.066238    1.216110
     20          6           0        2.470695    1.303197    1.840729
     21          1           0        2.183011    3.425081    1.573962
     22          1           0        2.255782    3.303614   -0.909057
     23          1           0        2.587304    1.092863   -2.041647
     24          1           0        2.770273   -0.851347    1.780373
     25          1           0        2.439348    1.353062    2.925429
     26          7           0        2.887884   -1.272854   -0.849558
     27          8           0        3.009203   -2.265660   -0.135237
     28          8           0        2.916184   -1.277247   -2.078305
 ---------------------------------------------------------------------

 SCF Done:  E(RHF) =  -868.337575525     A.U. after   16 cycles
 E2 =    -0.2602031894D+01 EUMP2 =    -0.87093960741898D+03

 The electronic state is 1-A.
 Alpha  occ. eigenvalues --  -20.60808 -20.60761 -20.59962 -20.59874 -15.85845
 Alpha  occ. eigenvalues --  -15.84983 -11.31236 -11.30594 -11.27815 -11.27799
 Alpha  occ. eigenvalues --  -11.27597 -11.27354 -11.27161 -11.27136 -11.26875
 Alpha  occ. eigenvalues --  -11.26838 -11.26478 -11.26280  -1.59852  -1.58971
 Alpha  occ. eigenvalues --   -1.39411  -1.38524  -1.19424  -1.18857  -1.08817
 Alpha  occ. eigenvalues --   -1.08210  -1.04836  -1.04314  -0.95645  -0.94992
 Alpha  occ. eigenvalues --   -0.86234  -0.85693  -0.82488  -0.81833  -0.77526
 Alpha  occ. eigenvalues --   -0.76804  -0.72117  -0.71225  -0.71176  -0.70541
 Alpha  occ. eigenvalues --   -0.70212  -0.69994  -0.65085  -0.64850  -0.64518
 Alpha  occ. eigenvalues --   -0.64338  -0.62185  -0.61645  -0.55349  -0.54856
 Alpha  occ. eigenvalues --   -0.53164  -0.53025  -0.52523  -0.52413  -0.48813
 Alpha  occ. eigenvalues --   -0.48799  -0.48003  -0.47938  -0.44819  -0.43873
 Alpha  occ. eigenvalues --   -0.37416  -0.36861  -0.36441  -0.35908
 Alpha virt. eigenvalues --    0.04977   0.05808   0.11207   0.11738   0.16483
 Alpha virt. eigenvalues --    0.17174   0.21239   0.21771   0.27054   0.27678
 Alpha virt. eigenvalues --    0.28049   0.28716   0.30617   0.31292   0.32165

 Mulliken charges:
               1
     1  C   -0.170521
     2  C   -0.218845
     3  C   -0.170103
     4  C    0.158039
     5  C   -0.174042
     6  C   -0.219749
     7  H    0.224975
     8  H    0.223741
     9  H    0.276460
    10  H    0.279025
    11  H    0.219967
    12  N    0.492548
    13  O   -0.467189
    14  O   -0.456696
    15  C   -0.175508
    16  C   -0.226670
    17  C   -0.177694
    18  C    0.167709
    19  C   -0.153350
    20  C   -0.221224
    21  H    0.221678
    22  H    0.218016
    23  H    0.273549
    24  H    0.281507
    25  H    0.222768
    26  N    0.490641
    27  O   -0.451583
    28  O   -0.467449
 Sum of Mulliken charges =  -0.00000

 Dipole moment (field-independent basis, Debye):
    X=             -3.7964    Y=              8.0004    Z=              0.9406  Tot=              8.9053
 Quadrupole moment (field-independent basis, Debye-Ang):
   XX=            -90.6415   YY=           -106.4524   ZZ=           -103.2122
   XY=              5.8779   XZ=             10.4017   YZ=             -2.3521

 Normal termination of Gaussian 16 at Thu May  6 05:09:06 2021.
