 Gaussian 16, Revision A.03,
 Gaussian 16:  EM64L-G16RevA.03 25-Dec-2016

 -------------
 #p 6-31g* mp2
 -------------

 ------------------------------------------------------
 Input file generated by CHIRIPA (05-May-2021 14:55:20)
 ------------------------------------------------------
 Symbolic Z-matrix:
 Charge =  0 Multiplicity = 1

                         Standard orientation:
 ---------------------------------------------------------------------
 Center     Atomic      Atomic             Coordinates (Angstroms)
 Number     Number       Type             X           Y           Z
 ---------------------------------------------------------------------
      1          6           0        0.253566   -2.398246   -0.243867
      2          6           0        1.206173   -2.174030   -1.243261
      3          6           0        2.220586   -1.229948   -1.058266
      4          6           0        2.252585   -0.524767    0.143809
      5          6           0        1.317945   -0.725518    1.158422
      6          6           0        0.312389   -1.674550    0.951677
      7          1           0       -0.531014   -3.133554   -0.396023
      8          1           0        1.162952   -2.734596   -2.172746
      9          1           0        2.970828   -1.036391   -1.815294
     10          1           0        1.386962   -0.151267    2.074331
     11          1           0       -0.426080   -1.846584    1.729567
     12          7           0        3.321810    0.477311    0.351168
     13          8           0        3.328108    1.085531    1.419187
     14          8           0        4.133326    0.635544   -0.558251
     15          6           0       -3.415109    0.803321   -0.081457
     16          6           0       -3.853251   -0.634029    0.201459
     17          6           0       -5.371128   -0.777556    0.316529
     18          1           0       -3.787083    1.457558    0.718890
     19          1           0       -3.888417    1.147191   -1.011579
     20          1           0       -3.378165   -0.975561    1.130042
     21          1           0       -3.480028   -1.284950   -0.599554
     22          1           0       -5.859288   -0.462965   -0.611552
     23          1           0       -5.756845   -0.151819    1.127871
     24          1           0       -5.662281   -1.812997    0.518895
     25          6           0       -1.900380    0.962877   -0.199207
     26          6           0       -1.462239    2.400228   -0.482123
     27          6           0        0.055639    2.543755   -0.597192
     28          1           0       -1.427073    0.619007    0.730916
     29          1           0       -1.528408    0.308640   -0.999554
     30          1           0       -1.835461    3.051148    0.318891
     31          1           0       -1.937325    2.741760   -1.410705
     32          1           0        0.441355    1.918018   -1.408533
     33          1           0        0.543797    2.229164    0.330889
     34          1           0        0.346790    3.579196   -0.799558
 ---------------------------------------------------------------------

 SCF Done:  E(RHF) =  -669.533990065     A.U. after   15 cycles
 E2 =    -0.2096014740D+01 EUMP2 =    -0.67163000480506D+03

 The electronic state is 1-A.
 Alpha  occ. eigenvalues --  -20.60810 -20.60803 -15.85837 -11.31192 -11.27753
 Alpha  occ. eigenvalues --  -11.27720 -11.27472 -11.26802 -11.26754 -11.22279
 Alpha  occ. eigenvalues --  -11.21747 -11.21624 -11.21619 -11.21493 -11.20886
 Alpha  occ. eigenvalues --   -1.59865  -1.39423  -1.19369  -1.08791  -1.08712
 Alpha  occ. eigenvalues --   -1.04783  -1.03805  -0.96221  -0.95598  -0.87244
 Alpha  occ. eigenvalues --   -0.86173  -0.82442  -0.79921  -0.78558  -0.77481
 Alpha  occ. eigenvalues --   -0.72065  -0.71174  -0.70471  -0.65397  -0.65023
 Alpha  occ. eigenvalues --   -0.64782  -0.62130  -0.61208  -0.59635  -0.57847
 Alpha  occ. eigenvalues --   -0.55505  -0.55265  -0.53264  -0.52882  -0.52851
 Alpha  occ. eigenvalues --   -0.52652  -0.50182  -0.48825  -0.48823  -0.48199
 Alpha  occ. eigenvalues --   -0.46984  -0.46049  -0.45967  -0.44780  -0.44035
 Alpha  occ. eigenvalues --   -0.37278  -0.36242
 Alpha virt. eigenvalues --    0.05002   0.11122   0.16406   0.20244   0.22963
 Alpha virt. eigenvalues --    0.23846   0.25147   0.26354   0.27338   0.28412
 Alpha virt. eigenvalues --    0.29241   0.29678   0.31426   0.31449   0.31780

 Mulliken charges:
               1
     1  C   -0.170970
     2  C   -0.219082
     3  C   -0.173023
     4  C    0.164388
     5  C   -0.172617
     6  C   -0.213447
     7  H    0.226170
     8  H    0.223393
     9  H    0.275514
    10  H    0.274576
    11  H    0.224106
    12  N    0.489249
    13  O   -0.460889
    14  O   -0.459431
    15  C   -0.298115
    16  C   -0.298551
    17  C   -0.475446
    18  H    0.150630
    19  H    0.150697
    20  H    0.144068
    21  H    0.147296
    22  H    0.157433
    23  H    0.157363
    24  H    0.158798
    25  C   -0.297897
    26  C   -0.300366
    27  C   -0.479590
    28  H    0.146156
    29  H    0.150209
    30  H    0.151933
    31  H    0.151079
    32  H    0.153431
    33  H    0.158557
    34  H    0.164377
 Sum of Mulliken charges =  -0.00000

 Dipole moment (field-independent basis, Debye):
    X=             -3.6984    Y=             -3.4928    Z=             -0.7505  Tot=              5.1420
 Quadrupole moment (field-independent basis, Debye-Ang):
   XX=           -112.8852   YY=            -91.4801   ZZ=            -90.0741
   XY=             -6.7588   XZ=             -3.9278   YZ=              1.2176

 Normal termination of Gaussian 16 at Thu May  6 14:07:17 2021.
