 Gaussian 16, Revision A.03,
 Gaussian 16:  EM64L-G16RevA.03 25-Dec-2016

 -------------
 #p 6-31g* mp2
 -------------

 ------------------------------------------------------
 Input file generated by CHIRIPA (05-May-2021 14:55:19)
 ------------------------------------------------------
 Symbolic Z-matrix:
 Charge =  0 Multiplicity = 1

                         Standard orientation:
 ---------------------------------------------------------------------
 Center     Atomic      Atomic             Coordinates (Angstroms)
 Number     Number       Type             X           Y           Z
 ---------------------------------------------------------------------
      1          6           0       -1.822845    1.823019   -1.020386
      2          6           0       -1.289846    0.529795   -1.018308
      3          6           0       -2.053101   -0.552008   -0.569206
      4          6           0       -3.351561   -0.303332   -0.127107
      5          6           0       -3.910801    0.973554   -0.116959
      6          6           0       -3.129318    2.040388   -0.570498
      7          1           0       -1.222849    2.657575   -1.370982
      8          1           0       -0.275518    0.358013   -1.367129
      9          1           0       -1.665354   -1.563401   -0.556816
     10          1           0       -4.925063    1.113505    0.236743
     11          1           0       -3.545860    3.043651   -0.570982
     12          7           0       -4.169234   -1.440664    0.350685
     13          8           0       -5.310537   -1.195164    0.735127
     14          8           0       -3.653341   -2.556070    0.331691
     15          6           0        3.364981    0.266744    0.319367
     16          6           0        3.008138    1.624961    0.924262
     17          6           0        1.499043    1.847109    1.029509
     18          1           0        2.910582    0.185710   -0.677578
     19          1           0        2.918217   -0.528478    0.932079
     20          1           0        3.456600    2.417340    0.311372
     21          1           0        3.463599    1.702848    1.919804
     22          1           0        1.039293    1.077611    1.658083
     23          1           0        1.032255    1.796162    0.040513
     24          1           0        1.266446    2.824105    1.464520
     25          6           0        4.870025    0.029923    0.207618
     26          6           0        5.226868   -1.328293   -0.397277
     27          6           0        6.735963   -1.550440   -0.502526
     28          1           0        5.316789    0.825146   -0.405096
     29          1           0        5.324423    0.110957    1.204563
     30          1           0        4.771407   -1.406180   -1.392820
     31          1           0        4.778406   -2.120672    0.215612
     32          1           0        7.202751   -1.499495    0.486471
     33          1           0        7.195712   -0.780944   -1.131099
     34          1           0        6.968560   -2.527438   -0.937535
 ---------------------------------------------------------------------

 SCF Done:  E(RHF) =  -669.534292045     A.U. after   15 cycles
 E2 =    -0.2092282897D+01 EUMP2 =    -0.67162657494205D+03

 The electronic state is 1-A.
 Alpha  occ. eigenvalues --  -20.60730 -20.60724 -15.85783 -11.31140 -11.27701
 Alpha  occ. eigenvalues --  -11.27688 -11.27440 -11.26725 -11.26701 -11.22268
 Alpha  occ. eigenvalues --  -11.22094 -11.22047 -11.21901 -11.21818 -11.21424
 Alpha  occ. eigenvalues --   -1.59805  -1.39359  -1.19312  -1.09032  -1.08712
 Alpha  occ. eigenvalues --   -1.04719  -1.04101  -0.96568  -0.95545  -0.87591
 Alpha  occ. eigenvalues --   -0.86118  -0.82378  -0.80176  -0.78842  -0.77425
 Alpha  occ. eigenvalues --   -0.72003  -0.71128  -0.70428  -0.65682  -0.64970
 Alpha  occ. eigenvalues --   -0.64751  -0.62113  -0.61465  -0.59930  -0.58170
 Alpha  occ. eigenvalues --   -0.55870  -0.55220  -0.53358  -0.53202  -0.52852
 Alpha  occ. eigenvalues --   -0.52678  -0.50500  -0.48771  -0.48757  -0.48459
 Alpha  occ. eigenvalues --   -0.47204  -0.46381  -0.46291  -0.44767  -0.44363
 Alpha  occ. eigenvalues --   -0.37244  -0.36284
 Alpha virt. eigenvalues --    0.05094   0.11272   0.16576   0.19872   0.22607
 Alpha virt. eigenvalues --    0.23909   0.25319   0.26577   0.26928   0.28083
 Alpha virt. eigenvalues --    0.28868   0.30128   0.31202   0.31304   0.31613

 Mulliken charges:
               1
     1  C   -0.168781
     2  C   -0.215155
     3  C   -0.173547
     4  C    0.158441
     5  C   -0.171287
     6  C   -0.218985
     7  H    0.225363
     8  H    0.224505
     9  H    0.275475
    10  H    0.275353
    11  H    0.223233
    12  N    0.488072
    13  O   -0.460578
    14  O   -0.460591
    15  C   -0.298515
    16  C   -0.300598
    17  C   -0.474753
    18  H    0.142040
    19  H    0.152034
    20  H    0.151423
    21  H    0.155522
    22  H    0.160782
    23  H    0.144401
    24  H    0.161156
    25  C   -0.298452
    26  C   -0.300169
    27  C   -0.476062
    28  H    0.149864
    29  H    0.152089
    30  H    0.150702
    31  H    0.153495
    32  H    0.156351
    33  H    0.155323
    34  H    0.161847
 Sum of Mulliken charges =  -0.00000

 Dipole moment (field-independent basis, Debye):
    X=              3.0006    Y=              3.9980    Z=             -1.5949  Tot=              5.2471
 Quadrupole moment (field-independent basis, Debye-Ang):
   XX=           -112.1464   YY=            -95.5837   ZZ=            -94.0464
   XY=            -17.0064   XZ=              4.8515   YZ=              0.2623

 Normal termination of Gaussian 16 at Thu May  6 10:48:06 2021.
