 Gaussian 16, Revision A.03,
 Gaussian 16:  EM64L-G16RevA.03 25-Dec-2016

 -------------
 #p 6-31g* mp2
 -------------

 ------------------------------------------------------
 Input file generated by CHIRIPA (05-May-2021 14:51:11)
 ------------------------------------------------------
 Symbolic Z-matrix:
 Charge =  0 Multiplicity = 1

                         Standard orientation:
 ---------------------------------------------------------------------
 Center     Atomic      Atomic             Coordinates (Angstroms)
 Number     Number       Type             X           Y           Z
 ---------------------------------------------------------------------
      1          6           0       -5.594286    0.282884   -0.291652
      2          6           0       -6.552988   -0.748720    0.303889
      3          6           0       -7.947178   -0.690056   -0.321080
      4          1           0       -6.016612    1.287924   -0.155710
      5          1           0       -5.518369    0.119736   -1.375633
      6          1           0       -6.626004   -0.584548    1.386632
      7          1           0       -6.128240   -1.751407    0.166684
      8          1           0       -7.894394   -0.875718   -1.398738
      9          1           0       -8.394986    0.297770   -0.171858
     10          1           0       -8.616249   -1.435890    0.119301
     11          6           0       -4.196483    0.236605    0.322946
     12          6           0       -3.237781    1.268209   -0.272595
     13          6           0       -1.843591    1.209545    0.352374
     14          1           0       -4.272400    0.399753    1.406927
     15          1           0       -3.774156   -0.768435    0.187004
     16          1           0       -3.662529    2.270895   -0.135390
     17          1           0       -3.164765    1.104037   -1.355338
     18          1           0       -1.395783    0.221718    0.203152
     19          1           0       -1.896375    1.395206    1.430031
     20          1           0       -1.174520    1.955378   -0.088007
     21          6           0        5.474397    0.238243   -0.002022
     22          6           0        6.847177   -0.424583   -0.120853
     23          6           0        7.995404    0.584643   -0.092055
     24          1           0        5.350669    0.960036   -0.820954
     25          1           0        5.433227    0.815329    0.932147
     26          1           0        6.885259   -1.001372   -1.053848
     27          1           0        6.967574   -1.145022    0.698348
     28          1           0        7.985767    1.152536    0.843896
     29          1           0        7.902984    1.297002   -0.918255
     30          1           0        8.967540    0.089299   -0.178335
     31          6           0        4.316372   -0.757732   -0.029273
     32          6           0        2.943592   -0.094905    0.089560
     33          6           0        1.795365   -1.104132    0.060762
     34          1           0        4.357542   -1.334817   -0.963441
     35          1           0        4.440100   -1.479525    0.789660
     36          1           0        2.823195    0.625534   -0.729641
     37          1           0        2.905510    0.481884    1.022555
     38          1           0        1.887785   -1.816491    0.886961
     39          1           0        1.805002   -1.672025   -0.875190
     40          1           0        0.823229   -0.608787    0.147041
 ---------------------------------------------------------------------

 SCF Done:  E(RHF) =  -470.733276657     A.U. after   11 cycles
 E2 =    -0.1582187677D+01 EUMP2 =    -0.47231546433422D+03

 The electronic state is 1-A.
 Alpha  occ. eigenvalues --  -11.21617 -11.21601 -11.21579 -11.21547 -11.21409
 Alpha  occ. eigenvalues --  -11.21370 -11.21350 -11.21310 -11.21095 -11.21071
 Alpha  occ. eigenvalues --  -11.21053 -11.20979  -1.08437  -1.08392  -1.03545
 Alpha  occ. eigenvalues --   -1.03483  -0.96012  -0.95921  -0.87049  -0.86922
 Alpha  occ. eigenvalues --   -0.79625  -0.79533  -0.78248  -0.78205  -0.65069
 Alpha  occ. eigenvalues --   -0.65022  -0.60961  -0.60884  -0.59367  -0.59315
 Alpha  occ. eigenvalues --   -0.57657  -0.57508  -0.55290  -0.55224  -0.52822
 Alpha  occ. eigenvalues --   -0.52626  -0.52424  -0.52239  -0.49915  -0.49879
 Alpha  occ. eigenvalues --   -0.47981  -0.47802  -0.46626  -0.46586  -0.45793
 Alpha  occ. eigenvalues --   -0.45746  -0.45712  -0.45673  -0.43807  -0.43699
 Alpha virt. eigenvalues --    0.22406   0.22969   0.23539   0.24728   0.26320
 Alpha virt. eigenvalues --    0.26688   0.26903   0.27507   0.27649   0.28782
 Alpha virt. eigenvalues --    0.30167   0.31433   0.31651   0.31744   0.32162

 Mulliken charges:
               1
     1  C   -0.298319
     2  C   -0.299682
     3  C   -0.475714
     4  H    0.149642
     5  H    0.149569
     6  H    0.151934
     7  H    0.152048
     8  H    0.155196
     9  H    0.155162
    10  H    0.160277
    11  C   -0.298621
    12  C   -0.299390
    13  C   -0.481164
    14  H    0.149559
    15  H    0.150068
    16  H    0.152013
    17  H    0.152100
    18  H    0.159799
    19  H    0.155594
    20  H    0.160644
    21  C   -0.298189
    22  C   -0.299602
    23  C   -0.475679
    24  H    0.149541
    25  H    0.149501
    26  H    0.151854
    27  H    0.151901
    28  H    0.155160
    29  H    0.155129
    30  H    0.160167
    31  C   -0.298461
    32  C   -0.298527
    33  C   -0.484258
    34  H    0.149319
    35  H    0.149540
    36  H    0.151652
    37  H    0.152083
    38  H    0.154738
    39  H    0.154342
    40  H    0.169073
 Sum of Mulliken charges =  -0.00000

 Dipole moment (field-independent basis, Debye):
    X=             -0.0335    Y=              0.0118    Z=              0.0058  Tot=              0.0360
 Quadrupole moment (field-independent basis, Debye-Ang):
   XX=            -86.7927   YY=            -84.7221   ZZ=            -83.3452
   XY=             -0.8196   XZ=             -0.5258   YZ=              0.3737

 Normal termination of Gaussian 16 at Wed May  5 21:29:17 2021.
