 Gaussian 16, Revision A.03,
 Gaussian 16:  EM64L-G16RevA.03 25-Dec-2016

 -------------
 #p 6-31g* mp2
 -------------

 ------------------------------------------------------
 Input file generated by CHIRIPA (05-May-2021 14:55:22)
 ------------------------------------------------------
 Symbolic Z-matrix:
 Charge =  0 Multiplicity = 1

                         Standard orientation:
 ---------------------------------------------------------------------
 Center     Atomic      Atomic             Coordinates (Angstroms)
 Number     Number       Type             X           Y           Z
 ---------------------------------------------------------------------
      1          6           0       -1.753208    1.536966   -1.627084
      2          6           0       -3.142118    1.666197   -1.523411
      3          6           0       -3.885426    0.755420   -0.766757
      4          6           0       -3.204365   -0.277232   -0.124047
      5          6           0       -1.821587   -0.432616   -0.208139
      6          6           0       -1.098529    0.489818   -0.970275
      7          1           0       -1.183654    2.249007   -2.217000
      8          1           0       -3.653213    2.478441   -2.032417
      9          1           0       -4.961582    0.831969   -0.669557
     10          1           0       -1.340159   -1.252679    0.310650
     11          1           0       -0.019978    0.386993   -1.049013
     12          7           0       -3.980552   -1.247601    0.679891
     13          8           0       -3.356849   -2.148607    1.236505
     14          8           0       -5.197935   -1.088797    0.738180
     15          6           0        4.046074   -0.441982   -0.141836
     16          6           0        5.519456   -0.803923   -0.331910
     17          6           0        5.719779   -1.990416   -1.275255
     18          1           0        3.507455   -1.316784    0.247465
     19          1           0        3.602922   -0.212216   -1.120722
     20          1           0        5.960047   -1.031594    0.647203
     21          1           0        6.054667    0.071900   -0.720623
     22          1           0        5.306348   -1.769950   -2.264734
     23          1           0        5.211189   -2.879714   -0.889137
     24          1           0        6.780294   -2.232052   -1.396833
     25          6           0        3.829612    0.742277    0.798591
     26          6           0        2.356229    1.104219    0.988665
     27          6           0        2.155906    2.290711    1.932011
     28          1           0        4.272764    0.512512    1.777477
     29          1           0        4.368230    1.617080    0.409289
     30          1           0        1.821017    0.228395    1.377378
     31          1           0        1.915638    1.331889    0.009552
     32          1           0        2.664495    3.180009    1.545892
     33          1           0        2.569338    2.070246    2.921491
     34          1           0        1.095392    2.532347    2.053588
 ---------------------------------------------------------------------

 SCF Done:  E(RHF) =  -669.535486879     A.U. after   15 cycles
 E2 =    -0.2091338258D+01 EUMP2 =    -0.67162682513714D+03

 The electronic state is 1-A.
 Alpha  occ. eigenvalues --  -20.60732 -20.60727 -15.85784 -11.31139 -11.27706
 Alpha  occ. eigenvalues --  -11.27690 -11.27441 -11.26727 -11.26657 -11.22498
 Alpha  occ. eigenvalues --  -11.22129 -11.22081 -11.22027 -11.21706 -11.21500
 Alpha  occ. eigenvalues --   -1.59807  -1.39361  -1.19307  -1.09112  -1.08705
 Alpha  occ. eigenvalues --   -1.04706  -1.04162  -0.96578  -0.95543  -0.87597
 Alpha  occ. eigenvalues --   -0.86108  -0.82376  -0.80265  -0.78946  -0.77412
 Alpha  occ. eigenvalues --   -0.72003  -0.71130  -0.70420  -0.65756  -0.64957
 Alpha  occ. eigenvalues --   -0.64710  -0.62084  -0.61542  -0.59948  -0.58199
 Alpha  occ. eigenvalues --   -0.55855  -0.55214  -0.53282  -0.53036  -0.53012
 Alpha  occ. eigenvalues --   -0.52789  -0.50519  -0.48782  -0.48758  -0.48519
 Alpha  occ. eigenvalues --   -0.47292  -0.46452  -0.46387  -0.44769  -0.44419
 Alpha  occ. eigenvalues --   -0.37290  -0.36298
 Alpha virt. eigenvalues --    0.05103   0.11294   0.16571   0.20182   0.22575
 Alpha virt. eigenvalues --    0.23859   0.24952   0.25815   0.27413   0.28174
 Alpha virt. eigenvalues --    0.28979   0.30361   0.31074   0.31430   0.32056

 Mulliken charges:
               1
     1  C   -0.172508
     2  C   -0.218430
     3  C   -0.171324
     4  C    0.158707
     5  C   -0.173114
     6  C   -0.220691
     7  H    0.224978
     8  H    0.223128
     9  H    0.275370
    10  H    0.275474
    11  H    0.230593
    12  N    0.488079
    13  O   -0.460620
    14  O   -0.460600
    15  C   -0.299158
    16  C   -0.299954
    17  C   -0.476242
    18  H    0.150470
    19  H    0.144505
    20  H    0.154295
    21  H    0.152615
    22  H    0.154490
    23  H    0.156605
    24  H    0.162298
    25  C   -0.298024
    26  C   -0.302664
    27  C   -0.476302
    28  H    0.153607
    29  H    0.150916
    30  H    0.152356
    31  H    0.142974
    32  H    0.155628
    33  H    0.159402
    34  H    0.163138
 Sum of Mulliken charges =  -0.00000

 Dipole moment (field-independent basis, Debye):
    X=              2.9133    Y=              3.4324    Z=             -2.7377  Tot=              5.2691
 Quadrupole moment (field-independent basis, Debye-Ang):
   XX=           -108.3639   YY=            -96.2346   ZZ=            -94.1794
   XY=            -13.9517   XZ=             10.3246   YZ=             -1.2890

 Normal termination of Gaussian 16 at Thu May  6 09:22:14 2021.
