 Gaussian 16, Revision A.03,
 Gaussian 16:  EM64L-G16RevA.03 25-Dec-2016

 -------------
 #p 6-31g* mp2
 -------------

 ------------------------------------------------------
 Input file generated by CHIRIPA (05-May-2021 14:55:23)
 ------------------------------------------------------
 Symbolic Z-matrix:
 Charge =  0 Multiplicity = 1

                         Standard orientation:
 ---------------------------------------------------------------------
 Center     Atomic      Atomic             Coordinates (Angstroms)
 Number     Number       Type             X           Y           Z
 ---------------------------------------------------------------------
      1          6           0        4.021614    1.741301   -0.140818
      2          6           0        4.704699    0.565067    0.185357
      3          6           0        4.027131   -0.656395    0.244355
      4          6           0        2.660382   -0.665156   -0.029893
      5          6           0        1.951866    0.489740   -0.357779
      6          6           0        2.649796    1.699956   -0.410869
      7          1           0        4.555874    2.685793   -0.184354
      8          1           0        5.770068    0.594176    0.395562
      9          1           0        4.531296   -1.582009    0.494301
     10          1           0        0.889826    0.429116   -0.562265
     11          1           0        2.116720    2.611861   -0.664450
     12          7           0        1.932293   -1.952310    0.029438
     13          8           0        0.728208   -1.933343   -0.216444
     14          8           0        2.579487   -2.955775    0.320701
     15          6           0       -4.172180    0.208565    0.314296
     16          6           0       -4.515235   -1.044475   -0.492046
     17          6           0       -5.744510   -1.776404    0.047359
     18          1           0       -4.002480   -0.072802    1.362619
     19          1           0       -5.036081    0.887565    0.308821
     20          1           0       -3.650454   -1.720297   -0.486210
     21          1           0       -4.683950   -0.760120   -1.538609
     22          1           0       -6.622371   -1.122567    0.025947
     23          1           0       -5.583002   -2.088200    1.084326
     24          1           0       -5.971798   -2.668996   -0.543809
     25          6           0       -2.945593    0.951159   -0.212738
     26          6           0       -2.602538    2.204199    0.593605
     27          6           0       -1.373263    2.936128    0.054199
     28          1           0       -2.081692    0.272160   -0.207264
     29          1           0       -3.115293    1.232526   -1.261060
     30          1           0       -2.433824    1.919844    1.640167
     31          1           0       -3.467319    2.880022    0.587767
     32          1           0       -1.534771    3.247924   -0.982767
     33          1           0       -0.495402    2.282290    0.075612
     34          1           0       -1.145975    3.828720    0.645368
 ---------------------------------------------------------------------

 SCF Done:  E(RHF) =  -669.535600876     A.U. after   15 cycles
 E2 =    -0.2092045505D+01 EUMP2 =    -0.67162764638137D+03

 The electronic state is 1-A.
 Alpha  occ. eigenvalues --  -20.60825 -20.60820 -15.85873 -11.31198 -11.27766
 Alpha  occ. eigenvalues --  -11.27738 -11.27495 -11.26779 -11.26740 -11.21813
 Alpha  occ. eigenvalues --  -11.21704 -11.21301 -11.21171 -11.21110 -11.20669
 Alpha  occ. eigenvalues --   -1.59895  -1.39450  -1.19368  -1.08769  -1.08328
 Alpha  occ. eigenvalues --   -1.04769  -1.03494  -0.95983  -0.95611  -0.87015
 Alpha  occ. eigenvalues --   -0.86163  -0.82447  -0.79583  -0.78083  -0.77487
 Alpha  occ. eigenvalues --   -0.72093  -0.71215  -0.70489  -0.65038  -0.64959
 Alpha  occ. eigenvalues --   -0.64749  -0.62186  -0.60844  -0.59381  -0.57553
 Alpha  occ. eigenvalues --   -0.55365  -0.55182  -0.53100  -0.52877  -0.52674
 Alpha  occ. eigenvalues --   -0.52406  -0.49941  -0.48846  -0.48841  -0.47883
 Alpha  occ. eigenvalues --   -0.46572  -0.45637  -0.45488  -0.44861  -0.43713
 Alpha  occ. eigenvalues --   -0.37347  -0.36356
 Alpha virt. eigenvalues --    0.05006   0.11280   0.16467   0.20056   0.22944
 Alpha virt. eigenvalues --    0.24088   0.25685   0.26369   0.27349   0.28241
 Alpha virt. eigenvalues --    0.29597   0.30208   0.31469   0.31609   0.32117

 Mulliken charges:
               1
     1  C   -0.170802
     2  C   -0.218673
     3  C   -0.170734
     4  C    0.158741
     5  C   -0.177483
     6  C   -0.220728
     7  H    0.225810
     8  H    0.223506
     9  H    0.275490
    10  H    0.281788
    11  H    0.227293
    12  N    0.488625
    13  O   -0.462675
    14  O   -0.459843
    15  C   -0.297861
    16  C   -0.302387
    17  C   -0.475809
    18  H    0.151398
    19  H    0.147458
    20  H    0.162778
    21  H    0.149992
    22  H    0.152632
    23  H    0.155984
    24  H    0.161090
    25  C   -0.305755
    26  C   -0.299002
    27  C   -0.481899
    28  H    0.160577
    29  H    0.148141
    30  H    0.154818
    31  H    0.153323
    32  H    0.155847
    33  H    0.147235
    34  H    0.161124
 Sum of Mulliken charges =  -0.00000

 Dipole moment (field-independent basis, Debye):
    X=              2.5289    Y=              4.4392    Z=             -0.1836  Tot=              5.1123
 Quadrupole moment (field-independent basis, Debye-Ang):
   XX=            -77.8802   YY=           -100.3648   ZZ=            -95.0086
   XY=              7.5702   XZ=              1.0944   YZ=             -0.8101

 Normal termination of Gaussian 16 at Thu May  6 20:51:22 2021.
