 Gaussian 16, Revision A.03,
 Gaussian 16:  EM64L-G16RevA.03 25-Dec-2016

 -------------
 #p 6-31g* mp2
 -------------

 ------------------------------------------------------
 Input file generated by CHIRIPA (05-May-2021 14:57:25)
 ------------------------------------------------------
 Symbolic Z-matrix:
 Charge =  0 Multiplicity = 1

                         Standard orientation:
 ---------------------------------------------------------------------
 Center     Atomic      Atomic             Coordinates (Angstroms)
 Number     Number       Type             X           Y           Z
 ---------------------------------------------------------------------
      1          6           0       -2.089093   -2.109546    0.085743
      2          6           0       -1.779724   -1.076530    0.976634
      3          6           0       -2.546546    0.092171    1.002536
      4          6           0       -3.620495    0.194785    0.119703
      5          6           0       -3.953926   -0.816875   -0.779551
      6          6           0       -3.173295   -1.976656   -0.787966
      7          1           0       -1.488044   -3.013957    0.072414
      8          1           0       -0.938298   -1.176979    1.656309
      9          1           0       -2.329277    0.907393    1.681966
     10          1           0       -4.798809   -0.687712   -1.445063
     11          1           0       -3.415886   -2.777287   -1.480920
     12          7           0       -4.439604    1.427315    0.137868
     13          8           0       -5.380598    1.493209   -0.650057
     14          8           0       -4.125118    2.304141    0.939686
     15          6           0        5.224416    1.836487   -0.117270
     16          6           0        5.502568    0.605998    0.486923
     17          6           0        4.546596   -0.414112    0.493220
     18          6           0        3.317384   -0.168387   -0.116655
     19          6           0        3.010329    1.046808   -0.726827
     20          6           0        3.981375    2.052583   -0.721152
     21          1           0        5.972893    2.623365   -0.117511
     22          1           0        6.467073    0.435361    0.956665
     23          1           0        4.735527   -1.376220    0.953731
     24          1           0        2.039838    1.187258   -1.187087
     25          1           0        3.762590    3.007201   -1.191134
     26          7           0        2.297360   -1.240744   -0.116327
     27          8           0        1.222042   -0.999228   -0.660384
     28          8           0        2.592497   -2.302469    0.427982
 ---------------------------------------------------------------------

 SCF Done:  E(RHF) =  -868.339717808     A.U. after   16 cycles
 E2 =    -0.2599286362D+01 EUMP2 =    -0.87093900417078D+03

 The electronic state is 1-A.
 Alpha  occ. eigenvalues --  -20.61702 -20.61669 -20.60010 -20.60005 -15.86689
 Alpha  occ. eigenvalues --  -15.85054 -11.31773 -11.30101 -11.28316 -11.28285
 Alpha  occ. eigenvalues --  -11.27989 -11.27259 -11.27229 -11.26668 -11.26620
 Alpha  occ. eigenvalues --  -11.26155 -11.25568 -11.25464  -1.60769  -1.59095
 Alpha  occ. eigenvalues --   -1.40320  -1.38657  -1.19921  -1.18223  -1.09373
 Alpha  occ. eigenvalues --   -1.07633  -1.05272  -1.03598  -0.96253  -0.94535
 Alpha  occ. eigenvalues --   -0.86684  -0.84986  -0.83084  -0.81405  -0.78170
 Alpha  occ. eigenvalues --   -0.76528  -0.72926  -0.72080  -0.71280  -0.71016
 Alpha  occ. eigenvalues --   -0.70417  -0.69256  -0.65570  -0.65268  -0.63863
 Alpha  occ. eigenvalues --   -0.63585  -0.62618  -0.60979  -0.55783  -0.53984
 Alpha  occ. eigenvalues --   -0.53626  -0.53355  -0.51928  -0.51689  -0.49705
 Alpha  occ. eigenvalues --   -0.49667  -0.48053  -0.48005  -0.45777  -0.44137
 Alpha  occ. eigenvalues --   -0.37889  -0.36864  -0.36054  -0.35176
 Alpha virt. eigenvalues --    0.04311   0.06017   0.10794   0.12497   0.15900
 Alpha virt. eigenvalues --    0.17641   0.20993   0.22628   0.26927   0.27851
 Alpha virt. eigenvalues --    0.28369   0.29581   0.30604   0.32074   0.32232

 Mulliken charges:
               1
     1  C   -0.158753
     2  C   -0.205261
     3  C   -0.176711
     4  C    0.156608
     5  C   -0.173012
     6  C   -0.221227
     7  H    0.233503
     8  H    0.223182
     9  H    0.269247
    10  H    0.270991
    11  H    0.219963
    12  N    0.488219
    13  O   -0.463843
    14  O   -0.465102
    15  C   -0.169724
    16  C   -0.218616
    17  C   -0.170970
    18  C    0.156452
    19  C   -0.171180
    20  C   -0.218533
    21  H    0.228126
    22  H    0.225102
    23  H    0.275354
    24  H    0.277880
    25  H    0.226835
    26  N    0.486979
    27  O   -0.461667
    28  O   -0.463842
 Sum of Mulliken charges =  -0.00000

 Dipole moment (field-independent basis, Debye):
    X=              7.0098    Y=             -0.6854    Z=             -0.1125  Tot=              7.0441
 Quadrupole moment (field-independent basis, Debye-Ang):
   XX=           -100.0546   YY=           -106.0234   ZZ=           -102.1241
   XY=             28.5025   XZ=              4.3630   YZ=             -1.3263

 Normal termination of Gaussian 16 at Fri May  7 09:40:10 2021.
