 Gaussian 16, Revision A.03,
 Gaussian 16:  EM64L-G16RevA.03 25-Dec-2016

 -------------
 #p 6-31g* mp2
 -------------

 ------------------------------------------------------
 Input file generated by CHIRIPA (05-May-2021 14:51:09)
 ------------------------------------------------------
 Symbolic Z-matrix:
 Charge =  0 Multiplicity = 1

                         Standard orientation:
 ---------------------------------------------------------------------
 Center     Atomic      Atomic             Coordinates (Angstroms)
 Number     Number       Type             X           Y           Z
 ---------------------------------------------------------------------
      1          6           0       -3.470004    0.892705   -0.146586
      2          6           0       -2.825799    2.130731    0.478135
      3          6           0       -3.668172    3.393094    0.292009
      4          1           0       -3.631749    1.072601   -1.218230
      5          1           0       -4.463198    0.740764    0.298245
      6          1           0       -1.833546    2.279493    0.033252
      7          1           0       -2.665394    1.947795    1.548378
      8          1           0       -4.654084    3.269576    0.751708
      9          1           0       -3.817509    3.603158   -0.772027
     10          1           0       -3.189043    4.266037    0.746173
     11          6           0       -2.639757   -0.377256    0.031219
     12          6           0       -3.283962   -1.615282   -0.593502
     13          6           0       -2.441589   -2.877644   -0.407376
     14          1           0       -1.646563   -0.225314   -0.413612
     15          1           0       -2.478012   -0.557151    1.102863
     16          1           0       -3.444367   -1.432346   -1.663745
     17          1           0       -4.276215   -1.764043   -0.148620
     18          1           0       -2.292252   -3.087709    0.656660
     19          1           0       -1.455678   -2.754127   -0.867075
     20          1           0       -2.920718   -3.750588   -0.861540
     21          6           0        3.693254    0.146584    0.169243
     22          6           0        3.686393    1.499532   -0.543126
     23          6           0        4.970217    2.296672   -0.310407
     24          1           0        3.836553    0.307314    1.246543
     25          1           0        4.556790   -0.437972   -0.177159
     26          1           0        2.822347    2.080819   -0.196506
     27          1           0        3.542901    1.335575   -1.618832
     28          1           0        5.840403    1.739974   -0.672987
     29          1           0        5.115754    2.489453    0.757420
     30          1           0        4.943947    3.260319   -0.828630
     31          6           0        2.416507   -0.662034   -0.053876
     32          6           0        2.423368   -2.014982    0.658493
     33          6           0        1.139544   -2.812121    0.425774
     34          1           0        1.552972   -0.077478    0.292527
     35          1           0        2.273208   -0.822764   -1.131176
     36          1           0        2.566859   -1.851024    1.734200
     37          1           0        3.287415   -2.596269    0.311874
     38          1           0        0.994008   -3.004902   -0.642053
     39          1           0        0.269358   -2.255423    0.788354
     40          1           0        1.165815   -3.775769    0.943998
 ---------------------------------------------------------------------

 SCF Done:  E(RHF) =  -470.732018345     A.U. after   11 cycles
 E2 =    -0.1583694695D+01 EUMP2 =    -0.47231571304005D+03

 The electronic state is 1-A.
 Alpha  occ. eigenvalues --  -11.21614 -11.21606 -11.21545 -11.21537 -11.21402
 Alpha  occ. eigenvalues --  -11.21400 -11.21343 -11.21341 -11.21079 -11.21074
 Alpha  occ. eigenvalues --  -11.20955 -11.20867  -1.08435  -1.08398  -1.03554
 Alpha  occ. eigenvalues --   -1.03451  -0.96042  -0.95863  -0.87109  -0.86836
 Alpha  occ. eigenvalues --   -0.79744  -0.79414  -0.78319  -0.78138  -0.65055
 Alpha  occ. eigenvalues --   -0.65038  -0.60938  -0.60874  -0.59374  -0.59280
 Alpha  occ. eigenvalues --   -0.57794  -0.57382  -0.55314  -0.55168  -0.52825
 Alpha  occ. eigenvalues --   -0.52638  -0.52574  -0.52019  -0.49983  -0.49799
 Alpha  occ. eigenvalues --   -0.48230  -0.47540  -0.46650  -0.46541  -0.46000
 Alpha  occ. eigenvalues --   -0.45738  -0.45686  -0.45345  -0.43767  -0.43749
 Alpha virt. eigenvalues --    0.21495   0.23217   0.23458   0.24883   0.25620
 Alpha virt. eigenvalues --    0.26208   0.26698   0.27340   0.28646   0.29475
 Alpha virt. eigenvalues --    0.29859   0.31541   0.31626   0.31861   0.32102

 Mulliken charges:
               1
     1  C   -0.298074
     2  C   -0.299743
     3  C   -0.475671
     4  H    0.149849
     5  H    0.149680
     6  H    0.151757
     7  H    0.151601
     8  H    0.155252
     9  H    0.155310
    10  H    0.160172
    11  C   -0.301244
    12  C   -0.299150
    13  C   -0.480189
    14  H    0.151695
    15  H    0.148734
    16  H    0.151381
    17  H    0.151276
    18  H    0.154619
    19  H    0.163504
    20  H    0.158881
    21  C   -0.298100
    22  C   -0.299662
    23  C   -0.475689
    24  H    0.149777
    25  H    0.149614
    26  H    0.151836
    27  H    0.151701
    28  H    0.155203
    29  H    0.155254
    30  H    0.160204
    31  C   -0.299646
    32  C   -0.300159
    33  C   -0.478966
    34  H    0.150674
    35  H    0.148732
    36  H    0.151589
    37  H    0.151373
    38  H    0.154025
    39  H    0.162672
    40  H    0.159928
 Sum of Mulliken charges =  -0.00000

 Dipole moment (field-independent basis, Debye):
    X=              0.0049    Y=             -0.0153    Z=              0.0015  Tot=              0.0161
 Quadrupole moment (field-independent basis, Debye-Ang):
   XX=            -85.5894   YY=            -86.0460   ZZ=            -83.3122
   XY=             -0.2322   XZ=             -0.8667   YZ=              0.1788

 Normal termination of Gaussian 16 at Wed May  5 19:44:00 2021.
