 Gaussian 16, Revision A.03,
 Gaussian 16:  EM64L-G16RevA.03 25-Dec-2016

 -------------
 #p 6-31g* mp2
 -------------

 ------------------------------------------------------
 Input file generated by CHIRIPA (05-May-2021 14:51:10)
 ------------------------------------------------------
 Symbolic Z-matrix:
 Charge =  0 Multiplicity = 1

                         Standard orientation:
 ---------------------------------------------------------------------
 Center     Atomic      Atomic             Coordinates (Angstroms)
 Number     Number       Type             X           Y           Z
 ---------------------------------------------------------------------
      1          6           0        2.474433    1.281707   -0.322153
      2          6           0        1.574574    2.010209    0.676607
      3          6           0        0.679485    3.056560    0.011959
      4          1           0        3.097147    2.017389   -0.849358
      5          1           0        1.848068    0.798585   -1.084817
      6          1           0        2.202388    2.490658    1.437945
      7          1           0        0.954066    1.272689    1.201631
      8          1           0        0.029165    2.589057   -0.734449
      9          1           0        1.284579    3.813946   -0.496793
     10          1           0        0.044613    3.565194    0.744140
     11          6           0        3.375168    0.232538    0.327192
     12          6           0        4.275027   -0.495964   -0.671569
     13          6           0        5.170117   -1.542316   -0.006921
     14          1           0        4.001533    0.715660    1.089855
     15          1           0        2.752454   -0.503144    0.854396
     16          1           0        4.895535    0.241556   -1.196593
     17          1           0        3.647214   -0.976413   -1.432906
     18          1           0        4.565023   -2.299702    0.501831
     19          1           0        5.820437   -1.074812    0.739487
     20          1           0        5.804989   -2.050950   -0.739102
     21          6           0       -2.205171   -0.830198   -0.247925
     22          6           0       -1.398518   -1.864323    0.538128
     23          6           0        0.039144   -1.999113    0.035382
     24          1           0       -2.211438   -1.109854   -1.310327
     25          1           0       -1.700581    0.143818   -0.184071
     26          1           0       -1.905214   -2.835796    0.473960
     27          1           0       -1.394331   -1.582276    1.598810
     28          1           0        0.566373   -1.042935    0.115090
     29          1           0        0.052588   -2.303577   -1.016151
     30          1           0        0.597709   -2.743555    0.611292
     31          6           0       -3.644431   -0.684047    0.242887
     32          6           0       -4.451083    0.350079   -0.543166
     33          6           0       -5.888746    0.484869   -0.040420
     34          1           0       -4.149022   -1.658063    0.179033
     35          1           0       -3.638163   -0.404390    1.305289
     36          1           0       -4.455271    0.068031   -1.603849
     37          1           0       -3.944389    1.321551   -0.478999
     38          1           0       -5.902189    0.789332    1.011113
     39          1           0       -6.415974   -0.471310   -0.120128
     40          1           0       -6.447310    1.229311   -0.616330
 ---------------------------------------------------------------------

 SCF Done:  E(RHF) =  -470.732598210     A.U. after   11 cycles
 E2 =    -0.1584473905D+01 EUMP2 =    -0.47231707211481D+03

 The electronic state is 1-A.
 Alpha  occ. eigenvalues --  -11.21662 -11.21654 -11.21618 -11.21544 -11.21452
 Alpha  occ. eigenvalues --  -11.21388 -11.21380 -11.21290 -11.21124 -11.21112
 Alpha  occ. eigenvalues --  -11.21082 -11.21023  -1.08497  -1.08407  -1.03578
 Alpha  occ. eigenvalues --   -1.03524  -0.96069  -0.95939  -0.87050  -0.86992
 Alpha  occ. eigenvalues --   -0.79656  -0.79582  -0.78292  -0.78229  -0.65381
 Alpha  occ. eigenvalues --   -0.64884  -0.61066  -0.60822  -0.59390  -0.59337
 Alpha  occ. eigenvalues --   -0.57642  -0.57586  -0.55599  -0.55012  -0.52723
 Alpha  occ. eigenvalues --   -0.52676  -0.52465  -0.52353  -0.49982  -0.49897
 Alpha  occ. eigenvalues --   -0.47986  -0.47886  -0.46741  -0.46616  -0.45940
 Alpha  occ. eigenvalues --   -0.45793  -0.45679  -0.45480  -0.43823  -0.43773
 Alpha virt. eigenvalues --    0.19660   0.22703   0.23737   0.24547   0.26172
 Alpha virt. eigenvalues --    0.26600   0.26737   0.27774   0.28543   0.29845
 Alpha virt. eigenvalues --    0.30404   0.31070   0.31685   0.31825   0.32504

 Mulliken charges:
               1
     1  C   -0.302483
     2  C   -0.302333
     3  C   -0.477366
     4  H    0.151136
     5  H    0.151081
     6  H    0.152772
     7  H    0.152269
     8  H    0.156588
     9  H    0.155810
    10  H    0.160065
    11  C   -0.302136
    12  C   -0.299532
    13  C   -0.475757
    14  H    0.149339
    15  H    0.153909
    16  H    0.151543
    17  H    0.152912
    18  H    0.155464
    19  H    0.154852
    20  H    0.160037
    21  C   -0.301937
    22  C   -0.299072
    23  C   -0.486444
    24  H    0.149673
    25  H    0.152206
    26  H    0.152305
    27  H    0.151826
    28  H    0.167472
    29  H    0.155070
    30  H    0.159881
    31  C   -0.298153
    32  C   -0.299899
    33  C   -0.475736
    34  H    0.149723
    35  H    0.149811
    36  H    0.151896
    37  H    0.152385
    38  H    0.155254
    39  H    0.155167
    40  H    0.160401
 Sum of Mulliken charges =  -0.00000

 Dipole moment (field-independent basis, Debye):
    X=             -0.0101    Y=              0.0012    Z=             -0.0060  Tot=              0.0118
 Quadrupole moment (field-independent basis, Debye-Ang):
   XX=            -85.8388   YY=            -84.4281   ZZ=            -84.5134
   XY=              1.5142   XZ=              0.3108   YZ=              0.7832

 Normal termination of Gaussian 16 at Wed May  5 15:12:50 2021.
