 Gaussian 16, Revision A.03,
 Gaussian 16:  EM64L-G16RevA.03 25-Dec-2016

 -------------
 #p 6-31g* mp2
 -------------

 ------------------------------------------------------
 Input file generated by CHIRIPA (05-May-2021 14:53:11)
 ------------------------------------------------------
 Symbolic Z-matrix:
 Charge =  0 Multiplicity = 1

                         Standard orientation:
 ---------------------------------------------------------------------
 Center     Atomic      Atomic             Coordinates (Angstroms)
 Number     Number       Type             X           Y           Z
 ---------------------------------------------------------------------
      1          6           0       -3.697948    0.170726    0.390811
      2          6           0       -3.867661   -1.342117    0.247671
      3          6           0       -5.024628   -1.888981    1.084427
      4          1           0       -3.535166    0.416519    1.449127
      5          1           0       -4.632470    0.667146    0.094788
      6          1           0       -2.932637   -1.835462    0.542557
      7          1           0       -4.029866   -1.584357   -0.810452
      8          1           0       -5.969589   -1.423654    0.785895
      9          1           0       -4.866125   -1.676186    2.146592
     10          1           0       -5.127957   -2.972234    0.967181
     11          6           0       -2.545301    0.732302   -0.439710
     12          6           0       -2.375588    2.245145   -0.296571
     13          6           0       -1.218620    2.792009   -1.133326
     14          1           0       -1.610778    0.235882   -0.143688
     15          1           0       -2.708082    0.486509   -1.498026
     16          1           0       -2.213383    2.487385    0.761553
     17          1           0       -3.310611    2.738490   -0.591457
     18          1           0       -1.377123    2.579214   -2.195492
     19          1           0       -0.273660    2.326682   -0.834795
     20          1           0       -1.115291    3.875262   -1.016080
     21          6           0        2.919259    1.791915    1.258249
     22          6           0        2.348128    1.833701   -0.017911
     23          6           0        2.077558    0.651688   -0.713743
     24          6           0        2.392317   -0.560083   -0.100695
     25          6           0        2.961883   -0.634531    1.169479
     26          6           0        3.223777    0.560104    1.846833
     27          1           0        3.126075    2.715034    1.791612
     28          1           0        2.110585    2.788908   -0.477476
     29          1           0        1.635877    0.655083   -1.702847
     30          1           0        3.187605   -1.601846    1.601646
     31          1           0        3.667374    0.524617    2.837796
     32          7           0        2.110468   -1.818108   -0.827561
     33          8           0        2.397120   -2.872916   -0.265555
     34          8           0        1.608241   -1.725520   -1.945519
 ---------------------------------------------------------------------

 SCF Done:  E(RHF) =  -669.534640595     A.U. after   15 cycles
 E2 =    -0.2092973021D+01 EUMP2 =    -0.67162761361570D+03

 The electronic state is 1-A.
 Alpha  occ. eigenvalues --  -20.60811 -20.60805 -15.85865 -11.31260 -11.27824
 Alpha  occ. eigenvalues --  -11.27809 -11.27559 -11.26845 -11.26806 -11.21824
 Alpha  occ. eigenvalues --  -11.21476 -11.21394 -11.21372 -11.21292 -11.20885
 Alpha  occ. eigenvalues --   -1.59886  -1.39438  -1.19439  -1.08821  -1.08430
 Alpha  occ. eigenvalues --   -1.04854  -1.03573  -0.96055  -0.95650  -0.87090
 Alpha  occ. eigenvalues --   -0.86227  -0.82492  -0.79657  -0.78209  -0.77521
 Alpha  occ. eigenvalues --   -0.72081  -0.71212  -0.70530  -0.65136  -0.65034
 Alpha  occ. eigenvalues --   -0.64827  -0.62238  -0.60951  -0.59429  -0.57640
 Alpha  occ. eigenvalues --   -0.55423  -0.55282  -0.53212  -0.52952  -0.52726
 Alpha  occ. eigenvalues --   -0.52435  -0.49985  -0.48843  -0.48833  -0.47959
 Alpha  occ. eigenvalues --   -0.46664  -0.45759  -0.45661  -0.44832  -0.43815
 Alpha  occ. eigenvalues --   -0.37413  -0.36362
 Alpha virt. eigenvalues --    0.04969   0.11154   0.16324   0.21070   0.22943
 Alpha virt. eigenvalues --    0.24343   0.26307   0.26735   0.27493   0.28115
 Alpha virt. eigenvalues --    0.29240   0.30572   0.31531   0.31827   0.32060

 Mulliken charges:
               1
     1  C   -0.298595
     2  C   -0.300143
     3  C   -0.475879
     4  H    0.147993
     5  H    0.148871
     6  H    0.155114
     7  H    0.154459
     8  H    0.154160
     9  H    0.153770
    10  H    0.161953
    11  C   -0.299461
    12  C   -0.297431
    13  C   -0.486000
    14  H    0.150900
    15  H    0.152918
    16  H    0.150529
    17  H    0.153014
    18  H    0.157613
    19  H    0.155040
    20  H    0.156644
    21  C   -0.172347
    22  C   -0.219320
    23  C   -0.170165
    24  C    0.156987
    25  C   -0.171363
    26  C   -0.218574
    27  H    0.226160
    28  H    0.227493
    29  H    0.278075
    30  H    0.275853
    31  H    0.223764
    32  N    0.488011
    33  O   -0.460424
    34  O   -0.459619
 Sum of Mulliken charges =  -0.00000

 Dipole moment (field-independent basis, Debye):
    X=              1.0178    Y=              4.3321    Z=              2.5594  Tot=              5.1336
 Quadrupole moment (field-independent basis, Debye-Ang):
   XX=            -90.1246   YY=            -99.3490   ZZ=            -92.2775
   XY=              8.8054   XZ=              8.8471   YZ=             -3.8807

 Normal termination of Gaussian 16 at Wed May  5 20:05:56 2021.
