 Gaussian 16, Revision A.03,
 Gaussian 16:  EM64L-G16RevA.03 25-Dec-2016

 -------------
 #p 6-31g* mp2
 -------------

 ------------------------------------------------------
 Input file generated by CHIRIPA (05-May-2021 14:53:14)
 ------------------------------------------------------
 Symbolic Z-matrix:
 Charge =  0 Multiplicity = 1

                         Standard orientation:
 ---------------------------------------------------------------------
 Center     Atomic      Atomic             Coordinates (Angstroms)
 Number     Number       Type             X           Y           Z
 ---------------------------------------------------------------------
      1          6           0       -4.087682   -0.548555    0.117663
      2          6           0       -2.695281    0.032031   -0.131582
      3          6           0       -1.586220   -1.011267    0.007371
      4          1           0       -4.119911   -0.988240    1.123936
      5          1           0       -4.266177   -1.371096   -0.588708
      6          1           0       -2.520007    0.854138    0.574134
      7          1           0       -2.666420    0.470555   -1.137306
      8          1           0       -1.733477   -1.827551   -0.707188
      9          1           0       -1.586232   -1.441788    1.013976
     10          1           0       -0.599266   -0.574737   -0.174901
     11          6           0       -5.206982    0.482266   -0.017618
     12          6           0       -6.599383   -0.098320    0.231628
     13          6           0       -7.708444    0.944978    0.092674
     14          1           0       -5.028487    1.304807    0.688754
     15          1           0       -5.174753    0.921951   -1.023890
     16          1           0       -6.628243   -0.536844    1.237352
     17          1           0       -6.774657   -0.920427   -0.474088
     18          1           0       -7.708432    1.375499   -0.913930
     19          1           0       -7.561187    1.761262    0.807234
     20          1           0       -8.695398    0.508448    0.274947
     21          6           0        4.440859    2.412224    0.083543
     22          6           0        3.170705    2.129687   -0.429683
     23          6           0        2.711465    0.811217   -0.502376
     24          6           0        3.552407   -0.204807   -0.050935
     25          6           0        4.822967    0.044649    0.465534
     26          6           0        5.261490    1.370641    0.528729
     27          1           0        4.789562    3.439365    0.136324
     28          1           0        2.531236    2.936585   -0.776150
     29          1           0        1.732631    0.564213   -0.895175
     30          1           0        5.437686   -0.780884    0.803218
     31          1           0        6.248378    1.587100    0.927783
     32          7           0        3.077197   -1.604593   -0.122864
     33          8           0        3.837263   -2.481832    0.281348
     34          8           0        1.953658   -1.798001   -0.582093
 ---------------------------------------------------------------------

 SCF Done:  E(RHF) =  -669.535538718     A.U. after   15 cycles
 E2 =    -0.2091213710D+01 EUMP2 =    -0.67162675242801D+03

 The electronic state is 1-A.
 Alpha  occ. eigenvalues --  -20.60832 -20.60824 -15.85867 -11.31237 -11.27809
 Alpha  occ. eigenvalues --  -11.27799 -11.27545 -11.26822 -11.26812 -11.21411
 Alpha  occ. eigenvalues --  -11.21216 -11.21167 -11.21037 -11.20937 -11.20285
 Alpha  occ. eigenvalues --   -1.59897  -1.39452  -1.19408  -1.08803  -1.08139
 Alpha  occ. eigenvalues --   -1.04812  -1.03190  -0.95667  -0.95576  -0.86606
 Alpha  occ. eigenvalues --   -0.86211  -0.82471  -0.79255  -0.77960  -0.77517
 Alpha  occ. eigenvalues --   -0.72092  -0.71214  -0.70519  -0.65064  -0.64820
 Alpha  occ. eigenvalues --   -0.64775  -0.62173  -0.60589  -0.58990  -0.57236
 Alpha  occ. eigenvalues --   -0.55314  -0.54887  -0.53139  -0.52926  -0.52254
 Alpha  occ. eigenvalues --   -0.52023  -0.49537  -0.48850  -0.48840  -0.47560
 Alpha  occ. eigenvalues --   -0.46309  -0.45489  -0.45429  -0.44863  -0.43393
 Alpha  occ. eigenvalues --   -0.37388  -0.36414
 Alpha virt. eigenvalues --    0.04992   0.11213   0.16489   0.20894   0.23092
 Alpha virt. eigenvalues --    0.24124   0.26442   0.26918   0.27677   0.27801
 Alpha virt. eigenvalues --    0.29064   0.30245   0.31564   0.31767   0.32114

 Mulliken charges:
               1
     1  C   -0.297778
     2  C   -0.301688
     3  C   -0.476047
     4  H    0.150039
     5  H    0.150747
     6  H    0.146542
     7  H    0.147507
     8  H    0.160213
     9  H    0.155192
    10  H    0.165853
    11  C   -0.297663
    12  C   -0.299473
    13  C   -0.475488
    14  H    0.147747
    15  H    0.148304
    16  H    0.152085
    17  H    0.152417
    18  H    0.154550
    19  H    0.154306
    20  H    0.159987
    21  C   -0.170551
    22  C   -0.219849
    23  C   -0.172414
    24  C    0.156999
    25  C   -0.170595
    26  C   -0.218616
    27  H    0.225798
    28  H    0.224076
    29  H    0.280248
    30  H    0.275756
    31  H    0.223630
    32  N    0.489378
    33  O   -0.459847
    34  O   -0.461366
 Sum of Mulliken charges =  -0.00000

 Dipole moment (field-independent basis, Debye):
    X=              1.8293    Y=              4.8270    Z=              0.2505  Tot=              5.1681
 Quadrupole moment (field-independent basis, Debye-Ang):
   XX=            -80.5198   YY=            -97.0809   ZZ=            -93.8200
   XY=             16.7411   XZ=              2.9075   YZ=             -0.7380

 Normal termination of Gaussian 16 at Wed May  5 21:50:39 2021.
