 Gaussian 16, Revision A.03,
 Gaussian 16:  EM64L-G16RevA.03 25-Dec-2016

 -------------
 #p 6-31g* mp2
 -------------

 ------------------------------------------------------
 Input file generated by CHIRIPA (05-May-2021 14:55:20)
 ------------------------------------------------------
 Symbolic Z-matrix:
 Charge =  0 Multiplicity = 1

                         Standard orientation:
 ---------------------------------------------------------------------
 Center     Atomic      Atomic             Coordinates (Angstroms)
 Number     Number       Type             X           Y           Z
 ---------------------------------------------------------------------
      1          6           0       -2.219296    2.593134    0.147186
      2          6           0       -3.613936    2.494470    0.105168
      3          6           0       -4.235017    1.244998    0.017844
      4          6           0       -3.427215    0.109722   -0.025685
      5          6           0       -2.035316    0.175316    0.014379
      6          6           0       -1.435818    1.435284    0.101737
      7          1           0       -1.745208    3.567831    0.215035
      8          1           0       -4.224911    3.391978    0.140302
      9          1           0       -5.312597    1.139755   -0.016273
     10          1           0       -1.452778   -0.737218   -0.022352
     11          1           0       -0.352502    1.508882    0.134203
     12          7           0       -4.073301   -1.218593   -0.118150
     13          8           0       -3.339243   -2.203700   -0.155057
     14          8           0       -5.301528   -1.249469   -0.151966
     15          6           0        4.659031    0.179185   -0.224840
     16          6           0        6.128022    0.117660    0.194999
     17          6           0        6.932213    1.324658   -0.288969
     18          1           0        4.599712    0.245941   -1.319814
     19          1           0        4.210593    1.101656    0.169299
     20          1           0        6.573194   -0.805098   -0.198646
     21          1           0        6.183847    0.050849    1.289091
     22          1           0        6.514730    2.252714    0.114790
     23          1           0        6.906290    1.391903   -1.381401
     24          1           0        7.979530    1.260192    0.022207
     25          6           0        3.842043   -1.020516    0.251581
     26          6           0        2.373052   -0.958990   -0.168258
     27          6           0        1.568861   -2.165989    0.315711
     28          1           0        4.290482   -1.942987   -0.142558
     29          1           0        3.901363   -1.087271    1.346556
     30          1           0        2.317228   -0.892181   -1.262349
     31          1           0        1.927881   -0.036232    0.225389
     32          1           0        1.594784   -2.233234    1.408143
     33          1           0        1.986344   -3.094045   -0.088047
     34          1           0        0.521544   -2.101524    0.004534
 ---------------------------------------------------------------------

 SCF Done:  E(RHF) =  -669.535426396     A.U. after   15 cycles
 E2 =    -0.2091503238D+01 EUMP2 =    -0.67162692963474D+03

 The electronic state is 1-A.
 Alpha  occ. eigenvalues --  -20.60734 -20.60729 -15.85785 -11.31139 -11.27713
 Alpha  occ. eigenvalues --  -11.27691 -11.27456 -11.26731 -11.26705 -11.22336
 Alpha  occ. eigenvalues --  -11.22003 -11.21929 -11.21862 -11.21610 -11.21435
 Alpha  occ. eigenvalues --   -1.59808  -1.39363  -1.19314  -1.08961  -1.08712
 Alpha  occ. eigenvalues --   -1.04717  -1.04048  -0.96472  -0.95548  -0.87482
 Alpha  occ. eigenvalues --   -0.86116  -0.82380  -0.80120  -0.78773  -0.77431
 Alpha  occ. eigenvalues --   -0.72005  -0.71130  -0.70438  -0.65592  -0.64966
 Alpha  occ. eigenvalues --   -0.64729  -0.62150  -0.61418  -0.59824  -0.58088
 Alpha  occ. eigenvalues --   -0.55735  -0.55221  -0.53229  -0.53046  -0.52987
 Alpha  occ. eigenvalues --   -0.52651  -0.50391  -0.48764  -0.48761  -0.48423
 Alpha  occ. eigenvalues --   -0.47156  -0.46307  -0.46228  -0.44770  -0.44295
 Alpha  occ. eigenvalues --   -0.37299  -0.36317
 Alpha virt. eigenvalues --    0.05105   0.11334   0.16598   0.19044   0.22648
 Alpha virt. eigenvalues --    0.23690   0.24864   0.25986   0.26566   0.28211
 Alpha virt. eigenvalues --    0.29035   0.29236   0.31183   0.31543   0.32250

 Mulliken charges:
               1
     1  C   -0.171007
     2  C   -0.218964
     3  C   -0.170039
     4  C    0.158403
     5  C   -0.180605
     6  C   -0.226216
     7  H    0.225639
     8  H    0.223229
     9  H    0.275489
    10  H    0.288655
    11  H    0.228307
    12  N    0.486666
    13  O   -0.460796
    14  O   -0.460451
    15  C   -0.298196
    16  C   -0.300107
    17  C   -0.475921
    18  H    0.150526
    19  H    0.146171
    20  H    0.153689
    21  H    0.152708
    22  H    0.154271
    23  H    0.155707
    24  H    0.161809
    25  C   -0.298354
    26  C   -0.303590
    27  C   -0.482133
    28  H    0.153266
    29  H    0.151276
    30  H    0.154813
    31  H    0.142216
    32  H    0.158530
    33  H    0.162396
    34  H    0.162614
 Sum of Mulliken charges =  -0.00000

 Dipole moment (field-independent basis, Debye):
    X=              2.4527    Y=              4.5658    Z=              0.3223  Tot=              5.1929
 Quadrupole moment (field-independent basis, Debye-Ang):
   XX=           -106.2677   YY=            -93.3444   ZZ=            -94.9947
   XY=            -19.2215   XZ=             -1.2127   YZ=              0.5767

 Normal termination of Gaussian 16 at Thu May  6 09:17:27 2021.
