 Gaussian 16, Revision A.03,
 Gaussian 16:  EM64L-G16RevA.03 25-Dec-2016

 -------------
 #p 6-31g* mp2
 -------------

 ------------------------------------------------------
 Input file generated by CHIRIPA (05-May-2021 14:53:14)
 ------------------------------------------------------
 Symbolic Z-matrix:
 Charge =  0 Multiplicity = 1

                         Standard orientation:
 ---------------------------------------------------------------------
 Center     Atomic      Atomic             Coordinates (Angstroms)
 Number     Number       Type             X           Y           Z
 ---------------------------------------------------------------------
      1          6           0        3.881497   -0.451861    0.101469
      2          6           0        4.630409   -1.273486   -0.948315
      3          6           0        4.736940   -2.752552   -0.575744
      4          1           0        4.392275   -0.551876    1.068965
      5          1           0        2.874471   -0.870783    0.234883
      6          1           0        5.635240   -0.852294   -1.080713
      7          1           0        4.117898   -1.171350   -1.913467
      8          1           0        3.741482   -3.194133   -0.463180
      9          1           0        5.267445   -2.873265    0.374305
     10          1           0        5.275915   -3.321239   -1.339917
     11          6           0        3.766788    1.028753   -0.256794
     12          6           0        3.017876    1.850377    0.792991
     13          6           0        2.911345    3.329443    0.420420
     14          1           0        4.773813    1.447674   -0.390208
     15          1           0        3.256010    1.128767   -1.224290
     16          1           0        3.530386    1.748241    1.758142
     17          1           0        2.013045    1.429186    0.925389
     18          1           0        2.380840    3.450157   -0.529630
     19          1           0        3.906802    3.771025    0.307856
     20          1           0        2.372369    3.898130    1.184593
     21          6           0       -0.679970   -0.863926    0.856245
     22          6           0       -0.852880    0.256854    0.037420
     23          6           0       -2.126880    0.620031   -0.409321
     24          6           0       -3.210705   -0.163613   -0.016239
     25          6           0       -3.070779   -1.285898    0.798738
     26          6           0       -1.787518   -1.630374    1.233626
     27          1           0        0.313300   -1.138787    1.198681
     28          1           0        0.005438    0.853939   -0.257239
     29          1           0       -2.289284    1.482739   -1.043968
     30          1           0       -3.945546   -1.861596    1.075814
     31          1           0       -1.656226   -2.501306    1.869458
     32          7           0       -4.564333    0.210968   -0.482910
     33          8           0       -5.503016   -0.495891   -0.122544
     34          8           0       -4.660993    1.204329   -1.200215
 ---------------------------------------------------------------------

 SCF Done:  E(RHF) =  -669.535370139     A.U. after   15 cycles
 E2 =    -0.2092005153D+01 EUMP2 =    -0.67162737529134D+03

 The electronic state is 1-A.
 Alpha  occ. eigenvalues --  -20.60753 -20.60748 -15.85806 -11.31175 -11.27745
 Alpha  occ. eigenvalues --  -11.27740 -11.27477 -11.26756 -11.26734 -11.22731
 Alpha  occ. eigenvalues --  -11.22517 -11.22439 -11.22406 -11.21984 -11.21838
 Alpha  occ. eigenvalues --   -1.59828  -1.39382  -1.19347  -1.09466  -1.08740
 Alpha  occ. eigenvalues --   -1.04753  -1.04478  -0.96911  -0.95576  -0.87924
 Alpha  occ. eigenvalues --   -0.86154  -0.82408  -0.80549  -0.79291  -0.77456
 Alpha  occ. eigenvalues --   -0.72025  -0.71151  -0.70461  -0.66181  -0.64996
 Alpha  occ. eigenvalues --   -0.64726  -0.62210  -0.61762  -0.60273  -0.58523
 Alpha  occ. eigenvalues --   -0.56218  -0.55243  -0.53572  -0.53327  -0.53076
 Alpha  occ. eigenvalues --   -0.52851  -0.50854  -0.48872  -0.48780  -0.48759
 Alpha  occ. eigenvalues --   -0.47590  -0.46807  -0.46744  -0.44787  -0.44748
 Alpha  occ. eigenvalues --   -0.37324  -0.36352
 Alpha virt. eigenvalues --    0.05076   0.11233   0.16550   0.18063   0.22526
 Alpha virt. eigenvalues --    0.23004   0.24649   0.25870   0.27062   0.27868
 Alpha virt. eigenvalues --    0.29758   0.30607   0.30935   0.31015   0.31619

 Mulliken charges:
               1
     1  C   -0.300264
     2  C   -0.300223
     3  C   -0.476152
     4  H    0.152626
     5  H    0.140676
     6  H    0.155365
     7  H    0.153958
     8  H    0.153146
     9  H    0.156190
    10  H    0.163973
    11  C   -0.299897
    12  C   -0.304986
    13  C   -0.476667
    14  H    0.155129
    15  H    0.149246
    16  H    0.156735
    17  H    0.143342
    18  H    0.153969
    19  H    0.159892
    20  H    0.164189
    21  C   -0.175728
    22  C   -0.223702
    23  C   -0.171331
    24  C    0.158625
    25  C   -0.170862
    26  C   -0.218874
    27  H    0.230184
    28  H    0.229204
    29  H    0.275787
    30  H    0.275574
    31  H    0.223719
    32  N    0.487993
    33  O   -0.460423
    34  O   -0.460415
 Sum of Mulliken charges =  -0.00000

 Dipole moment (field-independent basis, Debye):
    X=              5.0204    Y=             -1.2691    Z=              1.6251  Tot=              5.4273
 Quadrupole moment (field-independent basis, Debye-Ang):
   XX=           -123.2267   YY=            -92.3142   ZZ=            -93.9513
   XY=              5.7493   XZ=             -6.1774   YZ=             -2.1889

 Normal termination of Gaussian 16 at Thu May  6 10:32:15 2021.
