 Gaussian 16, Revision A.03,
 Gaussian 16:  EM64L-G16RevA.03 25-Dec-2016

 -------------
 #p 6-31g* mp2
 -------------

 ------------------------------------------------------
 Input file generated by CHIRIPA (05-May-2021 14:55:25)
 ------------------------------------------------------
 Symbolic Z-matrix:
 Charge =  0 Multiplicity = 1

                         Standard orientation:
 ---------------------------------------------------------------------
 Center     Atomic      Atomic             Coordinates (Angstroms)
 Number     Number       Type             X           Y           Z
 ---------------------------------------------------------------------
      1          6           0        2.156821    2.321369    0.058058
      2          6           0        2.332791    1.647442   -1.154946
      3          6           0        2.950056    0.393457   -1.187441
      4          6           0        3.381168   -0.159680    0.017329
      5          6           0        3.220239    0.486909    1.241794
      6          6           0        2.600324    1.739977    1.250454
      7          1           0        1.676285    3.295138    0.074043
      8          1           0        1.989356    2.096543   -2.082526
      9          1           0        3.098989   -0.150211   -2.112461
     10          1           0        3.573081    0.013769    2.150122
     11          1           0        2.464994    2.261058    2.193961
     12          7           0        4.036041   -1.486732   -0.004456
     13          8           0        4.406997   -1.952557    1.070735
     14          8           0        4.165974   -2.035922   -1.096309
     15          6           0       -4.795591   -0.287569    0.387269
     16          6           0       -6.081245   -0.399773   -0.432784
     17          6           0       -7.284461   -0.824789    0.409491
     18          1           0       -4.587325   -1.254728    0.864947
     19          1           0       -4.949294    0.435787    1.199997
     20          1           0       -5.924719   -1.121673   -1.244556
     21          1           0       -6.286371    0.567711   -0.908718
     22          1           0       -7.468856   -0.101482    1.210383
     23          1           0       -7.105148   -1.800465    0.872635
     24          1           0       -8.192777   -0.898747   -0.196606
     25          6           0       -3.583896    0.136442   -0.440823
     26          6           0       -2.298241    0.248645    0.379230
     27          6           0       -1.095025    0.673661   -0.463045
     28          1           0       -3.430192   -0.586914   -1.253551
     29          1           0       -3.792161    1.103601   -0.918499
     30          1           0       -2.093115   -0.718839    0.855165
     31          1           0       -2.454767    0.970546    1.191003
     32          1           0       -1.274338    1.649338   -0.926189
     33          1           0       -0.910631   -0.049645   -1.263936
     34          1           0       -0.186709    0.747620    0.143052
 ---------------------------------------------------------------------

 SCF Done:  E(RHF) =  -669.534308939     A.U. after   15 cycles
 E2 =    -0.2092776728D+01 EUMP2 =    -0.67162708566741D+03

 The electronic state is 1-A.
 Alpha  occ. eigenvalues --  -20.60787 -20.60782 -15.85842 -11.31220 -11.27815
 Alpha  occ. eigenvalues --  -11.27772 -11.27498 -11.26808 -11.26752 -11.21824
 Alpha  occ. eigenvalues --  -11.21757 -11.21604 -11.21534 -11.21257 -11.21200
 Alpha  occ. eigenvalues --   -1.59863  -1.39416  -1.19405  -1.08800  -1.08621
 Alpha  occ. eigenvalues --   -1.04800  -1.03724  -0.96182  -0.95617  -0.87205
 Alpha  occ. eigenvalues --   -0.86189  -0.82448  -0.79800  -0.78442  -0.77494
 Alpha  occ. eigenvalues --   -0.72059  -0.71187  -0.70498  -0.65259  -0.65044
 Alpha  occ. eigenvalues --   -0.64793  -0.62141  -0.61128  -0.59609  -0.57814
 Alpha  occ. eigenvalues --   -0.55479  -0.55287  -0.53759  -0.52886  -0.52632
 Alpha  occ. eigenvalues --   -0.52170  -0.50133  -0.48819  -0.48814  -0.48106
 Alpha  occ. eigenvalues --   -0.46836  -0.45985  -0.45910  -0.44819  -0.43971
 Alpha  occ. eigenvalues --   -0.37274  -0.36389
 Alpha virt. eigenvalues --    0.05033   0.11198   0.16502   0.21218   0.22700
 Alpha virt. eigenvalues --    0.24174   0.26406   0.26885   0.27440   0.27840
 Alpha virt. eigenvalues --    0.28502   0.30943   0.31165   0.31704   0.31926

 Mulliken charges:
               1
     1  C   -0.172713
     2  C   -0.212425
     3  C   -0.171065
     4  C    0.158845
     5  C   -0.171314
     6  C   -0.219264
     7  H    0.226137
     8  H    0.224145
     9  H    0.275734
    10  H    0.275923
    11  H    0.223828
    12  N    0.488113
    13  O   -0.460454
    14  O   -0.460303
    15  C   -0.298328
    16  C   -0.299699
    17  C   -0.475796
    18  H    0.150960
    19  H    0.148641
    20  H    0.152617
    21  H    0.151159
    22  H    0.154826
    23  H    0.155983
    24  H    0.160609
    25  C   -0.298302
    26  C   -0.299789
    27  C   -0.480648
    28  H    0.150546
    29  H    0.147597
    30  H    0.154453
    31  H    0.148776
    32  H    0.145220
    33  H    0.154949
    34  H    0.171037
 Sum of Mulliken charges =  -0.00000

 Dipole moment (field-independent basis, Debye):
    X=             -2.2359    Y=              4.6637    Z=              0.0786  Tot=              5.1725
 Quadrupole moment (field-independent basis, Debye-Ang):
   XX=           -112.1190   YY=            -96.0326   ZZ=            -90.0393
   XY=             16.0502   XZ=              1.2029   YZ=              0.6425

 Normal termination of Gaussian 16 at Wed May  5 22:29:29 2021.
