 Gaussian 16, Revision A.03,
 Gaussian 16:  EM64L-G16RevA.03 25-Dec-2016

 -------------
 #p 6-31g* mp2
 -------------

 ------------------------------------------------------
 Input file generated by CHIRIPA (05-May-2021 14:51:14)
 ------------------------------------------------------
 Symbolic Z-matrix:
 Charge =  0 Multiplicity = 1

                         Standard orientation:
 ---------------------------------------------------------------------
 Center     Atomic      Atomic             Coordinates (Angstroms)
 Number     Number       Type             X           Y           Z
 ---------------------------------------------------------------------
      1          6           0        2.399056   -1.005407    0.770925
      2          6           0        0.879189   -1.106802    0.637854
      3          6           0        0.251547   -2.008720    1.701059
      4          1           0        2.834584   -2.011757    0.703689
      5          1           0        2.647928   -0.623268    1.770639
      6          1           0        0.633214   -1.487328   -0.361802
      7          1           0        0.447243   -0.100074    0.705223
      8          1           0        0.467873   -1.629018    2.704868
      9          1           0        0.654900   -3.024154    1.631780
     10          1           0       -0.835436   -2.066955    1.587323
     11          6           0        3.041052   -0.107219   -0.284929
     12          6           0        4.560919   -0.005825   -0.151857
     13          6           0        5.188560    0.896093   -1.215062
     14          1           0        2.792179   -0.489358   -1.284642
     15          1           0        2.605523    0.899130   -0.217693
     16          1           0        4.992864   -1.012553   -0.219226
     17          1           0        4.806894    0.374701    0.847799
     18          1           0        4.785207    1.911528   -1.145783
     19          1           0        4.972234    0.516392   -2.218871
     20          1           0        6.275544    0.954328   -1.101326
     21          6           0       -2.661274   -0.057566   -0.693697
     22          6           0       -3.630451   -1.179499   -0.319600
     23          6           0       -3.500850   -2.400791   -1.230337
     24          1           0       -2.839628    0.240010   -1.736090
     25          1           0       -1.632582   -0.441316   -0.649832
     26          1           0       -4.656926   -0.793369   -0.362816
     27          1           0       -3.449898   -1.474307    0.722084
     28          1           0       -2.487776   -2.812841   -1.180368
     29          1           0       -3.701663   -2.128033   -2.271431
     30          1           0       -4.202786   -3.190593   -0.945102
     31          6           0       -2.778834    1.170192    0.207701
     32          6           0       -1.809657    2.292125   -0.166397
     33          6           0       -1.939257    3.513418    0.744340
     34          1           0       -3.807526    1.553942    0.163835
     35          1           0       -2.600479    0.872617    1.250093
     36          1           0       -1.990210    2.586933   -1.208080
     37          1           0       -0.783181    1.905995   -0.123182
     38          1           0       -1.738445    3.240660    1.785434
     39          1           0       -2.952332    3.925468    0.694372
     40          1           0       -1.237321    4.303220    0.459104
 ---------------------------------------------------------------------

 SCF Done:  E(RHF) =  -470.732430153     A.U. after   11 cycles
 E2 =    -0.1584912806D+01 EUMP2 =    -0.47231734295954D+03

 The electronic state is 1-A.
 Alpha  occ. eigenvalues --  -11.21710 -11.21643 -11.21588 -11.21569 -11.21474
 Alpha  occ. eigenvalues --  -11.21412 -11.21347 -11.21220 -11.21184 -11.21098
 Alpha  occ. eigenvalues --  -11.21076 -11.21056  -1.08533  -1.08370  -1.03618
 Alpha  occ. eigenvalues --   -1.03509  -0.96063  -0.95946  -0.87071  -0.86971
 Alpha  occ. eigenvalues --   -0.79729  -0.79569  -0.78448  -0.78065  -0.65229
 Alpha  occ. eigenvalues --   -0.65002  -0.61122  -0.60839  -0.59395  -0.59320
 Alpha  occ. eigenvalues --   -0.57700  -0.57525  -0.55353  -0.55214  -0.52750
 Alpha  occ. eigenvalues --   -0.52663  -0.52473  -0.52382  -0.50021  -0.49875
 Alpha  occ. eigenvalues --   -0.48104  -0.47904  -0.46843  -0.46508  -0.46220
 Alpha  occ. eigenvalues --   -0.45747  -0.45722  -0.45158  -0.43836  -0.43744
 Alpha virt. eigenvalues --    0.19707   0.22299   0.23318   0.24958   0.25698
 Alpha virt. eigenvalues --    0.26334   0.26576   0.27767   0.28166   0.29794
 Alpha virt. eigenvalues --    0.30206   0.30741   0.31671   0.31927   0.32461

 Mulliken charges:
               1
     1  C   -0.296879
     2  C   -0.309496
     3  C   -0.480035
     4  H    0.149991
     5  H    0.149662
     6  H    0.152603
     7  H    0.159140
     8  H    0.155700
     9  H    0.156048
    10  H    0.163903
    11  C   -0.298886
    12  C   -0.299715
    13  C   -0.475767
    14  H    0.149856
    15  H    0.149596
    16  H    0.152131
    17  H    0.152032
    18  H    0.155337
    19  H    0.155328
    20  H    0.160400
    21  C   -0.308988
    22  C   -0.300865
    23  C   -0.476435
    24  H    0.148946
    25  H    0.163487
    26  H    0.151897
    27  H    0.152059
    28  H    0.155287
    29  H    0.155267
    30  H    0.160217
    31  C   -0.298190
    32  C   -0.304728
    33  C   -0.475495
    34  H    0.149529
    35  H    0.149264
    36  H    0.152340
    37  H    0.155268
    38  H    0.154787
    39  H    0.155443
    40  H    0.159962
 Sum of Mulliken charges =  -0.00000

 Dipole moment (field-independent basis, Debye):
    X=              0.0555    Y=             -0.0149    Z=             -0.0022  Tot=              0.0575
 Quadrupole moment (field-independent basis, Debye-Ang):
   XX=            -84.7463   YY=            -85.3124   ZZ=            -84.8187
   XY=             -0.7828   XZ=              0.7771   YZ=              0.1259

 Normal termination of Gaussian 16 at Thu May  6 02:26:29 2021.
