 Gaussian 16, Revision A.03,
 Gaussian 16:  EM64L-G16RevA.03 25-Dec-2016

 -------------
 #p 6-31g* mp2
 -------------

 ------------------------------------------------------
 Input file generated by CHIRIPA (05-May-2021 14:53:18)
 ------------------------------------------------------
 Symbolic Z-matrix:
 Charge =  0 Multiplicity = 1

                         Standard orientation:
 ---------------------------------------------------------------------
 Center     Atomic      Atomic             Coordinates (Angstroms)
 Number     Number       Type             X           Y           Z
 ---------------------------------------------------------------------
      1          6           0        3.176150    0.908875   -0.288301
      2          6           0        2.380714    1.933217    0.521630
      3          6           0        2.956459    3.345762    0.416606
      4          1           0        4.219091    0.907881    0.056977
      5          1           0        3.195987    1.220348   -1.341860
      6          1           0        2.361211    1.619179    1.573112
      7          1           0        1.339501    1.931636    0.174514
      8          1           0        2.960786    3.683563   -0.624774
      9          1           0        3.988302    3.369331    0.781772
     10          1           0        2.372563    4.061924    1.003153
     11          6           0        2.612845   -0.507951   -0.193322
     12          6           0        3.408281   -1.532294   -1.003253
     13          6           0        2.832536   -2.944838   -0.898230
     14          1           0        2.593008   -0.819425    0.860236
     15          1           0        1.569904   -0.506957   -0.538600
     16          1           0        4.449494   -1.530712   -0.656137
     17          1           0        3.427784   -1.218255   -2.054736
     18          1           0        1.800693   -2.968407   -1.263395
     19          1           0        2.828209   -3.282639    0.143150
     20          1           0        3.416432   -3.661000   -1.484776
     21          6           0       -3.597200    1.599764   -1.035186
     22          6           0       -3.991841    0.258788   -1.085795
     23          6           0       -3.259236   -0.722853   -0.411837
     24          6           0       -2.132178   -0.326411    0.306400
     25          6           0       -1.713541    1.001445    0.375906
     26          6           0       -2.461312    1.966167   -0.305783
     27          1           0       -4.172196    2.355754   -1.561735
     28          1           0       -4.873556   -0.028669   -1.651475
     29          1           0       -3.542301   -1.768220   -0.434180
     30          1           0       -0.830067    1.257408    0.948072
     31          1           0       -2.152476    3.006830   -0.264713
     32          7           0       -1.348575   -1.356674    1.023981
     33          8           0       -0.359466   -0.981584    1.649768
     34          8           0       -1.738333   -2.519776    0.947047
 ---------------------------------------------------------------------

 SCF Done:  E(RHF) =  -669.535322932     A.U. after   15 cycles
 E2 =    -0.2093330662D+01 EUMP2 =    -0.67162865359467D+03

 The electronic state is 1-A.
 Alpha  occ. eigenvalues --  -20.60863 -20.60829 -15.85871 -11.31232 -11.27804
 Alpha  occ. eigenvalues --  -11.27757 -11.27544 -11.26819 -11.26805 -11.21525
 Alpha  occ. eigenvalues --  -11.21108 -11.20990 -11.20877 -11.20494 -11.20197
 Alpha  occ. eigenvalues --   -1.59908  -1.39463  -1.19405  -1.08804  -1.07927
 Alpha  occ. eigenvalues --   -1.04805  -1.03090  -0.95642  -0.95503  -0.86526
 Alpha  occ. eigenvalues --   -0.86201  -0.82474  -0.79217  -0.77790  -0.77372
 Alpha  occ. eigenvalues --   -0.72097  -0.71222  -0.70516  -0.65058  -0.64846
 Alpha  occ. eigenvalues --   -0.64545  -0.62163  -0.60490  -0.58933  -0.57103
 Alpha  occ. eigenvalues --   -0.55310  -0.54787  -0.53138  -0.52914  -0.52257
 Alpha  occ. eigenvalues --   -0.51902  -0.49450  -0.48867  -0.48858  -0.47485
 Alpha  occ. eigenvalues --   -0.46254  -0.45559  -0.45059  -0.44452  -0.43297
 Alpha  occ. eigenvalues --   -0.37386  -0.36397
 Alpha virt. eigenvalues --    0.04970   0.11162   0.16444   0.20900   0.23345
 Alpha virt. eigenvalues --    0.24556   0.25966   0.27316   0.27719   0.28457
 Alpha virt. eigenvalues --    0.29168   0.31082   0.31614   0.31907   0.32227

 Mulliken charges:
               1
     1  C   -0.298661
     2  C   -0.301486
     3  C   -0.475122
     4  H    0.149256
     5  H    0.145538
     6  H    0.159621
     7  H    0.140681
     8  H    0.153489
     9  H    0.157766
    10  H    0.155480
    11  C   -0.295161
    12  C   -0.300843
    13  C   -0.474008
    14  H    0.165287
    15  H    0.145116
    16  H    0.149147
    17  H    0.146515
    18  H    0.155596
    19  H    0.162457
    20  H    0.155588
    21  C   -0.170565
    22  C   -0.218554
    23  C   -0.170841
    24  C    0.157082
    25  C   -0.175625
    26  C   -0.220583
    27  H    0.225814
    28  H    0.223644
    29  H    0.275681
    30  H    0.283664
    31  H    0.224028
    32  N    0.487816
    33  O   -0.457840
    34  O   -0.459976
 Sum of Mulliken charges =  -0.00000

 Dipole moment (field-independent basis, Debye):
    X=             -2.8171    Y=              3.4732    Z=             -2.3494  Tot=              5.0516
 Quadrupole moment (field-independent basis, Debye-Ang):
   XX=            -81.2022   YY=            -96.4152   ZZ=            -95.9577
   XY=             -5.0178   XZ=              6.9249   YZ=              2.8378

 Normal termination of Gaussian 16 at Thu May  6 06:03:11 2021.
