 Gaussian 16, Revision A.03,
 Gaussian 16:  EM64L-G16RevA.03 25-Dec-2016

 -------------
 #p 6-31g* mp2
 -------------

 ------------------------------------------------------
 Input file generated by CHIRIPA (05-May-2021 14:51:13)
 ------------------------------------------------------
 Symbolic Z-matrix:
 Charge =  0 Multiplicity = 1

                         Standard orientation:
 ---------------------------------------------------------------------
 Center     Atomic      Atomic             Coordinates (Angstroms)
 Number     Number       Type             X           Y           Z
 ---------------------------------------------------------------------
      1          6           0       -5.014147   -0.584016    0.168785
      2          6           0       -5.998858   -0.007844   -0.849230
      3          6           0       -7.328203   -0.762682   -0.878498
      4          1           0       -4.831719   -1.641815   -0.065154
      5          1           0       -5.472975   -0.559261    1.166913
      6          1           0       -5.537779   -0.032403   -1.844930
      7          1           0       -6.178815    1.048757   -0.612954
      8          1           0       -7.812999   -0.727270    0.102481
      9          1           0       -7.168320   -1.814573   -1.136495
     10          1           0       -8.017131   -0.334129   -1.613060
     11          6           0       -3.680531    0.159969    0.209800
     12          6           0       -2.695820   -0.416204    1.227815
     13          6           0       -1.366475    0.338634    1.257083
     14          1           0       -3.221703    0.135213   -0.788328
     15          1           0       -3.862959    1.217767    0.443739
     16          1           0       -2.515863   -1.472804    0.991539
     17          1           0       -3.156899   -0.391644    2.223515
     18          1           0       -1.526358    1.390526    1.515081
     19          1           0       -0.881679    0.303223    0.276105
     20          1           0       -0.677548   -0.089919    1.991645
     21          6           0        5.059924    0.025171   -0.391134
     22          6           0        5.484368   -1.360772    0.095689
     23          6           0        6.912357   -1.720228   -0.315930
     24          1           0        5.148788    0.065550   -1.485400
     25          1           0        5.757115    0.775390    0.006977
     26          1           0        4.785774   -2.108003   -0.302093
     27          1           0        5.394300   -1.397919    1.188906
     28          1           0        7.624923   -0.996835    0.093402
     29          1           0        7.012940   -1.710954   -1.406067
     30          1           0        7.195111   -2.714965    0.042409
     31          6           0        3.634753    0.398876    0.012548
     32          6           0        3.210311    1.784819   -0.474274
     33          6           0        1.782321    2.144275   -0.062654
     34          1           0        2.937563   -0.351342   -0.385563
     35          1           0        3.545889    0.358497    1.106815
     36          1           0        3.300378    1.821966   -1.567491
     37          1           0        3.908903    2.532050   -0.076493
     38          1           0        1.681738    2.135001    1.027482
     39          1           0        1.069755    1.420883   -0.471988
     40          1           0        1.499567    3.139012   -0.420995
 ---------------------------------------------------------------------

 SCF Done:  E(RHF) =  -470.732895869     A.U. after   11 cycles
 E2 =    -0.1582464290D+01 EUMP2 =    -0.47231536015906D+03

 The electronic state is 1-A.
 Alpha  occ. eigenvalues --  -11.21586 -11.21583 -11.21546 -11.21536 -11.21380
 Alpha  occ. eigenvalues --  -11.21371 -11.21320 -11.21310 -11.21060 -11.21057
 Alpha  occ. eigenvalues --  -11.20978 -11.20942  -1.08404  -1.08387  -1.03517
 Alpha  occ. eigenvalues --   -1.03462  -0.95998  -0.95878  -0.87055  -0.86855
 Alpha  occ. eigenvalues --   -0.79661  -0.79448  -0.78237  -0.78177  -0.65051
 Alpha  occ. eigenvalues --   -0.65007  -0.60974  -0.60816  -0.59329  -0.59283
 Alpha  occ. eigenvalues --   -0.57658  -0.57462  -0.55378  -0.55091  -0.52749
 Alpha  occ. eigenvalues --   -0.52627  -0.52512  -0.52109  -0.50054  -0.49711
 Alpha  occ. eigenvalues --   -0.48048  -0.47671  -0.46695  -0.46460  -0.45823
 Alpha  occ. eigenvalues --   -0.45703  -0.45692  -0.45578  -0.43748  -0.43737
 Alpha virt. eigenvalues --    0.22382   0.23017   0.23605   0.24794   0.25977
 Alpha virt. eigenvalues --    0.26654   0.26866   0.27574   0.27745   0.29232
 Alpha virt. eigenvalues --    0.29797   0.31490   0.31673   0.32003   0.32289

 Mulliken charges:
               1
     1  C   -0.298200
     2  C   -0.299614
     3  C   -0.475684
     4  H    0.149513
     5  H    0.149513
     6  H    0.151825
     7  H    0.151952
     8  H    0.155173
     9  H    0.155120
    10  H    0.160192
    11  C   -0.298150
    12  C   -0.300520
    13  C   -0.475798
    14  H    0.149107
    15  H    0.149740
    16  H    0.151447
    17  H    0.151525
    18  H    0.155672
    19  H    0.157244
    20  H    0.159855
    21  C   -0.298217
    22  C   -0.299592
    23  C   -0.475677
    24  H    0.149492
    25  H    0.149494
    26  H    0.151804
    27  H    0.151893
    28  H    0.155170
    29  H    0.155119
    30  H    0.160158
    31  C   -0.297929
    32  C   -0.300023
    33  C   -0.477866
    34  H    0.149094
    35  H    0.149599
    36  H    0.151323
    37  H    0.151476
    38  H    0.156376
    39  H    0.159111
    40  H    0.159282
 Sum of Mulliken charges =  -0.00000

 Dipole moment (field-independent basis, Debye):
    X=             -0.0049    Y=              0.0121    Z=              0.0100  Tot=              0.0165
 Quadrupole moment (field-independent basis, Debye-Ang):
   XX=            -86.8055   YY=            -84.6195   ZZ=            -83.5846
   XY=             -0.1784   XZ=              0.1597   YZ=              0.7177

 Normal termination of Gaussian 16 at Thu May  6 05:32:28 2021.
