 Gaussian 16, Revision A.03,
 Gaussian 16:  EM64L-G16RevA.03 25-Dec-2016

 -------------
 #p 6-31g* mp2
 -------------

 ------------------------------------------------------
 Input file generated by CHIRIPA (05-May-2021 14:51:10)
 ------------------------------------------------------
 Symbolic Z-matrix:
 Charge =  0 Multiplicity = 1

                         Standard orientation:
 ---------------------------------------------------------------------
 Center     Atomic      Atomic             Coordinates (Angstroms)
 Number     Number       Type             X           Y           Z
 ---------------------------------------------------------------------
      1          6           0       -2.622969    1.157962   -0.314559
      2          6           0       -1.728913    1.694560    0.803792
      3          6           0       -0.758385    2.772057    0.319158
      4          1           0       -1.991879    0.751137   -1.116534
      5          1           0       -3.188489    1.991256   -0.754109
      6          1           0       -1.166276    0.860289    1.242024
      7          1           0       -2.362208    2.099981    1.603283
      8          1           0       -1.305315    3.622941   -0.099727
      9          1           0       -0.102587    2.376205   -0.463039
     10          1           0       -0.128955    3.141611    1.134699
     11          6           0       -3.598664    0.080062    0.154354
     12          6           0       -4.492721   -0.456537   -0.963997
     13          6           0       -5.463249   -1.534033   -0.479363
     14          1           0       -3.033145   -0.753232    0.593904
     15          1           0       -4.229755    0.486887    0.956329
     16          1           0       -3.859425   -0.861958   -1.763488
     17          1           0       -5.055358    0.377734   -1.402229
     18          1           0       -6.119047   -1.138181    0.302834
     19          1           0       -4.916319   -2.384918   -0.060477
     20          1           0       -6.092679   -1.903588   -1.294904
     21          6           0        3.587915   -0.333569   -0.443664
     22          6           0        5.015239   -0.149056    0.072756
     23          6           0        5.957879    0.422788   -0.986590
     24          1           0        3.604357   -0.997578   -1.318745
     25          1           0        3.203858    0.634774   -0.793245
     26          1           0        5.395991   -1.117196    0.422538
     27          1           0        4.995374    0.514438    0.946825
     28          1           0        5.604496    1.400726   -1.329166
     29          1           0        6.007390   -0.240178   -1.856433
     30          1           0        6.972812    0.546519   -0.596125
     31          6           0        2.633718   -0.904455    0.603869
     32          6           0        1.206396   -1.088967    0.087449
     33          6           0        0.263753   -1.660811    1.146795
     34          1           0        3.017776   -1.872797    0.953450
     35          1           0        2.617276   -0.240445    1.478950
     36          1           0        1.226260   -1.752461   -0.786620
     37          1           0        0.825642   -0.120828   -0.262334
     38          1           0        0.214245   -0.997845    2.016638
     39          1           0        0.617138   -2.638749    1.489371
     40          1           0       -0.751178   -1.784542    0.756330
 ---------------------------------------------------------------------

 SCF Done:  E(RHF) =  -470.732316185     A.U. after   11 cycles
 E2 =    -0.1584753784D+01 EUMP2 =    -0.47231706996957D+03

 The electronic state is 1-A.
 Alpha  occ. eigenvalues --  -11.21670 -11.21621 -11.21591 -11.21506 -11.21445
 Alpha  occ. eigenvalues --  -11.21384 -11.21381 -11.21322 -11.21163 -11.21092
 Alpha  occ. eigenvalues --  -11.21083 -11.21065  -1.08502  -1.08390  -1.03631
 Alpha  occ. eigenvalues --   -1.03476  -0.96042  -0.95976  -0.87070  -0.86979
 Alpha  occ. eigenvalues --   -0.79671  -0.79566  -0.78299  -0.78211  -0.65370
 Alpha  occ. eigenvalues --   -0.64881  -0.61351  -0.60564  -0.59391  -0.59337
 Alpha  occ. eigenvalues --   -0.57674  -0.57550  -0.55389  -0.55221  -0.52771
 Alpha  occ. eigenvalues --   -0.52641  -0.52474  -0.52373  -0.50117  -0.49823
 Alpha  occ. eigenvalues --   -0.48045  -0.47807  -0.46800  -0.46493  -0.45883
 Alpha  occ. eigenvalues --   -0.45789  -0.45676  -0.45576  -0.43810  -0.43756
 Alpha virt. eigenvalues --    0.19781   0.22627   0.23766   0.24473   0.25983
 Alpha virt. eigenvalues --    0.26388   0.26622   0.27896   0.28446   0.29130
 Alpha virt. eigenvalues --    0.30769   0.31217   0.31824   0.31996   0.32586

 Mulliken charges:
               1
     1  C   -0.298724
     2  C   -0.309051
     3  C   -0.477514
     4  H    0.149998
     5  H    0.149528
     6  H    0.163909
     7  H    0.151816
     8  H    0.155532
     9  H    0.155390
    10  H    0.159619
    11  C   -0.303584
    12  C   -0.299535
    13  C   -0.475653
    14  H    0.153814
    15  H    0.149880
    16  H    0.151771
    17  H    0.152005
    18  H    0.155260
    19  H    0.154997
    20  H    0.160242
    21  C   -0.298546
    22  C   -0.299688
    23  C   -0.475781
    24  H    0.149626
    25  H    0.149697
    26  H    0.151951
    27  H    0.152141
    28  H    0.155398
    29  H    0.155150
    30  H    0.160341
    31  C   -0.297935
    32  C   -0.306356
    33  C   -0.483809
    34  H    0.149747
    35  H    0.149948
    36  H    0.152166
    37  H    0.158412
    38  H    0.156028
    39  H    0.157143
    40  H    0.164667
 Sum of Mulliken charges =  -0.00000

 Dipole moment (field-independent basis, Debye):
    X=              0.0230    Y=             -0.0229    Z=              0.0169  Tot=              0.0366
 Quadrupole moment (field-independent basis, Debye-Ang):
   XX=            -85.4794   YY=            -84.2215   ZZ=            -85.1128
   XY=             -1.6281   XZ=              0.4401   YZ=              0.8570

 Normal termination of Gaussian 16 at Thu May  6 03:46:09 2021.
