 Gaussian 16, Revision A.03,
 Gaussian 16:  EM64L-G16RevA.03 25-Dec-2016

 -------------
 #p 6-31g* mp2
 -------------

 ------------------------------------------------------
 Input file generated by CHIRIPA (05-May-2021 14:55:23)
 ------------------------------------------------------
 Symbolic Z-matrix:
 Charge =  0 Multiplicity = 1

                         Standard orientation:
 ---------------------------------------------------------------------
 Center     Atomic      Atomic             Coordinates (Angstroms)
 Number     Number       Type             X           Y           Z
 ---------------------------------------------------------------------
      1          6           0        2.984448    2.375405    0.672621
      2          6           0        1.719382    2.061951    0.164807
      3          6           0        1.428732    0.763952   -0.265622
      4          6           0        2.431245   -0.200300   -0.173548
      5          6           0        3.701262    0.080947    0.327697
      6          6           0        3.969614    1.385647    0.752305
      7          1           0        3.201571    3.386325    1.004728
      8          1           0        0.952350    2.828587    0.101750
      9          1           0        0.457832    0.493884   -0.662905
     10          1           0        4.445443   -0.704586    0.378194
     11          1           0        4.952969    1.626208    1.146245
     12          7           0        2.135350   -1.577980   -0.626142
     13          8           0        3.035817   -2.409494   -0.534588
     14          8           0        1.008564   -1.800206   -1.063870
     15          6           0       -3.461417   -0.721948    0.294400
     16          6           0       -2.388976   -1.789666    0.513106
     17          6           0       -2.978737   -3.160039    0.847848
     18          1           0       -4.082485   -0.644797    1.197321
     19          1           0       -4.128623   -1.043239   -0.517391
     20          1           0       -1.723167   -1.465815    1.323313
     21          1           0       -1.770268   -1.864148   -0.390371
     22          1           0       -3.627521   -3.508529    0.037764
     23          1           0       -3.580151   -3.107933    1.761186
     24          1           0       -2.194599   -3.908220    1.000204
     25          6           0       -2.887413    0.653445   -0.041076
     26          6           0       -3.959854    1.721163   -0.259782
     27          6           0       -3.370094    3.091536   -0.594524
     28          1           0       -2.220208    0.974737    0.770715
     29          1           0       -2.266345    0.576294   -0.943998
     30          1           0       -4.578562    1.795646    0.643695
     31          1           0       -4.625663    1.397313   -1.069990
     32          1           0       -2.768679    3.039431   -1.507862
     33          1           0       -2.721309    3.440026    0.215558
     34          1           0       -4.154232    3.839717   -0.746881
 ---------------------------------------------------------------------

 SCF Done:  E(RHF) =  -669.536184298     A.U. after   15 cycles
 E2 =    -0.2092261438D+01 EUMP2 =    -0.67162844573554D+03

 The electronic state is 1-A.
 Alpha  occ. eigenvalues --  -20.60827 -20.60821 -15.85866 -11.31168 -11.27747
 Alpha  occ. eigenvalues --  -11.27698 -11.27482 -11.26753 -11.26724 -11.21855
 Alpha  occ. eigenvalues --  -11.21618 -11.21539 -11.21158 -11.20869 -11.20413
 Alpha  occ. eigenvalues --   -1.59891  -1.39448  -1.19342  -1.08752  -1.08379
 Alpha  occ. eigenvalues --   -1.04733  -1.03372  -0.95892  -0.95595  -0.86910
 Alpha  occ. eigenvalues --   -0.86136  -0.82432  -0.79514  -0.78161  -0.77430
 Alpha  occ. eigenvalues --   -0.72094  -0.71205  -0.70453  -0.65041  -0.64969
 Alpha  occ. eigenvalues --   -0.64731  -0.62080  -0.60758  -0.59302  -0.57455
 Alpha  occ. eigenvalues --   -0.55257  -0.55197  -0.53072  -0.52842  -0.52543
 Alpha  occ. eigenvalues --   -0.52302  -0.49858  -0.48870  -0.48843  -0.47798
 Alpha  occ. eigenvalues --   -0.46570  -0.45694  -0.45505  -0.44765  -0.43652
 Alpha  occ. eigenvalues --   -0.37328  -0.36334
 Alpha virt. eigenvalues --    0.05026   0.11301   0.16501   0.20264   0.23077
 Alpha virt. eigenvalues --    0.24152   0.24904   0.26331   0.27496   0.28358
 Alpha virt. eigenvalues --    0.29916   0.30933   0.31678   0.31711   0.32622

 Mulliken charges:
               1
     1  C   -0.170492
     2  C   -0.221819
     3  C   -0.174954
     4  C    0.157266
     5  C   -0.170477
     6  C   -0.218977
     7  H    0.225571
     8  H    0.225011
     9  H    0.283605
    10  H    0.275366
    11  H    0.223294
    12  N    0.491201
    13  O   -0.459964
    14  O   -0.463851
    15  C   -0.297711
    16  C   -0.308264
    17  C   -0.475968
    18  H    0.147935
    19  H    0.150372
    20  H    0.146544
    21  H    0.176824
    22  H    0.154020
    23  H    0.150159
    24  H    0.166183
    25  C   -0.303267
    26  C   -0.298467
    27  C   -0.476650
    28  H    0.144731
    29  H    0.148580
    30  H    0.153717
    31  H    0.155038
    32  H    0.153126
    33  H    0.149419
    34  H    0.162898
 Sum of Mulliken charges =  -0.00000

 Dipole moment (field-independent basis, Debye):
    X=              1.0548    Y=              4.7099    Z=              1.5175  Tot=              5.0595
 Quadrupole moment (field-independent basis, Debye-Ang):
   XX=            -85.5059   YY=            -97.8450   ZZ=            -95.0321
   XY=             10.0372   XZ=              5.4585   YZ=             -0.8741

 Normal termination of Gaussian 16 at Thu May  6 03:06:09 2021.
