 Gaussian 16, Revision A.03,
 Gaussian 16:  EM64L-G16RevA.03 25-Dec-2016

 -------------
 #p 6-31g* mp2
 -------------

 ------------------------------------------------------
 Input file generated by CHIRIPA (05-May-2021 14:55:21)
 ------------------------------------------------------
 Symbolic Z-matrix:
 Charge =  0 Multiplicity = 1

                         Standard orientation:
 ---------------------------------------------------------------------
 Center     Atomic      Atomic             Coordinates (Angstroms)
 Number     Number       Type             X           Y           Z
 ---------------------------------------------------------------------
      1          6           0        2.556613    2.329415   -0.181953
      2          6           0        3.427057    1.529562   -0.929671
      3          6           0        3.413498    0.138966   -0.786117
      4          6           0        2.512485   -0.420889    0.118332
      5          6           0        1.632811    0.349183    0.877577
      6          6           0        1.663842    1.737716    0.717699
      7          1           0        2.573932    3.408862   -0.299810
      8          1           0        4.121461    1.986339   -1.629102
      9          1           0        4.076399   -0.503938   -1.352380
     10          1           0        0.951825   -0.135070    1.566906
     11          1           0        0.986694    2.356410    1.299707
     12          7           0        2.488883   -1.891958    0.278948
     13          8           0        1.685609   -2.360779    1.082437
     14          8           0        3.274104   -2.548307   -0.401693
     15          6           0       -3.749839   -0.317650   -0.043100
     16          6           0       -3.255292   -1.702153   -0.463292
     17          6           0       -4.324662   -2.783959   -0.308570
     18          1           0       -4.085272   -0.356800    1.002317
     19          1           0       -4.630596   -0.052533   -0.644245
     20          1           0       -2.374898   -1.963990    0.137509
     21          1           0       -2.920820   -1.659656   -1.507772
     22          1           0       -5.201313   -2.549459   -0.921020
     23          1           0       -4.652289   -2.855522    0.733610
     24          1           0       -3.949824   -3.765662   -0.614536
     25          6           0       -2.692082    0.774453   -0.192065
     26          6           0       -3.186628    2.158956    0.228128
     27          6           0       -2.117260    3.240763    0.073406
     28          1           0       -1.811325    0.509337    0.409081
     29          1           0       -2.356649    0.813603   -1.237482
     30          1           0       -3.521101    2.116460    1.272608
     31          1           0       -4.067023    2.420793   -0.372674
     32          1           0       -1.789632    3.312325   -0.968774
     33          1           0       -1.240609    3.006262    0.685855
     34          1           0       -2.492097    4.222466    0.379371
 ---------------------------------------------------------------------

 SCF Done:  E(RHF) =  -669.535362059     A.U. after   15 cycles
 E2 =    -0.2092005733D+01 EUMP2 =    -0.67162736779235D+03

 The electronic state is 1-A.
 Alpha  occ. eigenvalues --  -20.60781 -20.60775 -15.85834 -11.31194 -11.27769
 Alpha  occ. eigenvalues --  -11.27761 -11.27493 -11.26776 -11.26761 -11.22056
 Alpha  occ. eigenvalues --  -11.21795 -11.21676 -11.21466 -11.21402 -11.20857
 Alpha  occ. eigenvalues --   -1.59854  -1.39409  -1.19366  -1.08759  -1.08622
 Alpha  occ. eigenvalues --   -1.04773  -1.03716  -0.96197  -0.95595  -0.87224
 Alpha  occ. eigenvalues --   -0.86166  -0.82434  -0.79806  -0.78382  -0.77478
 Alpha  occ. eigenvalues --   -0.72053  -0.71175  -0.70470  -0.65280  -0.65017
 Alpha  occ. eigenvalues --   -0.64795  -0.62156  -0.61095  -0.59583  -0.57773
 Alpha  occ. eigenvalues --   -0.55536  -0.55252  -0.53102  -0.52981  -0.52866
 Alpha  occ. eigenvalues --   -0.52514  -0.50146  -0.48810  -0.48807  -0.48100
 Alpha  occ. eigenvalues --   -0.46835  -0.45930  -0.45825  -0.44813  -0.43962
 Alpha  occ. eigenvalues --   -0.37333  -0.36344
 Alpha virt. eigenvalues --    0.05028   0.11204   0.16435   0.19932   0.22929
 Alpha virt. eigenvalues --    0.24046   0.25330   0.26280   0.26977   0.28634
 Alpha virt. eigenvalues --    0.29305   0.30170   0.31375   0.31955   0.32024

 Mulliken charges:
               1
     1  C   -0.171731
     2  C   -0.218525
     3  C   -0.170887
     4  C    0.158411
     5  C   -0.171477
     6  C   -0.217588
     7  H    0.226241
     8  H    0.223475
     9  H    0.275600
    10  H    0.274888
    11  H    0.226579
    12  N    0.488272
    13  O   -0.460975
    14  O   -0.460276
    15  C   -0.298724
    16  C   -0.301760
    17  C   -0.475931
    18  H    0.149518
    19  H    0.149431
    20  H    0.159189
    21  H    0.151958
    22  H    0.153340
    23  H    0.155104
    24  H    0.163792
    25  C   -0.297859
    26  C   -0.299992
    27  C   -0.476479
    28  H    0.144835
    29  H    0.151420
    30  H    0.152368
    31  H    0.154636
    32  H    0.157247
    33  H    0.144510
    34  H    0.161390
 Sum of Mulliken charges =  -0.00000

 Dipole moment (field-independent basis, Debye):
    X=              0.0489    Y=              5.1074    Z=             -0.6323  Tot=              5.1467
 Quadrupole moment (field-independent basis, Debye-Ang):
   XX=            -92.2036   YY=           -100.4444   ZZ=            -92.1613
   XY=             12.2896   XZ=             -3.9565   YZ=              0.9341

 Normal termination of Gaussian 16 at Wed May  5 15:56:51 2021.
