 Gaussian 16, Revision A.03,
 Gaussian 16:  EM64L-G16RevA.03 25-Dec-2016

 -------------
 #p 6-31g* mp2
 -------------

 ------------------------------------------------------
 Input file generated by CHIRIPA (05-May-2021 14:53:12)
 ------------------------------------------------------
 Symbolic Z-matrix:
 Charge =  0 Multiplicity = 1

                         Standard orientation:
 ---------------------------------------------------------------------
 Center     Atomic      Atomic             Coordinates (Angstroms)
 Number     Number       Type             X           Y           Z
 ---------------------------------------------------------------------
      1          6           0        3.042034    0.310555   -0.545888
      2          6           0        3.948497   -0.508926    0.373221
      3          6           0        4.721524   -1.595636   -0.374632
      4          1           0        2.335508   -0.363397   -1.049431
      5          1           0        3.651964    0.770698   -1.335602
      6          1           0        3.337234   -0.966263    1.161774
      7          1           0        4.652822    0.167079    0.874779
      8          1           0        5.355201   -1.153237   -1.150092
      9          1           0        4.032139   -2.293018   -0.861466
     10          1           0        5.363191   -2.169290    0.301418
     11          6           0        2.262620    1.400926    0.187140
     12          6           0        1.356157    2.220407   -0.731969
     13          6           0        0.583130    3.307117    0.015885
     14          1           0        1.652690    0.940783    0.976854
     15          1           0        2.969146    2.074878    0.690683
     16          1           0        0.651832    1.544402   -1.233527
     17          1           0        1.967420    2.677744   -1.520522
     18          1           0        1.272515    4.004499    0.502719
     19          1           0       -0.050547    2.864718    0.791344
     20          1           0       -0.058537    3.880771   -0.660166
     21          6           0        0.153200   -1.737384    0.661115
     22          6           0       -0.418102   -0.834442    1.563794
     23          6           0       -1.650668   -0.236207    1.285505
     24          6           0       -2.287267   -0.565216    0.089770
     25          6           0       -1.743764   -1.461035   -0.829689
     26          6           0       -0.510285   -2.047252   -0.530645
     27          1           0        1.111041   -2.197440    0.885357
     28          1           0        0.094908   -0.591918    2.490104
     29          1           0       -2.115626    0.466178    1.966598
     30          1           0       -2.278982   -1.683030   -1.744936
     31          1           0       -0.068982   -2.748136   -1.233538
     32          7           0       -3.592613    0.061748   -0.215829
     33          8           0       -4.133343   -0.244796   -1.276149
     34          8           0       -4.050295    0.847834    0.610750
 ---------------------------------------------------------------------

 SCF Done:  E(RHF) =  -669.534195975     A.U. after   15 cycles
 E2 =    -0.2096026630D+01 EUMP2 =    -0.67163022260443D+03

 The electronic state is 1-A.
 Alpha  occ. eigenvalues --  -20.60858 -20.60852 -15.85915 -11.31339 -11.27912
 Alpha  occ. eigenvalues --  -11.27909 -11.27632 -11.26935 -11.26917 -11.22503
 Alpha  occ. eigenvalues --  -11.21961 -11.21952 -11.21804 -11.21707 -11.21195
 Alpha  occ. eigenvalues --   -1.59932  -1.39484  -1.19525  -1.09061  -1.08814
 Alpha  occ. eigenvalues --   -1.04937  -1.04052  -0.96488  -0.95723  -0.87509
 Alpha  occ. eigenvalues --   -0.86329  -0.82557  -0.80150  -0.78749  -0.77591
 Alpha  occ. eigenvalues --   -0.72131  -0.71257  -0.70653  -0.65715  -0.65170
 Alpha  occ. eigenvalues --   -0.64871  -0.62278  -0.61484  -0.59879  -0.58083
 Alpha  occ. eigenvalues --   -0.55827  -0.55408  -0.53236  -0.53176  -0.53039
 Alpha  occ. eigenvalues --   -0.52857  -0.50446  -0.48896  -0.48883  -0.48449
 Alpha  occ. eigenvalues --   -0.47220  -0.46278  -0.46217  -0.44877  -0.44273
 Alpha  occ. eigenvalues --   -0.37408  -0.36460
 Alpha virt. eigenvalues --    0.04901   0.10939   0.16275   0.19190   0.23265
 Alpha virt. eigenvalues --    0.23331   0.25319   0.26232   0.27291   0.27887
 Alpha virt. eigenvalues --    0.29465   0.30246   0.30860   0.31296   0.32060

 Mulliken charges:
               1
     1  C   -0.301144
     2  C   -0.300949
     3  C   -0.475409
     4  H    0.148314
     5  H    0.152753
     6  H    0.139163
     7  H    0.156883
     8  H    0.160277
     9  H    0.149069
    10  H    0.161848
    11  C   -0.299835
    12  C   -0.300671
    13  C   -0.476046
    14  H    0.148887
    15  H    0.148936
    16  H    0.154984
    17  H    0.152145
    18  H    0.154230
    19  H    0.152573
    20  H    0.164845
    21  C   -0.168056
    22  C   -0.221515
    23  C   -0.171044
    24  C    0.158652
    25  C   -0.171073
    26  C   -0.219993
    27  H    0.231437
    28  H    0.224926
    29  H    0.276511
    30  H    0.276431
    31  H    0.224515
    32  N    0.488125
    33  O   -0.460014
    34  O   -0.459755
 Sum of Mulliken charges =  -0.00000

 Dipole moment (field-independent basis, Debye):
    X=              4.5312    Y=             -2.1814    Z=              1.0216  Tot=              5.1317
 Quadrupole moment (field-independent basis, Debye-Ang):
   XX=           -116.1721   YY=            -91.7701   ZZ=            -91.1473
   XY=              3.6796   XZ=             -1.9216   YZ=              1.1758

 Normal termination of Gaussian 16 at Thu May  6 13:38:53 2021.
