 Gaussian 16, Revision A.03,
 Gaussian 16:  EM64L-G16RevA.03 25-Dec-2016

 -------------
 #p 6-31g* mp2
 -------------

 ------------------------------------------------------
 Input file generated by CHIRIPA (05-May-2021 14:55:22)
 ------------------------------------------------------
 Symbolic Z-matrix:
 Charge =  0 Multiplicity = 1

                         Standard orientation:
 ---------------------------------------------------------------------
 Center     Atomic      Atomic             Coordinates (Angstroms)
 Number     Number       Type             X           Y           Z
 ---------------------------------------------------------------------
      1          6           0       -5.147947   -1.598101    0.196044
      2          6           0       -3.892020   -1.845641   -0.367775
      3          6           0       -2.960622   -0.812510   -0.508078
      4          6           0       -3.320035    0.461806   -0.071924
      5          6           0       -4.563346    0.740042    0.493808
      6          6           0       -5.479018   -0.308323    0.624281
      7          1           0       -5.865372   -2.406579    0.301217
      8          1           0       -3.632172   -2.846308   -0.701227
      9          1           0       -1.981266   -0.976261   -0.941051
     10          1           0       -4.793568    1.748004    0.816959
     11          1           0       -6.453648   -0.113157    1.062518
     12          7           0       -2.342329    1.563600   -0.215253
     13          8           0       -2.683293    2.677453    0.176809
     14          8           0       -1.253553    1.292470   -0.716942
     15          6           0        5.181821   -0.471168    0.271152
     16          6           0        6.119380    0.656540   -0.161563
     17          6           0        7.568151    0.417065    0.264475
     18          1           0        5.230935   -0.581575    1.363098
     19          1           0        5.538466   -1.419020   -0.155202
     20          1           0        5.760287    1.602198    0.264346
     21          1           0        6.067884    0.764402   -1.252585
     22          1           0        7.949567   -0.511681   -0.172050
     23          1           0        7.640222    0.330876    1.353501
     24          1           0        8.221051    1.235291   -0.055037
     25          6           0        3.729981   -0.246188   -0.147501
     26          6           0        2.792421   -1.373896    0.285214
     27          6           0        1.343650   -1.134422   -0.140823
     28          1           0        3.373335    0.701663    0.278854
     29          1           0        3.680867   -0.135781   -1.239446
     30          1           0        2.843918   -1.481758    1.376236
     31          1           0        3.151514   -2.319554   -0.140696
     32          1           0        1.271579   -1.048232   -1.229849
     33          1           0        0.962234   -0.205676    0.295702
     34          1           0        0.690750   -1.952648    0.178689
 ---------------------------------------------------------------------

 SCF Done:  E(RHF) =  -669.535932659     A.U. after   15 cycles
 E2 =    -0.2091203367D+01 EUMP2 =    -0.67162713602616D+03

 The electronic state is 1-A.
 Alpha  occ. eigenvalues --  -20.60830 -20.60825 -15.85862 -11.31188 -11.27767
 Alpha  occ. eigenvalues --  -11.27731 -11.27508 -11.26775 -11.26758 -11.21171
 Alpha  occ. eigenvalues --  -11.21096 -11.20933 -11.20790 -11.20721 -11.20399
 Alpha  occ. eigenvalues --   -1.59897  -1.39451  -1.19363  -1.08770  -1.07933
 Alpha  occ. eigenvalues --   -1.04760  -1.03043  -0.95626  -0.95471  -0.86508
 Alpha  occ. eigenvalues --   -0.86158  -0.82442  -0.79116  -0.77745  -0.77467
 Alpha  occ. eigenvalues --   -0.72088  -0.71213  -0.70473  -0.65020  -0.64765
 Alpha  occ. eigenvalues --   -0.64563  -0.62106  -0.60437  -0.58883  -0.57094
 Alpha  occ. eigenvalues --   -0.55271  -0.54755  -0.53096  -0.52869  -0.52211
 Alpha  occ. eigenvalues --   -0.51886  -0.49415  -0.48845  -0.48841  -0.47403
 Alpha  occ. eigenvalues --   -0.46151  -0.45294  -0.45218  -0.44755  -0.43319
 Alpha  occ. eigenvalues --   -0.37349  -0.36361
 Alpha virt. eigenvalues --    0.05004   0.11278   0.16480   0.21169   0.23358
 Alpha virt. eigenvalues --    0.24631   0.26292   0.27213   0.27699   0.28041
 Alpha virt. eigenvalues --    0.29223   0.30665   0.31649   0.31987   0.32320

 Mulliken charges:
               1
     1  C   -0.170454
     2  C   -0.219715
     3  C   -0.173381
     4  C    0.157051
     5  C   -0.170693
     6  C   -0.218834
     7  H    0.225569
     8  H    0.223699
     9  H    0.282624
    10  H    0.275429
    11  H    0.223368
    12  N    0.488663
    13  O   -0.460052
    14  O   -0.460367
    15  C   -0.298034
    16  C   -0.299538
    17  C   -0.475459
    18  H    0.148456
    19  H    0.147374
    20  H    0.153516
    21  H    0.152012
    22  H    0.153951
    23  H    0.154494
    24  H    0.159689
    25  C   -0.298355
    26  C   -0.300403
    27  C   -0.479901
    28  H    0.154927
    29  H    0.150335
    30  H    0.149736
    31  H    0.147442
    32  H    0.154947
    33  H    0.176194
    34  H    0.145710
 Sum of Mulliken charges =  -0.00000

 Dipole moment (field-independent basis, Debye):
    X=             -3.5564    Y=             -3.7242    Z=              0.4882  Tot=              5.1726
 Quadrupole moment (field-independent basis, Debye-Ang):
   XX=            -71.7897   YY=            -96.8210   ZZ=            -94.0568
   XY=              9.4228   XZ=             -3.5161   YZ=              2.5188

 Normal termination of Gaussian 16 at Wed May  5 23:52:46 2021.
