 Gaussian 16, Revision A.03,
 Gaussian 16:  EM64L-G16RevA.03 25-Dec-2016

 -------------
 #p 6-31g* mp2
 -------------

 ------------------------------------------------------
 Input file generated by CHIRIPA (05-May-2021 14:55:22)
 ------------------------------------------------------
 Symbolic Z-matrix:
 Charge =  0 Multiplicity = 1

                         Standard orientation:
 ---------------------------------------------------------------------
 Center     Atomic      Atomic             Coordinates (Angstroms)
 Number     Number       Type             X           Y           Z
 ---------------------------------------------------------------------
      1          6           0       -1.442374   -2.368435    0.929551
      2          6           0       -2.673312   -1.923909    1.423220
      3          6           0       -3.274627   -0.774896    0.900977
      4          6           0       -2.614202   -0.091667   -0.118988
      5          6           0       -1.387133   -0.509383   -0.631925
      6          6           0       -0.804338   -1.661001   -0.094641
      7          1           0       -0.982452   -3.262028    1.341084
      8          1           0       -3.171106   -2.471313    2.218578
      9          1           0       -4.226999   -0.408543    1.264557
     10          1           0       -0.915011    0.057352   -1.425228
     11          1           0        0.151685   -2.003898   -0.479981
     12          7           0       -3.240984    1.126120   -0.679825
     13          8           0       -2.638799    1.710269   -1.578035
     14          8           0       -4.322573    1.473414   -0.210581
     15          6           0        3.003430   -0.252773   -0.348070
     16          6           0        4.007839   -1.399746   -0.231453
     17          6           0        3.572674   -2.647151   -1.001134
     18          1           0        2.025740   -0.590990    0.021625
     19          1           0        2.866454   -0.001026   -1.408851
     20          1           0        4.143924   -1.648330    0.828879
     21          1           0        4.983299   -1.058699   -0.601291
     22          1           0        3.455427   -2.421408   -2.065979
     23          1           0        2.611283   -3.014389   -0.627683
     24          1           0        4.305122   -3.454600   -0.904152
     25          6           0        3.424476    1.001247    0.416052
     26          6           0        2.420068    2.148222    0.299434
     27          6           0        2.855233    3.395625    1.069115
     28          1           0        3.561453    0.749501    1.476833
     29          1           0        4.402167    1.339466    0.046356
     30          1           0        1.444609    1.807174    0.669273
     31          1           0        2.283982    2.396806   -0.760897
     32          1           0        3.816623    3.762865    0.695665
     33          1           0        2.972479    3.169883    2.133960
     34          1           0        2.122785    4.203074    0.972133
 ---------------------------------------------------------------------

 SCF Done:  E(RHF) =  -669.535348971     A.U. after   15 cycles
 E2 =    -0.2092465279D+01 EUMP2 =    -0.67162781424925D+03

 The electronic state is 1-A.
 Alpha  occ. eigenvalues --  -20.60759 -20.60754 -15.85813 -11.31187 -11.27765
 Alpha  occ. eigenvalues --  -11.27748 -11.27502 -11.26780 -11.26726 -11.22314
 Alpha  occ. eigenvalues --  -11.22051 -11.22012 -11.21809 -11.21749 -11.21143
 Alpha  occ. eigenvalues --   -1.59834  -1.39387  -1.19364  -1.08961  -1.08755
 Alpha  occ. eigenvalues --   -1.04765  -1.04014  -0.96486  -0.95588  -0.87502
 Alpha  occ. eigenvalues --   -0.86165  -0.82426  -0.80104  -0.78765  -0.77449
 Alpha  occ. eigenvalues --   -0.72030  -0.71158  -0.70467  -0.65657  -0.65012
 Alpha  occ. eigenvalues --   -0.64732  -0.62130  -0.61383  -0.59870  -0.58078
 Alpha  occ. eigenvalues --   -0.55802  -0.55269  -0.53177  -0.53088  -0.52908
 Alpha  occ. eigenvalues --   -0.52869  -0.50446  -0.48801  -0.48784  -0.48387
 Alpha  occ. eigenvalues --   -0.47124  -0.46270  -0.46165  -0.44790  -0.44264
 Alpha  occ. eigenvalues --   -0.37344  -0.36337
 Alpha virt. eigenvalues --    0.05044   0.11206   0.16412   0.19636   0.22828
 Alpha virt. eigenvalues --    0.23517   0.25604   0.26137   0.26871   0.28535
 Alpha virt. eigenvalues --    0.29312   0.30296   0.31162   0.31565   0.32097

 Mulliken charges:
               1
     1  C   -0.173310
     2  C   -0.218546
     3  C   -0.170895
     4  C    0.158399
     5  C   -0.172501
     6  C   -0.224009
     7  H    0.225517
     8  H    0.223430
     9  H    0.275649
    10  H    0.277369
    11  H    0.232982
    12  N    0.488082
    13  O   -0.460096
    14  O   -0.460612
    15  C   -0.305953
    16  C   -0.299816
    17  C   -0.478085
    18  H    0.147086
    19  H    0.149826
    20  H    0.152981
    21  H    0.156241
    22  H    0.158062
    23  H    0.145215
    24  H    0.164936
    25  C   -0.297641
    26  C   -0.301673
    27  C   -0.476424
    28  H    0.149903
    29  H    0.151526
    30  H    0.153377
    31  H    0.154306
    32  H    0.155214
    33  H    0.154533
    34  H    0.164927
 Sum of Mulliken charges =  -0.00000

 Dipole moment (field-independent basis, Debye):
    X=              2.3110    Y=             -4.1927    Z=              1.9788  Tot=              5.1803
 Quadrupole moment (field-independent basis, Debye-Ang):
   XX=           -102.8839   YY=            -95.2213   ZZ=            -93.2958
   XY=             11.6394   XZ=             -8.8575   YZ=             -0.8874

 Normal termination of Gaussian 16 at Thu May  6 01:27:35 2021.
