 Gaussian 16, Revision A.03,
 Gaussian 16:  EM64L-G16RevA.03 25-Dec-2016

 -------------
 #p 6-31g* mp2
 -------------

 ------------------------------------------------------
 Input file generated by CHIRIPA (05-May-2021 14:51:08)
 ------------------------------------------------------
 Symbolic Z-matrix:
 Charge =  0 Multiplicity = 1

                         Standard orientation:
 ---------------------------------------------------------------------
 Center     Atomic      Atomic             Coordinates (Angstroms)
 Number     Number       Type             X           Y           Z
 ---------------------------------------------------------------------
      1          6           0        3.259550   -0.643800   -0.381306
      2          6           0        3.409963   -1.179576    1.042880
      3          6           0        4.201140   -2.486597    1.102299
      4          1           0        2.763369   -1.402941   -1.001350
      5          1           0        4.257360   -0.489523   -0.814859
      6          1           0        2.412175   -1.331487    1.474107
      7          1           0        3.905672   -0.418996    1.659651
      8          1           0        5.208446   -2.345923    0.697151
      9          1           0        3.706464   -3.263599    0.510553
     10          1           0        4.296608   -2.851746    2.129632
     11          6           0        2.470926    0.662363   -0.457058
     12          6           0        2.320513    1.198140   -1.881244
     13          6           0        1.529336    2.505160   -1.940664
     14          1           0        1.473116    0.508087   -0.023506
     15          1           0        2.967107    1.421504    0.162985
     16          1           0        1.824804    0.437560   -2.498016
     17          1           0        3.318301    1.350051   -2.312472
     18          1           0        2.024012    3.282162   -1.348917
     19          1           0        0.522030    2.364486   -1.535515
     20          1           0        1.433868    2.870310   -2.967996
     21          6           0       -2.849821    0.655889    0.794338
     22          6           0       -1.541227    0.897010    1.547616
     23          6           0       -1.525612    2.231807    2.293180
     24          1           0       -3.012499    1.476914    0.082720
     25          1           0       -3.686103    0.689052    1.506326
     26          1           0       -0.707533    0.862028    0.834632
     27          1           0       -1.381548    0.075218    2.257387
     28          1           0       -2.337871    2.273230    3.026065
     29          1           0       -1.660025    3.064511    1.595226
     30          1           0       -0.581014    2.383744    2.824698
     31          6           0       -2.880655   -0.674452    0.044027
     32          6           0       -4.189249   -0.915574   -0.709252
     33          6           0       -4.204864   -2.250371   -1.454816
     34          1           0       -2.044373   -0.707615   -0.667962
     35          1           0       -2.717976   -1.495477    0.755645
     36          1           0       -4.348927   -0.093782   -1.419023
     37          1           0       -5.022944   -0.880592    0.003733
     38          1           0       -4.070450   -3.083074   -0.756862
     39          1           0       -3.392604   -2.291794   -2.187701
     40          1           0       -5.149461   -2.402307   -1.986333
 ---------------------------------------------------------------------

 SCF Done:  E(RHF) =  -470.733342804     A.U. after   11 cycles
 E2 =    -0.1583186381D+01 EUMP2 =    -0.47231652918498D+03

 The electronic state is 1-A.
 Alpha  occ. eigenvalues --  -11.21636 -11.21632 -11.21625 -11.21590 -11.21449
 Alpha  occ. eigenvalues --  -11.21404 -11.21388 -11.21344 -11.21120 -11.21102
 Alpha  occ. eigenvalues --  -11.21075 -11.21063  -1.08477  -1.08433  -1.03566
 Alpha  occ. eigenvalues --   -1.03536  -0.96006  -0.95991  -0.87025  -0.87005
 Alpha  occ. eigenvalues --   -0.79658  -0.79579  -0.78357  -0.78182  -0.65211
 Alpha  occ. eigenvalues --   -0.64977  -0.61043  -0.60860  -0.59394  -0.59340
 Alpha  occ. eigenvalues --   -0.57639  -0.57580  -0.55306  -0.55270  -0.52700
 Alpha  occ. eigenvalues --   -0.52685  -0.52438  -0.52412  -0.49987  -0.49911
 Alpha  occ. eigenvalues --   -0.48043  -0.47876  -0.46856  -0.46553  -0.46073
 Alpha  occ. eigenvalues --   -0.45789  -0.45765  -0.45253  -0.43813  -0.43793
 Alpha virt. eigenvalues --    0.20199   0.23260   0.23754   0.24699   0.25475
 Alpha virt. eigenvalues --    0.26743   0.27112   0.28008   0.28056   0.29282
 Alpha virt. eigenvalues --    0.30675   0.31599   0.31634   0.31857   0.32057

 Mulliken charges:
               1
     1  C   -0.297445
     2  C   -0.299954
     3  C   -0.475728
     4  H    0.149515
     5  H    0.149504
     6  H    0.152595
     7  H    0.151812
     8  H    0.155113
     9  H    0.155236
    10  H    0.160214
    11  C   -0.308086
    12  C   -0.299145
    13  C   -0.476930
    14  H    0.158774
    15  H    0.149628
    16  H    0.151438
    17  H    0.152239
    18  H    0.155688
    19  H    0.155135
    20  H    0.160432
    21  C   -0.297587
    22  C   -0.310208
    23  C   -0.475119
    24  H    0.149617
    25  H    0.149877
    26  H    0.160755
    27  H    0.151739
    28  H    0.155174
    29  H    0.155393
    30  H    0.160857
    31  C   -0.298294
    32  C   -0.299677
    33  C   -0.475740
    34  H    0.148457
    35  H    0.149690
    36  H    0.152145
    37  H    0.152166
    38  H    0.155194
    39  H    0.155078
    40  H    0.160449
 Sum of Mulliken charges =  -0.00000

 Dipole moment (field-independent basis, Debye):
    X=             -0.0034    Y=              0.0064    Z=              0.0120  Tot=              0.0140
 Quadrupole moment (field-independent basis, Debye-Ang):
   XX=            -84.1791   YY=            -86.0342   ZZ=            -84.4762
   XY=              1.0430   XZ=             -0.4405   YZ=             -0.6700

 Normal termination of Gaussian 16 at Thu May  6 08:26:19 2021.
