 Gaussian 16, Revision A.03,
 Gaussian 16:  EM64L-G16RevA.03 25-Dec-2016

 -------------
 #p 6-31g* mp2
 -------------

 ------------------------------------------------------
 Input file generated by CHIRIPA (05-May-2021 14:51:11)
 ------------------------------------------------------
 Symbolic Z-matrix:
 Charge =  0 Multiplicity = 1

                         Standard orientation:
 ---------------------------------------------------------------------
 Center     Atomic      Atomic             Coordinates (Angstroms)
 Number     Number       Type             X           Y           Z
 ---------------------------------------------------------------------
      1          6           0       -2.050315   -0.591620    0.474759
      2          6           0       -2.191211   -1.955008    1.152481
      3          6           0       -0.849570   -2.531020    1.606356
      4          1           0       -1.379140   -0.686624   -0.389789
      5          1           0       -1.566558    0.107739    1.170654
      6          1           0       -2.675812   -2.651211    0.456006
      7          1           0       -2.862281   -1.856786    2.015402
      8          1           0       -0.363602   -1.858725    2.320818
      9          1           0       -0.176075   -2.657664    0.752561
     10          1           0       -0.973579   -3.505876    2.088162
     11          6           0       -3.382996   -0.002801    0.015431
     12          6           0       -3.242101    1.360587   -0.662291
     13          6           0       -4.583742    1.936600   -1.116167
     14          1           0       -3.866754   -0.702160   -0.680465
     15          1           0       -4.054172    0.092204    0.879979
     16          1           0       -2.571031    1.262366   -1.525213
     17          1           0       -2.757499    2.056791    0.034184
     18          1           0       -5.257237    2.063243   -0.262371
     19          1           0       -5.069710    1.264304   -1.830628
     20          1           0       -4.459733    2.911456   -1.597973
     21          6           0        2.999754   -0.406090   -0.338140
     22          6           0        2.119323   -1.303958   -1.208000
     23          6           0        2.698976   -2.707706   -1.384882
     24          1           0        3.999771   -0.337418   -0.787802
     25          1           0        3.131301   -0.876198    0.646283
     26          1           0        1.988337   -0.831632   -2.190022
     27          1           0        1.121228   -1.370344   -0.756317
     28          1           0        2.813724   -3.202157   -0.414854
     29          1           0        3.685759   -2.660384   -1.856705
     30          1           0        2.053644   -3.332696   -2.010018
     31          6           0        2.433558    1.000510   -0.152050
     32          6           0        3.313989    1.898378    0.717811
     33          6           0        2.734336    3.302126    0.894692
     34          1           0        2.302011    1.470618   -1.136472
     35          1           0        1.433541    0.931839    0.297612
     36          1           0        4.312083    1.964765    0.266127
     37          1           0        3.444974    1.426052    1.699833
     38          1           0        1.747552    3.254805    1.366516
     39          1           0        2.619588    3.796578   -0.075335
     40          1           0        3.379668    3.927116    1.519828
 ---------------------------------------------------------------------

 SCF Done:  E(RHF) =  -470.733081036     A.U. after   11 cycles
 E2 =    -0.1583816923D+01 EUMP2 =    -0.47231689795857D+03

 The electronic state is 1-A.
 Alpha  occ. eigenvalues --  -11.21655 -11.21611 -11.21571 -11.21552 -11.21450
 Alpha  occ. eigenvalues --  -11.21387 -11.21357 -11.21295 -11.21118 -11.21078
 Alpha  occ. eigenvalues --  -11.21068 -11.21052  -1.08480  -1.08386  -1.03581
 Alpha  occ. eigenvalues --   -1.03495  -0.96023  -0.95950  -0.87036  -0.86970
 Alpha  occ. eigenvalues --   -0.79675  -0.79537  -0.78372  -0.78120  -0.65175
 Alpha  occ. eigenvalues --   -0.64972  -0.61128  -0.60776  -0.59407  -0.59296
 Alpha  occ. eigenvalues --   -0.57650  -0.57542  -0.55372  -0.55177  -0.52708
 Alpha  occ. eigenvalues --   -0.52653  -0.52447  -0.52375  -0.49967  -0.49898
 Alpha  occ. eigenvalues --   -0.48105  -0.47813  -0.46863  -0.46467  -0.46137
 Alpha  occ. eigenvalues --   -0.45741  -0.45697  -0.45205  -0.43820  -0.43751
 Alpha virt. eigenvalues --    0.20567   0.23094   0.23478   0.24436   0.25726
 Alpha virt. eigenvalues --    0.26335   0.26876   0.27699   0.28344   0.29836
 Alpha virt. eigenvalues --    0.30633   0.31519   0.31664   0.31893   0.31979

 Mulliken charges:
               1
     1  C   -0.304016
     2  C   -0.299658
     3  C   -0.481693
     4  H    0.154870
     5  H    0.149438
     6  H    0.152141
     7  H    0.152192
     8  H    0.154482
     9  H    0.161411
    10  H    0.160861
    11  C   -0.298118
    12  C   -0.299753
    13  C   -0.475755
    14  H    0.149703
    15  H    0.149784
    16  H    0.152529
    17  H    0.151910
    18  H    0.155143
    19  H    0.155184
    20  H    0.160430
    21  C   -0.297536
    22  C   -0.310272
    23  C   -0.476158
    24  H    0.149426
    25  H    0.149846
    26  H    0.151440
    27  H    0.161578
    28  H    0.156031
    29  H    0.155474
    30  H    0.159533
    31  C   -0.300517
    32  C   -0.299652
    33  C   -0.475509
    34  H    0.149117
    35  H    0.152405
    36  H    0.151836
    37  H    0.151757
    38  H    0.154824
    39  H    0.155213
    40  H    0.160079
 Sum of Mulliken charges =  -0.00000

 Dipole moment (field-independent basis, Debye):
    X=             -0.0285    Y=             -0.0100    Z=             -0.0001  Tot=              0.0302
 Quadrupole moment (field-independent basis, Debye-Ang):
   XX=            -85.4175   YY=            -85.8907   ZZ=            -83.4954
   XY=              0.8936   XZ=             -0.7625   YZ=              0.1133

 Normal termination of Gaussian 16 at Thu May  6 05:26:24 2021.
