 Gaussian 16, Revision A.03,
 Gaussian 16:  EM64L-G16RevA.03 25-Dec-2016

 -------------
 #p 6-31g* mp2
 -------------

 ------------------------------------------------------
 Input file generated by CHIRIPA (05-May-2021 14:55:25)
 ------------------------------------------------------
 Symbolic Z-matrix:
 Charge =  0 Multiplicity = 1

                         Standard orientation:
 ---------------------------------------------------------------------
 Center     Atomic      Atomic             Coordinates (Angstroms)
 Number     Number       Type             X           Y           Z
 ---------------------------------------------------------------------
      1          6           0        2.056069    2.097219    0.957629
      2          6           0        1.552413    1.025767    1.702507
      3          6           0        1.784086   -0.291966    1.296976
      4          6           0        2.526824   -0.502799    0.136295
      5          6           0        3.041925    0.543623   -0.627225
      6          6           0        2.797910    1.853157   -0.202814
      7          1           0        1.871306    3.117681    1.279988
      8          1           0        0.975955    1.212319    2.604138
      9          1           0        1.405905   -1.140058    1.854771
     10          1           0        3.613037    0.326150   -1.521627
     11          1           0        3.190286    2.683309   -0.783274
     12          7           0        2.778619   -1.893484   -0.303016
     13          8           0        3.435953   -2.052626   -1.329282
     14          8           0        2.313874   -2.798028    0.387237
     15          6           0       -2.870363    1.031277   -0.115672
     16          6           0       -1.704940    1.384992   -1.040151
     17          6           0       -1.093531    2.750445   -0.724696
     18          1           0       -3.643003    1.808091   -0.196500
     19          1           0       -2.520476    1.045605    0.925850
     20          1           0       -2.056586    1.368649   -2.079716
     21          1           0       -0.935068    0.607149   -0.957258
     22          1           0       -0.715941    2.775405    0.302633
     23          1           0       -1.843832    3.541233   -0.826204
     24          1           0       -0.262201    2.983169   -1.397444
     25          6           0       -3.492070   -0.330869   -0.418597
     26          6           0       -4.657492   -0.684584    0.505882
     27          6           0       -5.268902   -2.050036    0.190427
     28          1           0       -3.841956   -0.345196   -1.460119
     29          1           0       -2.719429   -1.107682   -0.337769
     30          1           0       -5.427365    0.093260    0.422989
     31          1           0       -4.305846   -0.668241    1.545447
     32          1           0       -4.518600   -2.840824    0.291935
     33          1           0       -5.646491   -2.074997   -0.836902
     34          1           0       -6.100231   -2.282760    0.863175
 ---------------------------------------------------------------------

 SCF Done:  E(RHF) =  -669.534932858     A.U. after   15 cycles
 E2 =    -0.2093129524D+01 EUMP2 =    -0.67162806238192D+03

 The electronic state is 1-A.
 Alpha  occ. eigenvalues --  -20.60817 -20.60811 -15.85874 -11.31249 -11.27856
 Alpha  occ. eigenvalues --  -11.27840 -11.27570 -11.26839 -11.26813 -11.21832
 Alpha  occ. eigenvalues --  -11.21718 -11.21644 -11.21489 -11.21470 -11.21092
 Alpha  occ. eigenvalues --   -1.59894  -1.39447  -1.19440  -1.08836  -1.08612
 Alpha  occ. eigenvalues --   -1.04844  -1.03721  -0.96198  -0.95651  -0.87211
 Alpha  occ. eigenvalues --   -0.86241  -0.82489  -0.79792  -0.78425  -0.77532
 Alpha  occ. eigenvalues --   -0.72091  -0.71220  -0.70549  -0.65262  -0.65090
 Alpha  occ. eigenvalues --   -0.64840  -0.62191  -0.61147  -0.59565  -0.57792
 Alpha  occ. eigenvalues --   -0.55614  -0.55296  -0.53176  -0.52933  -0.52786
 Alpha  occ. eigenvalues --   -0.52606  -0.50125  -0.48850  -0.48844  -0.48107
 Alpha  occ. eigenvalues --   -0.46829  -0.45969  -0.45889  -0.44851  -0.43989
 Alpha  occ. eigenvalues --   -0.37312  -0.36439
 Alpha virt. eigenvalues --    0.05003   0.11087   0.16458   0.20823   0.22761
 Alpha virt. eigenvalues --    0.24170   0.26134   0.26908   0.27082   0.27737
 Alpha virt. eigenvalues --    0.28724   0.30540   0.31352   0.31388   0.31902

 Mulliken charges:
               1
     1  C   -0.165215
     2  C   -0.219307
     3  C   -0.171519
     4  C    0.157870
     5  C   -0.170871
     6  C   -0.219037
     7  H    0.226979
     8  H    0.223603
     9  H    0.275758
    10  H    0.276032
    11  H    0.223818
    12  N    0.488114
    13  O   -0.460161
    14  O   -0.460642
    15  C   -0.297406
    16  C   -0.300625
    17  C   -0.472783
    18  H    0.149396
    19  H    0.144329
    20  H    0.153385
    21  H    0.156212
    22  H    0.147858
    23  H    0.153512
    24  H    0.157070
    25  C   -0.299351
    26  C   -0.299405
    27  C   -0.476177
    28  H    0.150925
    29  H    0.152635
    30  H    0.151397
    31  H    0.149933
    32  H    0.157627
    33  H    0.155890
    34  H    0.160154
 Sum of Mulliken charges =  -0.00000

 Dipole moment (field-independent basis, Debye):
    X=             -0.8395    Y=              4.8432    Z=              1.5154  Tot=              5.1437
 Quadrupole moment (field-independent basis, Debye-Ang):
   XX=            -98.3138   YY=           -100.6025   ZZ=            -91.1319
   XY=             13.5051   XZ=              1.9722   YZ=             -1.9783

 Normal termination of Gaussian 16 at Wed May  5 17:41:50 2021.
