 Gaussian 16, Revision A.03,
 Gaussian 16:  EM64L-G16RevA.03 25-Dec-2016

 -------------
 #p 6-31g* mp2
 -------------

 ------------------------------------------------------
 Input file generated by CHIRIPA (05-May-2021 14:55:24)
 ------------------------------------------------------
 Symbolic Z-matrix:
 Charge =  0 Multiplicity = 1

                         Standard orientation:
 ---------------------------------------------------------------------
 Center     Atomic      Atomic             Coordinates (Angstroms)
 Number     Number       Type             X           Y           Z
 ---------------------------------------------------------------------
      1          6           0       -1.609183    1.582049    1.809483
      2          6           0       -1.501075    0.231785    2.158225
      3          6           0       -2.020811   -0.761184    1.322500
      4          6           0       -2.645133   -0.366476    0.140249
      5          6           0       -2.768515    0.970453   -0.234834
      6          6           0       -2.241443    1.946431    0.616171
      7          1           0       -1.202590    2.346812    2.464629
      8          1           0       -1.010573   -0.054127    3.084349
      9          1           0       -1.950946   -1.813901    1.568110
     10          1           0       -3.262943    1.224605   -1.164546
     11          1           0       -2.326850    2.994290    0.342779
     12          7           0       -3.199237   -1.408695   -0.752583
     13          8           0       -3.744646   -1.034904   -1.788656
     14          8           0       -3.077643   -2.579642   -0.399407
     15          6           0        2.578388    0.464897   -0.613111
     16          6           0        2.440566    1.978239   -0.782768
     17          6           0        1.053642    2.394152   -1.273943
     18          1           0        2.365087   -0.026146   -1.572446
     19          1           0        1.816308    0.111444    0.095196
     20          1           0        3.203573    2.328931   -1.489488
     21          1           0        2.654408    2.465748    0.177035
     22          1           0        0.282069    2.072159   -0.567122
     23          1           0        0.834354    1.934565   -2.243115
     24          1           0        0.977159    3.479941   -1.388287
     25          6           0        3.959365    0.033551   -0.122629
     26          6           0        4.097187   -1.479791    0.047028
     27          6           0        5.484111   -1.895704    0.538202
     28          1           0        4.721446    0.387004   -0.830936
     29          1           0        4.172667    0.524594    0.836706
     30          1           0        3.883346   -1.967300   -0.912775
     31          1           0        3.334181   -1.830483    0.753748
     32          1           0        5.703399   -1.436117    1.507374
     33          1           0        6.255684   -1.573711   -0.168618
     34          1           0        5.560595   -2.981492    0.652547
 ---------------------------------------------------------------------

 SCF Done:  E(RHF) =  -669.534997697     A.U. after   15 cycles
 E2 =    -0.2092776783D+01 EUMP2 =    -0.67162777448085D+03

 The electronic state is 1-A.
 Alpha  occ. eigenvalues --  -20.60819 -20.60814 -15.85874 -11.31279 -11.27858
 Alpha  occ. eigenvalues --  -11.27830 -11.27598 -11.26897 -11.26845 -11.21846
 Alpha  occ. eigenvalues --  -11.21750 -11.21585 -11.21522 -11.21210 -11.21205
 Alpha  occ. eigenvalues --   -1.59893  -1.39445  -1.19467  -1.08857  -1.08613
 Alpha  occ. eigenvalues --   -1.04874  -1.03714  -0.96165  -0.95675  -0.87191
 Alpha  occ. eigenvalues --   -0.86260  -0.82503  -0.79785  -0.78423  -0.77541
 Alpha  occ. eigenvalues --   -0.72092  -0.71215  -0.70558  -0.65260  -0.65112
 Alpha  occ. eigenvalues --   -0.64863  -0.62208  -0.61135  -0.59538  -0.57788
 Alpha  occ. eigenvalues --   -0.55521  -0.55362  -0.53343  -0.52963  -0.52853
 Alpha  occ. eigenvalues --   -0.52466  -0.50079  -0.48854  -0.48844  -0.48080
 Alpha  occ. eigenvalues --   -0.46809  -0.45958  -0.45885  -0.44842  -0.43977
 Alpha  occ. eigenvalues --   -0.37409  -0.36409
 Alpha virt. eigenvalues --    0.04983   0.11141   0.16443   0.21231   0.22691
 Alpha virt. eigenvalues --    0.24156   0.26443   0.26981   0.27290   0.28119
 Alpha virt. eigenvalues --    0.28299   0.30746   0.31314   0.31771   0.31835

 Mulliken charges:
               1
     1  C   -0.171248
     2  C   -0.218366
     3  C   -0.171029
     4  C    0.159367
     5  C   -0.168518
     6  C   -0.220428
     7  H    0.226653
     8  H    0.223996
     9  H    0.276147
    10  H    0.276524
    11  H    0.225851
    12  N    0.488086
    13  O   -0.459962
    14  O   -0.460147
    15  C   -0.299229
    16  C   -0.297865
    17  C   -0.486672
    18  H    0.152660
    19  H    0.148727
    20  H    0.152721
    21  H    0.147209
    22  H    0.163919
    23  H    0.157398
    24  H    0.154654
    25  C   -0.298244
    26  C   -0.299406
    27  C   -0.475786
    28  H    0.150363
    29  H    0.147059
    30  H    0.154573
    31  H    0.150093
    32  H    0.153759
    33  H    0.155854
    34  H    0.161286
 Sum of Mulliken charges =  -0.00000

 Dipole moment (field-independent basis, Debye):
    X=              1.8455    Y=              3.6027    Z=              3.1445  Tot=              5.1257
 Quadrupole moment (field-independent basis, Debye-Ang):
   XX=           -106.1440   YY=            -95.6936   ZZ=            -91.4010
   XY=            -11.6747   XZ=             -7.7245   YZ=             -2.8139

 Normal termination of Gaussian 16 at Thu May  6 20:53:04 2021.
