 Gaussian 16, Revision A.03,
 Gaussian 16:  EM64L-G16RevA.03 25-Dec-2016

 -------------
 #p 6-31g* mp2
 -------------

 ------------------------------------------------------
 Input file generated by CHIRIPA (05-May-2021 14:53:13)
 ------------------------------------------------------
 Symbolic Z-matrix:
 Charge =  0 Multiplicity = 1

                         Standard orientation:
 ---------------------------------------------------------------------
 Center     Atomic      Atomic             Coordinates (Angstroms)
 Number     Number       Type             X           Y           Z
 ---------------------------------------------------------------------
      1          6           0       -2.832075   -0.988625    0.079274
      2          6           0       -1.901025   -1.526635   -1.007775
      3          6           0       -0.805637   -2.436425   -0.450819
      4          1           0       -2.238578   -0.438021    0.821932
      5          1           0       -3.291127   -1.833920    0.610445
      6          1           0       -1.444926   -0.680570   -1.537648
      7          1           0       -2.496833   -2.075859   -1.748033
      8          1           0       -1.244551   -3.299019    0.060930
      9          1           0       -0.186668   -1.895802    0.272510
     10          1           0       -0.151569   -2.809783   -1.244960
     11          6           0       -3.932382   -0.077501   -0.461933
     12          6           0       -4.863432    0.460509    0.625117
     13          6           0       -5.958821    1.370299    0.068161
     14          1           0       -3.473330    0.767794   -0.993104
     15          1           0       -4.525880   -0.628105   -1.204590
     16          1           0       -4.267625    1.009733    1.365374
     17          1           0       -5.319531   -0.385556    1.154990
     18          1           0       -6.577789    0.829676   -0.655168
     19          1           0       -5.519906    2.232893   -0.443588
     20          1           0       -6.612888    1.743657    0.862302
     21          6           0        3.178701   -2.024424    0.496427
     22          6           0        3.741432   -1.330151   -0.579602
     23          6           0        3.451308    0.022474   -0.781551
     24          6           0        2.590515    0.652430    0.115933
     25          6           0        2.014144   -0.012022    1.197409
     26          6           0        2.318369   -1.364307    1.379941
     27          1           0        3.409553   -3.075044    0.645764
     28          1           0        4.409911   -1.840241   -1.267343
     29          1           0        3.873094    0.584018   -1.606283
     30          1           0        1.351300    0.523490    1.866203
     31          1           0        1.879892   -1.900967    2.216469
     32          7           0        2.275909    2.084214   -0.087583
     33          8           0        1.514570    2.616389    0.717270
     34          8           0        2.796619    2.647161   -1.048098
 ---------------------------------------------------------------------

 SCF Done:  E(RHF) =  -669.534718911     A.U. after   15 cycles
 E2 =    -0.2092681774D+01 EUMP2 =    -0.67162740068527D+03

 The electronic state is 1-A.
 Alpha  occ. eigenvalues --  -20.60837 -20.60831 -15.85890 -11.31266 -11.27820
 Alpha  occ. eigenvalues --  -11.27815 -11.27543 -11.26842 -11.26821 -11.21632
 Alpha  occ. eigenvalues --  -11.21474 -11.21409 -11.21263 -11.21149 -11.20901
 Alpha  occ. eigenvalues --   -1.59912  -1.39466  -1.19437  -1.08824  -1.08388
 Alpha  occ. eigenvalues --   -1.04851  -1.03493  -0.95955  -0.95657  -0.86983
 Alpha  occ. eigenvalues --   -0.86231  -0.82495  -0.79569  -0.78203  -0.77541
 Alpha  occ. eigenvalues --   -0.72108  -0.71236  -0.70527  -0.65089  -0.65016
 Alpha  occ. eigenvalues --   -0.64840  -0.62190  -0.60908  -0.59328  -0.57575
 Alpha  occ. eigenvalues --   -0.55354  -0.55319  -0.53247  -0.52931  -0.52612
 Alpha  occ. eigenvalues --   -0.52315  -0.49853  -0.48867  -0.48863  -0.47887
 Alpha  occ. eigenvalues --   -0.46591  -0.45751  -0.45656  -0.44868  -0.43754
 Alpha  occ. eigenvalues --   -0.37383  -0.36351
 Alpha virt. eigenvalues --    0.04968   0.11167   0.16406   0.21157   0.22932
 Alpha virt. eigenvalues --    0.24346   0.26346   0.27110   0.27604   0.28300
 Alpha virt. eigenvalues --    0.28450   0.30862   0.31538   0.31932   0.32153

 Mulliken charges:
               1
     1  C   -0.297770
     2  C   -0.299269
     3  C   -0.480841
     4  H    0.148009
     5  H    0.147504
     6  H    0.154783
     7  H    0.151503
     8  H    0.150578
     9  H    0.158771
    10  H    0.157686
    11  C   -0.298863
    12  C   -0.299937
    13  C   -0.476007
    14  H    0.153687
    15  H    0.148962
    16  H    0.153578
    17  H    0.150058
    18  H    0.154291
    19  H    0.157663
    20  H    0.160078
    21  C   -0.168022
    22  C   -0.218473
    23  C   -0.171000
    24  C    0.159979
    25  C   -0.172353
    26  C   -0.218809
    27  H    0.226396
    28  H    0.223835
    29  H    0.275820
    30  H    0.275740
    31  H    0.225196
    32  N    0.487972
    33  O   -0.460681
    34  O   -0.460064
 Sum of Mulliken charges =  -0.00000

 Dipole moment (field-independent basis, Debye):
    X=              1.2006    Y=             -4.9769    Z=              0.7070  Tot=              5.1683
 Quadrupole moment (field-independent basis, Debye-Ang):
   XX=            -88.0004   YY=           -102.0448   ZZ=            -91.6410
   XY=            -11.8196   XZ=             -0.8276   YZ=             -0.0165

 Normal termination of Gaussian 16 at Wed May  5 20:10:49 2021.
