 Gaussian 16, Revision A.03,
 Gaussian 16:  EM64L-G16RevA.03 25-Dec-2016

 -------------
 #p 6-31g* mp2
 -------------

 ------------------------------------------------------
 Input file generated by CHIRIPA (05-May-2021 14:55:25)
 ------------------------------------------------------
 Symbolic Z-matrix:
 Charge =  0 Multiplicity = 1

                         Standard orientation:
 ---------------------------------------------------------------------
 Center     Atomic      Atomic             Coordinates (Angstroms)
 Number     Number       Type             X           Y           Z
 ---------------------------------------------------------------------
      1          6           0        2.804164    2.479609    0.175453
      2          6           0        3.127993    1.870763   -1.041495
      3          6           0        3.269298    0.482403   -1.125373
      4          6           0        3.078854   -0.270014    0.032595
      5          6           0        2.755582    0.307167    1.259643
      6          6           0        2.619318    1.697247    1.320120
      7          1           0        2.696353    3.558789    0.231522
      8          1           0        3.272128    2.475852   -1.932078
      9          1           0        3.519438   -0.014911   -2.054635
     10          1           0        2.618019   -0.322397    2.130358
     11          1           0        2.367769    2.167363    2.266566
     12          7           0        3.225780   -1.740719   -0.043816
     13          8           0        3.052834   -2.381325    0.990761
     14          8           0        3.511104   -2.225003   -1.136837
     15          6           0       -3.286043    0.357537   -0.358486
     16          6           0       -1.990286   -0.070353    0.331375
     17          6           0       -0.750893    0.582568   -0.281320
     18          1           0       -3.226435    0.104679   -1.425937
     19          1           0       -3.380099    1.450811   -0.301020
     20          1           0       -1.899387   -1.162618    0.273836
     21          1           0       -2.053061    0.183379    1.397346
     22          1           0       -0.815088    1.673182   -0.210319
     23          1           0       -0.660541    0.319537   -1.340212
     24          1           0        0.164117    0.262772    0.226960
     25          6           0       -4.533834   -0.286821    0.242802
     26          6           0       -5.829592    0.141070   -0.447058
     27          6           0       -7.068984   -0.511852    0.165637
     28          1           0       -4.439778   -1.380094    0.185337
     29          1           0       -4.593442   -0.033963    1.310255
     30          1           0       -5.766815   -0.112663   -1.513029
     31          1           0       -5.920489    1.233335   -0.389520
     32          1           0       -7.159336   -0.248820    1.224528
     33          1           0       -7.004789   -1.602465    0.094635
     34          1           0       -7.983994   -0.192056   -0.342643
 ---------------------------------------------------------------------

 SCF Done:  E(RHF) =  -669.534389016     A.U. after   15 cycles
 E2 =    -0.2093161385D+01 EUMP2 =    -0.67162755040100D+03

 The electronic state is 1-A.
 Alpha  occ. eigenvalues --  -20.60791 -20.60786 -15.85844 -11.31205 -11.27792
 Alpha  occ. eigenvalues --  -11.27759 -11.27537 -11.26826 -11.26796 -11.21604
 Alpha  occ. eigenvalues --  -11.21550 -11.21394 -11.21333 -11.21062 -11.20940
 Alpha  occ. eigenvalues --   -1.59868  -1.39420  -1.19410  -1.08790  -1.08414
 Alpha  occ. eigenvalues --   -1.04812  -1.03505  -0.95961  -0.95622  -0.86978
 Alpha  occ. eigenvalues --   -0.86202  -0.82455  -0.79574  -0.78230  -0.77501
 Alpha  occ. eigenvalues --   -0.72064  -0.71197  -0.70505  -0.65052  -0.65047
 Alpha  occ. eigenvalues --   -0.64805  -0.62151  -0.60907  -0.59411  -0.57615
 Alpha  occ. eigenvalues --   -0.55303  -0.55251  -0.53737  -0.52894  -0.52407
 Alpha  occ. eigenvalues --   -0.51944  -0.49907  -0.48824  -0.48818  -0.47891
 Alpha  occ. eigenvalues --   -0.46613  -0.45773  -0.45700  -0.44824  -0.43725
 Alpha  occ. eigenvalues --   -0.37355  -0.36357
 Alpha virt. eigenvalues --    0.05017   0.11198   0.16502   0.21386   0.22876
 Alpha virt. eigenvalues --    0.24346   0.26653   0.27279   0.27508   0.27992
 Alpha virt. eigenvalues --    0.28284   0.30900   0.31399   0.31915   0.32108

 Mulliken charges:
               1
     1  C   -0.169996
     2  C   -0.216034
     3  C   -0.170858
     4  C    0.164138
     5  C   -0.181735
     6  C   -0.212046
     7  H    0.225759
     8  H    0.223845
     9  H    0.275754
    10  H    0.275693
    11  H    0.223752
    12  N    0.487960
    13  O   -0.460650
    14  O   -0.460481
    15  C   -0.298121
    16  C   -0.299563
    17  C   -0.479808
    18  H    0.150083
    19  H    0.146838
    20  H    0.155925
    21  H    0.148610
    22  H    0.148469
    23  H    0.154132
    24  H    0.167939
    25  C   -0.298297
    26  C   -0.299531
    27  C   -0.475707
    28  H    0.151363
    29  H    0.148778
    30  H    0.152207
    31  H    0.150674
    32  H    0.154804
    33  H    0.156117
    34  H    0.159987
 Sum of Mulliken charges =  -0.00000

 Dipole moment (field-independent basis, Debye):
    X=             -0.4080    Y=              5.1808    Z=              0.2538  Tot=              5.2031
 Quadrupole moment (field-independent basis, Debye-Ang):
   XX=            -99.6032   YY=            -97.6709   ZZ=            -89.6949
   XY=             16.1798   XZ=             -0.1496   YZ=              0.3609

 Normal termination of Gaussian 16 at Wed May  5 16:08:55 2021.
