 Gaussian 16, Revision A.03,
 Gaussian 16:  EM64L-G16RevA.03 25-Dec-2016

 -------------
 #p 6-31g* mp2
 -------------

 ------------------------------------------------------
 Input file generated by CHIRIPA (05-May-2021 14:51:09)
 ------------------------------------------------------
 Symbolic Z-matrix:
 Charge =  0 Multiplicity = 1

                         Standard orientation:
 ---------------------------------------------------------------------
 Center     Atomic      Atomic             Coordinates (Angstroms)
 Number     Number       Type             X           Y           Z
 ---------------------------------------------------------------------
      1          6           0        2.620627    0.004089   -0.092043
      2          6           0        3.824509    0.488992    0.716365
      3          6           0        4.006438    2.005821    0.653727
      4          1           0        2.739180    0.317706   -1.138244
      5          1           0        1.713485    0.498862    0.281705
      6          1           0        4.728918   -0.007592    0.342113
      7          1           0        3.703169    0.174019    1.760724
      8          1           0        3.121147    2.516534    1.046197
      9          1           0        4.152724    2.333891   -0.380474
     10          1           0        4.872668    2.330755    1.238470
     11          6           0        2.425610   -1.510145   -0.039201
     12          6           0        1.221728   -1.995047   -0.847610
     13          6           0        1.039799   -3.511877   -0.784972
     14          1           0        3.332752   -2.004918   -0.412950
     15          1           0        2.307057   -1.823761    1.006999
     16          1           0        1.343068   -1.680074   -1.891968
     17          1           0        0.317319   -1.498463   -0.473358
     18          1           0        0.893513   -3.839947    0.249229
     19          1           0        1.925090   -4.022589   -1.177442
     20          1           0        0.173569   -3.836810   -1.369715
     21          6           0       -2.510862    1.378198   -0.373063
     22          6           0       -1.404247    2.363077    0.005620
     23          6           0       -1.392612    3.608687   -0.881012
     24          1           0       -2.385112    1.081294   -1.423291
     25          1           0       -3.482910    1.886166   -0.306088
     26          1           0       -0.434686    1.853010   -0.060712
     27          1           0       -1.532533    2.657523    1.055124
     28          1           0       -2.345551    4.142663   -0.807678
     29          1           0       -1.241466    3.333581   -1.929854
     30          1           0       -0.593785    4.299127   -0.592866
     31          6           0       -2.535375    0.127858    0.504307
     32          6           0       -3.641991   -0.857022    0.125625
     33          6           0       -3.653624   -2.102631    1.012256
     34          1           0       -1.563327   -0.380111    0.437333
     35          1           0       -2.661125    0.424761    1.554537
     36          1           0       -3.513703   -1.151467   -0.923880
     37          1           0       -4.611551   -0.346955    0.191957
     38          1           0       -3.804771   -1.827525    2.061099
     39          1           0       -2.700686   -2.636608    0.938922
     40          1           0       -4.452452   -2.793072    0.724110
 ---------------------------------------------------------------------

 SCF Done:  E(RHF) =  -470.733199968     A.U. after   11 cycles
 E2 =    -0.1584132153D+01 EUMP2 =    -0.47231733212039D+03

 The electronic state is 1-A.
 Alpha  occ. eigenvalues --  -11.21664 -11.21630 -11.21614 -11.21597 -11.21453
 Alpha  occ. eigenvalues --  -11.21415 -11.21394 -11.21355 -11.21133 -11.21085
 Alpha  occ. eigenvalues --  -11.21081 -11.21061  -1.08496  -1.08430  -1.03581
 Alpha  occ. eigenvalues --   -1.03530  -0.96023  -0.95983  -0.87047  -0.86992
 Alpha  occ. eigenvalues --   -0.79675  -0.79572  -0.78414  -0.78156  -0.65301
 Alpha  occ. eigenvalues --   -0.64903  -0.61075  -0.60846  -0.59406  -0.59336
 Alpha  occ. eigenvalues --   -0.57642  -0.57587  -0.55322  -0.55265  -0.52718
 Alpha  occ. eigenvalues --   -0.52674  -0.52480  -0.52383  -0.50066  -0.49838
 Alpha  occ. eigenvalues --   -0.48049  -0.47852  -0.46831  -0.46622  -0.46253
 Alpha  occ. eigenvalues --   -0.45803  -0.45770  -0.45070  -0.43828  -0.43788
 Alpha virt. eigenvalues --    0.19769   0.22535   0.23552   0.24694   0.25298
 Alpha virt. eigenvalues --    0.26888   0.27001   0.27319   0.28397   0.29465
 Alpha virt. eigenvalues --    0.31298   0.31613   0.31664   0.31847   0.32022

 Mulliken charges:
               1
     1  C   -0.306201
     2  C   -0.299237
     3  C   -0.476020
     4  H    0.149570
     5  H    0.156486
     6  H    0.152119
     7  H    0.152138
     8  H    0.155523
     9  H    0.155198
    10  H    0.160393
    11  C   -0.297199
    12  C   -0.309567
    13  C   -0.475541
    14  H    0.149937
    15  H    0.149811
    16  H    0.152072
    17  H    0.159624
    18  H    0.155342
    19  H    0.155734
    20  H    0.160313
    21  C   -0.297325
    22  C   -0.307484
    23  C   -0.475215
    24  H    0.149972
    25  H    0.149676
    26  H    0.158660
    27  H    0.151467
    28  H    0.155093
    29  H    0.155382
    30  H    0.160358
    31  C   -0.307619
    32  C   -0.299179
    33  C   -0.476331
    34  H    0.157092
    35  H    0.149696
    36  H    0.152096
    37  H    0.152142
    38  H    0.155077
    39  H    0.155529
    40  H    0.160419
 Sum of Mulliken charges =  -0.00000

 Dipole moment (field-independent basis, Debye):
    X=              0.0175    Y=             -0.0052    Z=             -0.0041  Tot=              0.0187
 Quadrupole moment (field-independent basis, Debye-Ang):
   XX=            -84.0696   YY=            -86.6329   ZZ=            -83.9729
   XY=             -0.7774   XZ=             -0.8264   YZ=              0.8633

 Normal termination of Gaussian 16 at Wed May  5 18:10:36 2021.
