 Gaussian 16, Revision A.03,
 Gaussian 16:  EM64L-G16RevA.03 25-Dec-2016

 -------------
 #p 6-31g* mp2
 -------------

 ------------------------------------------------------
 Input file generated by CHIRIPA (05-May-2021 14:53:14)
 ------------------------------------------------------
 Symbolic Z-matrix:
 Charge =  0 Multiplicity = 1

                         Standard orientation:
 ---------------------------------------------------------------------
 Center     Atomic      Atomic             Coordinates (Angstroms)
 Number     Number       Type             X           Y           Z
 ---------------------------------------------------------------------
      1          6           0       -2.914395   -0.315081    0.151204
      2          6           0       -3.887895   -1.493802    0.181222
      3          6           0       -3.206631   -2.814103    0.542441
      4          1           0       -2.114712   -0.526527   -0.571806
      5          1           0       -2.431079   -0.222593    1.133673
      6          1           0       -4.370252   -1.583183   -0.800592
      7          1           0       -4.685458   -1.279442    0.904104
      8          1           0       -2.740265   -2.749179    1.530817
      9          1           0       -2.423268   -3.054646   -0.183564
     10          1           0       -3.920848   -3.643264    0.558117
     11          6           0       -3.580561    1.011809   -0.208397
     12          6           0       -2.607061    2.190530   -0.238416
     13          6           0       -3.288325    3.510831   -0.599634
     14          1           0       -4.063877    0.919322   -1.190867
     15          1           0       -4.380244    1.223255    0.514612
     16          1           0       -1.809498    1.976171   -0.961298
     17          1           0       -2.124703    2.279911    0.743398
     18          1           0       -4.071688    3.751374    0.126370
     19          1           0       -3.754691    3.445908   -1.588011
     20          1           0       -2.574108    4.339992   -0.615311
     21          6           0        4.299091    1.494504    0.396755
     22          6           0        3.165261    1.452261    1.214781
     23          6           0        2.182573    0.477817    1.016460
     24          6           0        2.366749   -0.442954   -0.013855
     25          6           0        3.485320   -0.426856   -0.845618
     26          6           0        4.455226    0.556464   -0.629026
     27          1           0        5.057502    2.254922    0.557912
     28          1           0        3.041358    2.179476    2.012184
     29          1           0        1.295014    0.422182    1.634976
     30          1           0        3.580946   -1.165249   -1.632414
     31          1           0        5.334747    0.586868   -1.265864
     32          7           0        1.333187   -1.479253   -0.233481
     33          8           0        1.518989   -2.279081   -1.148023
     34          8           0        0.356849   -1.472051    0.513078
 ---------------------------------------------------------------------

 SCF Done:  E(RHF) =  -669.535761126     A.U. after   15 cycles
 E2 =    -0.2092086197D+01 EUMP2 =    -0.67162784732302D+03

 The electronic state is 1-A.
 Alpha  occ. eigenvalues --  -20.60966 -20.60925 -15.85962 -11.31284 -11.27848
 Alpha  occ. eigenvalues --  -11.27843 -11.27584 -11.26853 -11.26843 -11.21153
 Alpha  occ. eigenvalues --  -11.20758 -11.20583 -11.20382 -11.20051 -11.19485
 Alpha  occ. eigenvalues --   -1.60007  -1.39562  -1.19452  -1.08859  -1.07495
 Alpha  occ. eigenvalues --   -1.04847  -1.02603  -0.95702  -0.95023  -0.86248
 Alpha  occ. eigenvalues --   -0.86036  -0.82540  -0.78749  -0.77628  -0.77151
 Alpha  occ. eigenvalues --   -0.72175  -0.71318  -0.70561  -0.65107  -0.64852
 Alpha  occ. eigenvalues --   -0.64146  -0.62195  -0.60016  -0.58477  -0.56614
 Alpha  occ. eigenvalues --   -0.55353  -0.54304  -0.53181  -0.52939  -0.51789
 Alpha  occ. eigenvalues --   -0.51415  -0.48983  -0.48963  -0.48942  -0.47008
 Alpha  occ. eigenvalues --   -0.45808  -0.45293  -0.44669  -0.44290  -0.42838
 Alpha  occ. eigenvalues --   -0.37430  -0.36447
 Alpha virt. eigenvalues --    0.04921   0.11204   0.16407   0.21230   0.23566
 Alpha virt. eigenvalues --    0.25283   0.26571   0.27564   0.27849   0.28900
 Alpha virt. eigenvalues --    0.28974   0.31086   0.32306   0.32323   0.32658

 Mulliken charges:
               1
     1  C   -0.294557
     2  C   -0.300735
     3  C   -0.473444
     4  H    0.160535
     5  H    0.149364
     6  H    0.147186
     7  H    0.144894
     8  H    0.155980
     9  H    0.170480
    10  H    0.150646
    11  C   -0.298405
    12  C   -0.297091
    13  C   -0.474733
    14  H    0.147350
    15  H    0.145854
    16  H    0.150402
    17  H    0.146073
    18  H    0.154396
    19  H    0.155376
    20  H    0.155863
    21  C   -0.170567
    22  C   -0.218511
    23  C   -0.170185
    24  C    0.157823
    25  C   -0.170844
    26  C   -0.218601
    27  H    0.225978
    28  H    0.223866
    29  H    0.275907
    30  H    0.275708
    31  H    0.223745
    32  N    0.488921
    33  O   -0.460226
    34  O   -0.458449
 Sum of Mulliken charges =  -0.00000

 Dipole moment (field-independent basis, Debye):
    X=              3.9444    Y=              3.4924    Z=              0.7567  Tot=              5.3224
 Quadrupole moment (field-independent basis, Debye-Ang):
   XX=            -77.8931   YY=            -99.4460   ZZ=            -91.3635
   XY=              6.5783   XZ=             -0.7027   YZ=              1.8424

 Normal termination of Gaussian 16 at Thu May  6 20:21:37 2021.
