 Gaussian 16, Revision A.03,
 Gaussian 16:  EM64L-G16RevA.03 25-Dec-2016

 -------------
 #p 6-31g* mp2
 -------------

 ------------------------------------------------------
 Input file generated by CHIRIPA (05-May-2021 14:57:24)
 ------------------------------------------------------
 Symbolic Z-matrix:
 Charge =  0 Multiplicity = 1

                         Standard orientation:
 ---------------------------------------------------------------------
 Center     Atomic      Atomic             Coordinates (Angstroms)
 Number     Number       Type             X           Y           Z
 ---------------------------------------------------------------------
      1          6           0        1.837770    2.233291   -0.323415
      2          6           0        1.925570    1.185438   -1.245812
      3          6           0        2.829571    0.137805   -1.046325
      4          6           0        3.634211    0.170071    0.091569
      5          6           0        3.570170    1.200020    1.028796
      6          6           0        2.658902    2.237231    0.808948
      7          1           0        1.132697    3.043069   -0.486289
      8          1           0        1.289114    1.179757   -2.126116
      9          1           0        2.918224   -0.685808   -1.744337
     10          1           0        4.217753    1.178063    1.896881
     11          1           0        2.592883    3.049708    1.526979
     12          7           0        4.595083   -0.933494    0.313534
     13          8           0        5.292884   -0.881749    1.323996
     14          8           0        4.632219   -1.829318   -0.527154
     15          6           0       -5.622175    0.710755    0.738647
     16          6           0       -5.242390   -0.545492    1.222513
     17          6           0       -4.055279   -1.143850    0.789749
     18          6           0       -3.268349   -0.454690   -0.131713
     19          6           0       -3.619626    0.798027   -0.632305
     20          6           0       -4.811011    1.377330   -0.185588
     21          1           0       -6.546012    1.168172    1.080247
     22          1           0       -5.870385   -1.065479    1.940343
     23          1           0       -3.737338   -2.115436    1.148011
     24          1           0       -2.972896    1.291978   -1.347269
     25          1           0       -5.103450    2.353049   -0.563076
     26          7           0       -2.009344   -1.078058   -0.597246
     27          8           0       -1.333544   -0.450311   -1.409566
     28          8           0       -1.722178   -2.182598   -0.140997
 ---------------------------------------------------------------------

 SCF Done:  E(RHF) =  -868.338553881     A.U. after   15 cycles
 E2 =    -0.2599191824D+01 EUMP2 =    -0.87093774570522D+03

 The electronic state is 1-A.
 Alpha  occ. eigenvalues --  -20.61391 -20.61343 -20.59936 -20.59913 -15.86414
 Alpha  occ. eigenvalues --  -15.84973 -11.31709 -11.30236 -11.28311 -11.28227
 Alpha  occ. eigenvalues --  -11.27978 -11.27283 -11.27229 -11.26837 -11.26673
 Alpha  occ. eigenvalues --  -11.26555 -11.25908 -11.25665  -1.60428  -1.59002
 Alpha  occ. eigenvalues --   -1.39990  -1.38558  -1.19869  -1.18391  -1.09272
 Alpha  occ. eigenvalues --   -1.07827  -1.05265  -1.03758  -0.96124  -0.94680
 Alpha  occ. eigenvalues --   -0.86664  -0.85180  -0.82966  -0.81498  -0.78025
 Alpha  occ. eigenvalues --   -0.76546  -0.72650  -0.71738  -0.71200  -0.70976
 Alpha  occ. eigenvalues --   -0.70318  -0.69553  -0.65527  -0.65264  -0.64050
 Alpha  occ. eigenvalues --   -0.63762  -0.62618  -0.61102  -0.55757  -0.54344
 Alpha  occ. eigenvalues --   -0.53593  -0.53356  -0.52115  -0.51853  -0.49412
 Alpha  occ. eigenvalues --   -0.49365  -0.47959  -0.47946  -0.45407  -0.43986
 Alpha  occ. eigenvalues --   -0.37838  -0.36866  -0.36403  -0.35313
 Alpha virt. eigenvalues --    0.04508   0.05963   0.10791   0.12306   0.16024
 Alpha virt. eigenvalues --    0.17486   0.20894   0.22315   0.26812   0.27604
 Alpha virt. eigenvalues --    0.28474   0.29114   0.30550   0.31789   0.32064

 Mulliken charges:
               1
     1  C   -0.174102
     2  C   -0.207159
     3  C   -0.168048
     4  C    0.157956
     5  C   -0.173163
     6  C   -0.218978
     7  H    0.218562
     8  H    0.231366
     9  H    0.278088
    10  H    0.271939
    11  H    0.217993
    12  N    0.488260
    13  O   -0.464339
    14  O   -0.459400
    15  C   -0.170494
    16  C   -0.218326
    17  C   -0.170333
    18  C    0.159088
    19  C   -0.171217
    20  C   -0.218401
    21  H    0.227095
    22  H    0.225573
    23  H    0.277842
    24  H    0.270396
    25  H    0.223303
    26  N    0.490742
    27  O   -0.469904
    28  O   -0.454341
 Sum of Mulliken charges =  -0.00000

 Dipole moment (field-independent basis, Debye):
    X=             -8.1448    Y=              5.8605    Z=              0.7659  Tot=             10.0633
 Quadrupole moment (field-independent basis, Debye-Ang):
   XX=           -101.3634   YY=           -102.4981   ZZ=           -100.8750
   XY=              9.6957   XZ=             -7.9824   YZ=             -1.5244

 Normal termination of Gaussian 16 at Thu May  6 18:00:10 2021.
