 Gaussian 16, Revision A.03,
 Gaussian 16:  EM64L-G16RevA.03 25-Dec-2016

 -------------
 #p 6-31g* mp2
 -------------

 ------------------------------------------------------
 Input file generated by CHIRIPA (05-May-2021 14:51:12)
 ------------------------------------------------------
 Symbolic Z-matrix:
 Charge =  0 Multiplicity = 1

                         Standard orientation:
 ---------------------------------------------------------------------
 Center     Atomic      Atomic             Coordinates (Angstroms)
 Number     Number       Type             X           Y           Z
 ---------------------------------------------------------------------
      1          6           0        3.422670    0.526271   -0.110621
      2          6           0        3.509370   -0.877720    0.488776
      3          6           0        4.856477   -1.551059    0.224749
      4          1           0        3.598753    0.467295   -1.193424
      5          1           0        4.230455    1.145002    0.304170
      6          1           0        2.700821   -1.493223    0.074021
      7          1           0        3.332870   -0.815418    1.570248
      8          1           0        5.672787   -0.960838    0.653559
      9          1           0        5.037147   -1.642494   -0.851169
     10          1           0        4.896710   -2.553617    0.661921
     11          6           0        2.081891    1.212361    0.144957
     12          6           0        1.995192    2.616352   -0.454440
     13          6           0        0.648085    3.289692   -0.190413
     14          1           0        1.274107    0.593631   -0.269835
     15          1           0        1.905808    1.271338    1.227760
     16          1           0        2.171691    2.554051   -1.535913
     17          1           0        2.803740    3.231856   -0.039686
     18          1           0        0.467415    3.381127    0.885505
     19          1           0       -0.168225    2.699471   -0.619223
     20          1           0        0.607852    4.292249   -0.627585
     21          6           0       -2.991068   -0.180974    0.212176
     22          6           0       -4.475510    0.066927   -0.057936
     23          6           0       -4.938245    1.448240    0.406441
     24          1           0       -2.797143   -0.070194    1.287845
     25          1           0       -2.399027    0.594292   -0.293636
     26          1           0       -5.064499   -0.709379    0.447093
     27          1           0       -4.665959   -0.044645   -1.133063
     28          1           0       -4.376072    2.235383   -0.106363
     29          1           0       -4.776876    1.566872    1.482771
     30          1           0       -6.002388    1.604299    0.203699
     31          6           0       -2.513494   -1.557658   -0.246511
     32          6           0       -1.029051   -1.805559    0.023600
     33          6           0       -0.566317   -3.186872   -0.440776
     34          1           0       -3.105533   -2.332924    0.259301
     35          1           0       -2.707420   -1.668439   -1.322182
     36          1           0       -0.838601   -1.693988    1.098727
     37          1           0       -0.440062   -1.029253   -0.481429
     38          1           0       -0.727686   -3.305504   -1.517107
     39          1           0       -1.128489   -3.974016    0.072028
     40          1           0        0.497826   -3.342932   -0.238034
 ---------------------------------------------------------------------

 SCF Done:  E(RHF) =  -470.733228503     A.U. after   11 cycles
 E2 =    -0.1583767127D+01 EUMP2 =    -0.47231699562974D+03

 The electronic state is 1-A.
 Alpha  occ. eigenvalues --  -11.21603 -11.21601 -11.21595 -11.21594 -11.21415
 Alpha  occ. eigenvalues --  -11.21380 -11.21356 -11.21310 -11.21101 -11.21080
 Alpha  occ. eigenvalues --  -11.21068 -11.21056  -1.08455  -1.08404  -1.03540
 Alpha  occ. eigenvalues --   -1.03523  -0.95991  -0.95970  -0.87020  -0.86973
 Alpha  occ. eigenvalues --   -0.79628  -0.79571  -0.78371  -0.78108  -0.65180
 Alpha  occ. eigenvalues --   -0.64959  -0.60948  -0.60920  -0.59388  -0.59312
 Alpha  occ. eigenvalues --   -0.57619  -0.57564  -0.55322  -0.55221  -0.52699
 Alpha  occ. eigenvalues --   -0.52656  -0.52481  -0.52332  -0.50005  -0.49851
 Alpha  occ. eigenvalues --   -0.48009  -0.47848  -0.46773  -0.46600  -0.46110
 Alpha  occ. eigenvalues --   -0.45776  -0.45710  -0.45163  -0.43790  -0.43773
 Alpha virt. eigenvalues --    0.20348   0.22143   0.23542   0.24189   0.25430
 Alpha virt. eigenvalues --    0.26676   0.26995   0.27310   0.27599   0.29491
 Alpha virt. eigenvalues --    0.30639   0.31453   0.31659   0.31806   0.32044

 Mulliken charges:
               1
     1  C   -0.297671
     2  C   -0.303540
     3  C   -0.475614
     4  H    0.149192
     5  H    0.149533
     6  H    0.155445
     7  H    0.151992
     8  H    0.155263
     9  H    0.155160
    10  H    0.160117
    11  C   -0.306221
    12  C   -0.299203
    13  C   -0.477029
    14  H    0.157745
    15  H    0.149629
    16  H    0.151434
    17  H    0.151986
    18  H    0.155797
    19  H    0.155522
    20  H    0.160206
    21  C   -0.300070
    22  C   -0.299664
    23  C   -0.475720
    24  H    0.150133
    25  H    0.150672
    26  H    0.152004
    27  H    0.151789
    28  H    0.155548
    29  H    0.155276
    30  H    0.160168
    31  C   -0.297820
    32  C   -0.306004
    33  C   -0.478188
    34  H    0.149714
    35  H    0.149252
    36  H    0.152902
    37  H    0.157588
    38  H    0.154888
    39  H    0.155602
    40  H    0.162186
 Sum of Mulliken charges =  -0.00000

 Dipole moment (field-independent basis, Debye):
    X=             -0.0125    Y=             -0.0048    Z=              0.0194  Tot=              0.0236
 Quadrupole moment (field-independent basis, Debye-Ang):
   XX=            -85.7436   YY=            -85.8232   ZZ=            -83.2406
   XY=              1.2702   XZ=              0.3291   YZ=             -0.3492

 Normal termination of Gaussian 16 at Thu May  6 02:20:26 2021.
