 Gaussian 16, Revision A.03,
 Gaussian 16:  EM64L-G16RevA.03 25-Dec-2016

 -------------
 #p 6-31g* mp2
 -------------

 ------------------------------------------------------
 Input file generated by CHIRIPA (05-May-2021 14:55:25)
 ------------------------------------------------------
 Symbolic Z-matrix:
 Charge =  0 Multiplicity = 1

                         Standard orientation:
 ---------------------------------------------------------------------
 Center     Atomic      Atomic             Coordinates (Angstroms)
 Number     Number       Type             X           Y           Z
 ---------------------------------------------------------------------
      1          6           0        5.235442   -1.469805    0.090337
      2          6           0        5.286801   -0.094272   -0.158246
      3          6           0        4.111322    0.659668   -0.224361
      4          6           0        2.896254    0.002764   -0.036273
      5          6           0        2.812315   -1.366209    0.213038
      6          6           0        4.000540   -2.100272    0.274860
      7          1           0        6.153533   -2.047763    0.140029
      8          1           0        6.244428    0.398016   -0.301942
      9          1           0        4.122169    1.725886   -0.415358
     10          1           0        1.842798   -1.828924    0.352146
     11          1           0        3.957623   -3.168389    0.468065
     12          7           0        1.645080    0.790405   -0.103994
     13          8           0        0.587189    0.188013    0.065202
     14          8           0        1.745993    1.995235   -0.324987
     15          6           0       -4.400707   -0.381321    0.353143
     16          6           0       -5.009957   -1.350096   -0.660895
     17          6           0       -5.866610   -2.432551   -0.003451
     18          1           0       -3.791520   -0.947269    1.071155
     19          1           0       -5.208133    0.089398    0.930969
     20          1           0       -4.201692   -1.817816   -1.237576
     21          1           0       -5.617609   -0.781753   -1.376689
     22          1           0       -6.692557   -1.982689    0.556939
     23          1           0       -5.268594   -3.024639    0.696842
     24          1           0       -6.292288   -3.114072   -0.746544
     25          6           0       -3.541597    0.706565   -0.288857
     26          6           0       -2.932348    1.675341    0.725181
     27          6           0       -2.075694    2.757795    0.067738
     28          1           0       -2.734171    0.235847   -0.866682
     29          1           0       -4.150784    1.272513   -1.006867
     30          1           0       -2.324696    1.106998    1.440975
     31          1           0       -3.740612    2.143061    1.301863
     32          1           0       -2.673710    3.349884   -0.632556
     33          1           0       -1.249748    2.307934   -0.492652
     34          1           0       -1.650016    3.439317    0.810830
 ---------------------------------------------------------------------

 SCF Done:  E(RHF) =  -669.536865606     A.U. after   15 cycles
 E2 =    -0.2092036187D+01 EUMP2 =    -0.67162890179331D+03

 The electronic state is 1-A.
 Alpha  occ. eigenvalues --  -20.61174 -20.61166 -15.86163 -11.31423 -11.27971
 Alpha  occ. eigenvalues --  -11.27965 -11.27694 -11.26959 -11.26950 -11.20759
 Alpha  occ. eigenvalues --  -11.20428 -11.20282 -11.19896 -11.19811 -11.18827
 Alpha  occ. eigenvalues --   -1.60202  -1.39760  -1.19578  -1.08996  -1.07141
 Alpha  occ. eigenvalues --   -1.04962  -1.02155  -0.95848  -0.94603  -0.86365
 Alpha  occ. eigenvalues --   -0.85626  -0.82682  -0.78320  -0.77747  -0.76865
 Alpha  occ. eigenvalues --   -0.72368  -0.71502  -0.70685  -0.65233  -0.64967
 Alpha  occ. eigenvalues --   -0.63766  -0.62309  -0.59541  -0.58102  -0.56210
 Alpha  occ. eigenvalues --   -0.55477  -0.53898  -0.53297  -0.53051  -0.51325
 Alpha  occ. eigenvalues --   -0.51055  -0.49296  -0.49129  -0.48341  -0.46581
 Alpha  occ. eigenvalues --   -0.45345  -0.45189  -0.44415  -0.44202  -0.42427
 Alpha  occ. eigenvalues --   -0.37552  -0.36558
 Alpha virt. eigenvalues --    0.04774   0.11098   0.16286   0.21232   0.24025
 Alpha virt. eigenvalues --    0.25774   0.27167   0.27817   0.28224   0.28711
 Alpha virt. eigenvalues --    0.29445   0.30825   0.32341   0.32752   0.32836

 Mulliken charges:
               1
     1  C   -0.170304
     2  C   -0.218613
     3  C   -0.170552
     4  C    0.159409
     5  C   -0.170658
     6  C   -0.218579
     7  H    0.226483
     8  H    0.224314
     9  H    0.276259
    10  H    0.275775
    11  H    0.224273
    12  N    0.488916
    13  O   -0.460634
    14  O   -0.456956
    15  C   -0.297192
    16  C   -0.298578
    17  C   -0.474756
    18  H    0.148430
    19  H    0.145900
    20  H    0.150798
    21  H    0.150291
    22  H    0.153982
    23  H    0.153109
    24  H    0.157014
    25  C   -0.299605
    26  C   -0.295214
    27  C   -0.481856
    28  H    0.158421
    29  H    0.143744
    30  H    0.155934
    31  H    0.141273
    32  H    0.141721
    33  H    0.183655
    34  H    0.153797
 Sum of Mulliken charges =  -0.00000

 Dipole moment (field-independent basis, Debye):
    X=              4.9832    Y=             -2.8314    Z=              0.1928  Tot=              5.7346
 Quadrupole moment (field-independent basis, Debye-Ang):
   XX=            -69.5405   YY=            -92.5450   ZZ=            -95.7692
   XY=             -6.4440   XZ=              0.3660   YZ=             -0.6945

 Normal termination of Gaussian 16 at Thu May  6 09:33:54 2021.
