 Gaussian 16, Revision A.03,
 Gaussian 16:  EM64L-G16RevA.03 25-Dec-2016

 -------------
 #p 6-31g* mp2
 -------------

 ------------------------------------------------------
 Input file generated by CHIRIPA (05-May-2021 14:53:13)
 ------------------------------------------------------
 Symbolic Z-matrix:
 Charge =  0 Multiplicity = 1

                         Standard orientation:
 ---------------------------------------------------------------------
 Center     Atomic      Atomic             Coordinates (Angstroms)
 Number     Number       Type             X           Y           Z
 ---------------------------------------------------------------------
      1          6           0       -4.841744    0.449871    0.259289
      2          6           0       -5.747500    0.846418   -0.907048
      3          6           0       -6.776619    1.909434   -0.521425
      4          1           0       -5.461657    0.078916    1.086964
      5          1           0       -4.324090    1.344194    0.632942
      6          1           0       -6.262243   -0.048622   -1.279284
      7          1           0       -5.125346    1.216293   -1.732114
      8          1           0       -6.278150    2.818618   -0.169977
      9          1           0       -7.421507    1.546516    0.285426
     10          1           0       -7.413522    2.178106   -1.369970
     11          6           0       -3.807641   -0.611989   -0.110592
     12          6           0       -2.901886   -1.008536    1.055745
     13          6           0       -1.872767   -2.071552    0.670122
     14          1           0       -4.325296   -1.506311   -0.484245
     15          1           0       -3.187729   -0.241033   -0.938267
     16          1           0       -3.524040   -1.378411    1.880811
     17          1           0       -2.387143   -0.113496    1.427981
     18          1           0       -1.227878   -1.708633   -0.136729
     19          1           0       -2.371235   -2.980735    0.318674
     20          1           0       -1.235863   -2.340224    1.518667
     21          6           0        4.736671    2.169160    0.237233
     22          6           0        5.025437    1.291521   -0.812950
     23          6           0        4.279582    0.121802   -0.986175
     24          6           0        3.247380   -0.140257   -0.086635
     25          6           0        2.935334    0.714417    0.969514
     26          6           0        3.694378    1.878320    1.123550
     27          1           0        5.321192    3.075567    0.364345
     28          1           0        5.834316    1.514828   -1.502801
     29          1           0        4.481656   -0.575056   -1.790522
     30          1           0        2.122901    0.464805    1.641129
     31          1           0        3.467868    2.558081    1.940044
     32          7           0        2.450794   -1.375508   -0.259863
     33          8           0        1.546573   -1.583581    0.546193
     34          8           0        2.745735   -2.112233   -1.198417
 ---------------------------------------------------------------------

 SCF Done:  E(RHF) =  -669.535417929     A.U. after   15 cycles
 E2 =    -0.2091052555D+01 EUMP2 =    -0.67162647048402D+03

 The electronic state is 1-A.
 Alpha  occ. eigenvalues --  -20.60886 -20.60875 -15.85917 -11.31272 -11.27840
 Alpha  occ. eigenvalues --  -11.27836 -11.27581 -11.26853 -11.26843 -11.21198
 Alpha  occ. eigenvalues --  -11.20870 -11.20771 -11.20669 -11.20606 -11.19470
 Alpha  occ. eigenvalues --   -1.59952  -1.39508  -1.19444  -1.08843  -1.07774
 Alpha  occ. eigenvalues --   -1.04844  -1.02764  -0.95687  -0.95164  -0.86249
 Alpha  occ. eigenvalues --   -0.86169  -0.82512  -0.78859  -0.77586  -0.77532
 Alpha  occ. eigenvalues --   -0.72144  -0.71274  -0.70552  -0.65100  -0.64847
 Alpha  occ. eigenvalues --   -0.64417  -0.62191  -0.60167  -0.58610  -0.56780
 Alpha  occ. eigenvalues --   -0.55348  -0.54464  -0.53175  -0.52936  -0.51816
 Alpha  occ. eigenvalues --   -0.51598  -0.49225  -0.48900  -0.48789  -0.47152
 Alpha  occ. eigenvalues --   -0.45944  -0.45134  -0.45066  -0.44742  -0.42998
 Alpha  occ. eigenvalues --   -0.37424  -0.36447
 Alpha virt. eigenvalues --    0.04950   0.11207   0.16432   0.21320   0.23450
 Alpha virt. eigenvalues --    0.25083   0.27183   0.27308   0.28026   0.28209
 Alpha virt. eigenvalues --    0.29006   0.30926   0.32079   0.32387   0.32541

 Mulliken charges:
               1
     1  C   -0.297164
     2  C   -0.299053
     3  C   -0.475197
     4  H    0.148519
     5  H    0.146549
     6  H    0.151983
     7  H    0.151053
     8  H    0.153585
     9  H    0.154690
    10  H    0.158985
    11  C   -0.297369
    12  C   -0.300503
    13  C   -0.470738
    14  H    0.149110
    15  H    0.148639
    16  H    0.147127
    17  H    0.145623
    18  H    0.165789
    19  H    0.148117
    20  H    0.166824
    21  C   -0.170708
    22  C   -0.218556
    23  C   -0.170788
    24  C    0.157825
    25  C   -0.171012
    26  C   -0.218532
    27  H    0.225905
    28  H    0.223739
    29  H    0.275843
    30  H    0.275676
    31  H    0.223749
    32  N    0.489978
    33  O   -0.460157
    34  O   -0.459529
 Sum of Mulliken charges =  -0.00000

 Dipole moment (field-independent basis, Debye):
    X=              3.1020    Y=              4.2707    Z=              0.5892  Tot=              5.3112
 Quadrupole moment (field-independent basis, Debye-Ang):
   XX=            -76.7704   YY=            -96.3533   ZZ=            -92.0234
   XY=             14.4996   XZ=             -0.7958   YZ=              0.4241

 Normal termination of Gaussian 16 at Wed May  5 21:49:13 2021.
