 Gaussian 16, Revision A.03,
 Gaussian 16:  EM64L-G16RevA.03 25-Dec-2016

 -------------
 #p 6-31g* mp2
 -------------

 ------------------------------------------------------
 Input file generated by CHIRIPA (05-May-2021 14:51:14)
 ------------------------------------------------------
 Symbolic Z-matrix:
 Charge =  0 Multiplicity = 1

                         Standard orientation:
 ---------------------------------------------------------------------
 Center     Atomic      Atomic             Coordinates (Angstroms)
 Number     Number       Type             X           Y           Z
 ---------------------------------------------------------------------
      1          6           0        2.928812   -0.532898    0.300218
      2          6           0        1.942972   -1.355666   -0.529937
      3          6           0        0.533984   -1.365040    0.063747
      4          1           0        2.962625   -0.934833    1.322104
      5          1           0        2.557501    0.498043    0.381964
      6          1           0        2.316728   -2.384407   -0.611256
      7          1           0        1.911645   -0.951845   -1.550017
      8          1           0        0.136899   -0.346908    0.129567
      9          1           0        0.544284   -1.787610    1.073662
     10          1           0       -0.154436   -1.958955   -0.545516
     11          6           0        4.341650   -0.513953   -0.280521
     12          6           0        5.327490    0.308814    0.549635
     13          6           0        6.736477    0.318188   -0.044049
     14          1           0        4.712961   -1.544894   -0.362267
     15          1           0        4.307837   -0.112019   -1.302407
     16          1           0        5.358817   -0.095006    1.569715
     17          1           0        4.953734    1.337556    0.630953
     18          1           0        6.726178    0.740758   -1.053965
     19          1           0        7.133562   -0.699943   -0.109869
     20          1           0        7.424898    0.912104    0.565214
     21          6           0       -3.030234    0.880976   -0.309130
     22          6           0       -2.784868    2.264985    0.292780
     23          6           0       -1.571129    2.967728   -0.316140
     24          1           0       -2.134882    0.261087   -0.164120
     25          1           0       -3.169220    0.980265   -1.394588
     26          1           0       -2.647761    2.163274    1.376972
     27          1           0       -3.680979    2.881589    0.146491
     28          1           0       -1.702817    3.098429   -1.395110
     29          1           0       -0.663729    2.376032   -0.157637
     30          1           0       -1.414117    3.955371    0.128574
     31          6           0       -4.240227    0.165876    0.289432
     32          6           0       -4.485594   -1.218134   -0.312478
     33          6           0       -5.699333   -1.920877    0.296443
     34          1           0       -4.101242    0.066586    1.374890
     35          1           0       -5.135581    0.785764    0.144423
     36          1           0       -3.589483   -1.834738   -0.166188
     37          1           0       -4.622701   -1.116424   -1.396670
     38          1           0       -6.606732   -1.329181    0.137939
     39          1           0       -5.567645   -2.051578    1.375413
     40          1           0       -5.856345   -2.908520   -0.148271
 ---------------------------------------------------------------------

 SCF Done:  E(RHF) =  -470.733116828     A.U. after   11 cycles
 E2 =    -0.1583052742D+01 EUMP2 =    -0.47231616956974D+03

 The electronic state is 1-A.
 Alpha  occ. eigenvalues --  -11.21651 -11.21617 -11.21571 -11.21550 -11.21440
 Alpha  occ. eigenvalues --  -11.21378 -11.21325 -11.21245 -11.21148 -11.21098
 Alpha  occ. eigenvalues --  -11.21081 -11.21032  -1.08467  -1.08374  -1.03573
 Alpha  occ. eigenvalues --   -1.03495  -0.96030  -0.95941  -0.87055  -0.86956
 Alpha  occ. eigenvalues --   -0.79660  -0.79541  -0.78295  -0.78163  -0.65143
 Alpha  occ. eigenvalues --   -0.64975  -0.61045  -0.60830  -0.59393  -0.59312
 Alpha  occ. eigenvalues --   -0.57629  -0.57557  -0.55361  -0.55204  -0.52743
 Alpha  occ. eigenvalues --   -0.52639  -0.52469  -0.52353  -0.50045  -0.49852
 Alpha  occ. eigenvalues --   -0.48023  -0.47831  -0.46801  -0.46510  -0.45899
 Alpha  occ. eigenvalues --   -0.45772  -0.45693  -0.45399  -0.43810  -0.43735
 Alpha virt. eigenvalues --    0.20782   0.22941   0.23568   0.24502   0.25792
 Alpha virt. eigenvalues --    0.26348   0.27075   0.27268   0.28140   0.29388
 Alpha virt. eigenvalues --    0.29777   0.31563   0.31742   0.31925   0.32214

 Mulliken charges:
               1
     1  C   -0.298781
     2  C   -0.299449
     3  C   -0.482669
     4  H    0.149689
     5  H    0.149541
     6  H    0.152182
     7  H    0.152662
     8  H    0.160374
     9  H    0.155321
    10  H    0.161374
    11  C   -0.298348
    12  C   -0.299728
    13  C   -0.475741
    14  H    0.149620
    15  H    0.149917
    16  H    0.151912
    17  H    0.152138
    18  H    0.155287
    19  H    0.155177
    20  H    0.160335
    21  C   -0.307791
    22  C   -0.299180
    23  C   -0.477846
    24  H    0.160756
    25  H    0.148675
    26  H    0.151780
    27  H    0.151871
    28  H    0.155394
    29  H    0.155357
    30  H    0.160435
    31  C   -0.297462
    32  C   -0.300323
    33  C   -0.475650
    34  H    0.149369
    35  H    0.149188
    36  H    0.152766
    37  H    0.151617
    38  H    0.155054
    39  H    0.155175
    40  H    0.160005
 Sum of Mulliken charges =  -0.00000

 Dipole moment (field-independent basis, Debye):
    X=              0.0394    Y=             -0.0197    Z=             -0.0015  Tot=              0.0441
 Quadrupole moment (field-independent basis, Debye-Ang):
   XX=            -86.3351   YY=            -84.3648   ZZ=            -84.1837
   XY=             -1.0877   XZ=              1.1547   YZ=             -0.5191

 Normal termination of Gaussian 16 at Wed May  5 15:24:07 2021.
