 Gaussian 16, Revision A.03,
 Gaussian 16:  EM64L-G16RevA.03 25-Dec-2016

 -------------
 #p 6-31g* mp2
 -------------

 ------------------------------------------------------
 Input file generated by CHIRIPA (05-May-2021 14:53:14)
 ------------------------------------------------------
 Symbolic Z-matrix:
 Charge =  0 Multiplicity = 1

                         Standard orientation:
 ---------------------------------------------------------------------
 Center     Atomic      Atomic             Coordinates (Angstroms)
 Number     Number       Type             X           Y           Z
 ---------------------------------------------------------------------
      1          6           0        3.062420    0.720786    0.157674
      2          6           0        2.920683    2.195306    0.536731
      3          6           0        1.464523    2.617467    0.734649
      4          1           0        2.495237    0.529430   -0.763538
      5          1           0        2.603628    0.102184    0.941406
      6          1           0        3.380831    2.810887   -0.246812
      7          1           0        3.488427    2.383216    1.457042
      8          1           0        0.997377    2.028311    1.530431
      9          1           0        0.889170    2.458411   -0.183104
     10          1           0        1.386362    3.675120    1.005057
     11          6           0        4.512302    0.283680   -0.043599
     12          6           0        4.654038   -1.190840   -0.422656
     13          6           0        6.110199   -1.613001   -0.620574
     14          1           0        4.971094    0.902282   -0.827331
     15          1           0        5.079485    0.475037    0.877613
     16          1           0        4.086295   -1.378750   -1.342968
     17          1           0        4.193891   -1.806421    0.360887
     18          1           0        6.685552   -1.453945    0.297179
     19          1           0        6.577345   -1.023845   -1.416356
     20          1           0        6.188360   -2.670654   -0.890982
     21          6           0       -0.715946   -1.454845    0.409681
     22          6           0       -1.886278   -2.065302    0.872482
     23          6           0       -3.134483   -1.485571    0.626628
     24          6           0       -3.175714   -0.289653   -0.088475
     25          6           0       -2.027509    0.342828   -0.562691
     26          6           0       -0.790166   -0.254844   -0.305168
     27          1           0        0.249471   -1.912163    0.605199
     28          1           0       -1.831666   -2.997269    1.427910
     29          1           0       -4.056244   -1.936753    0.973339
     30          1           0       -2.113834    1.271542   -1.113562
     31          1           0        0.117082    0.221490   -0.665798
     32          7           0       -4.491383    0.333579   -0.354927
     33          8           0       -4.500789    1.387451   -0.987303
     34          8           0       -5.488286   -0.243606    0.073651
 ---------------------------------------------------------------------

 SCF Done:  E(RHF) =  -669.534633571     A.U. after   15 cycles
 E2 =    -0.2092825587D+01 EUMP2 =    -0.67162745915792D+03

 The electronic state is 1-A.
 Alpha  occ. eigenvalues --  -20.60677 -20.60672 -15.85728 -11.31072 -11.27632
 Alpha  occ. eigenvalues --  -11.27607 -11.27343 -11.26657 -11.26535 -11.22642
 Alpha  occ. eigenvalues --  -11.22533 -11.22528 -11.22324 -11.21977 -11.21799
 Alpha  occ. eigenvalues --   -1.59753  -1.39307  -1.19232  -1.09457  -1.08628
 Alpha  occ. eigenvalues --   -1.04650  -1.04434  -0.96905  -0.95471  -0.87917
 Alpha  occ. eigenvalues --   -0.86037  -0.82314  -0.80526  -0.79333  -0.77344
 Alpha  occ. eigenvalues --   -0.71947  -0.71075  -0.70338  -0.66099  -0.64880
 Alpha  occ. eigenvalues --   -0.64650  -0.62102  -0.61754  -0.60235  -0.58532
 Alpha  occ. eigenvalues --   -0.56197  -0.55126  -0.53547  -0.53389  -0.52927
 Alpha  occ. eigenvalues --   -0.52750  -0.50846  -0.48838  -0.48704  -0.48662
 Alpha  occ. eigenvalues --   -0.47544  -0.46769  -0.46739  -0.44732  -0.44717
 Alpha  occ. eigenvalues --   -0.37208  -0.36210
 Alpha virt. eigenvalues --    0.05159   0.11366   0.16622   0.19684   0.22384
 Alpha virt. eigenvalues --    0.23387   0.24452   0.25529   0.26559   0.28545
 Alpha virt. eigenvalues --    0.29462   0.30477   0.30876   0.31049   0.31423

 Mulliken charges:
               1
     1  C   -0.305306
     2  C   -0.300213
     3  C   -0.478412
     4  H    0.143703
     5  H    0.147200
     6  H    0.155620
     7  H    0.156349
     8  H    0.159870
     9  H    0.146960
    10  H    0.167237
    11  C   -0.297485
    12  C   -0.300583
    13  C   -0.476166
    14  H    0.153330
    15  H    0.153362
    16  H    0.151375
    17  H    0.148387
    18  H    0.157046
    19  H    0.157577
    20  H    0.162041
    21  C   -0.176655
    22  C   -0.218373
    23  C   -0.171702
    24  C    0.158857
    25  C   -0.173891
    26  C   -0.220820
    27  H    0.226354
    28  H    0.222712
    29  H    0.275013
    30  H    0.275055
    31  H    0.235052
    32  N    0.488027
    33  O   -0.460617
    34  O   -0.460904
 Sum of Mulliken charges =  -0.00000

 Dipole moment (field-independent basis, Debye):
    X=              4.9276    Y=             -2.0804    Z=              0.9977  Tot=              5.4411
 Quadrupole moment (field-independent basis, Debye-Ang):
   XX=           -123.7391   YY=            -90.8188   ZZ=            -93.3979
   XY=              8.2446   XZ=             -4.3877   YZ=             -2.3471

 Normal termination of Gaussian 16 at Thu May  6 13:45:40 2021.
