 Gaussian 16, Revision A.03,
 Gaussian 16:  EM64L-G16RevA.03 25-Dec-2016

 -------------
 #p 6-31g* mp2
 -------------

 ------------------------------------------------------
 Input file generated by CHIRIPA (05-May-2021 14:57:26)
 ------------------------------------------------------
 Symbolic Z-matrix:
 Charge =  0 Multiplicity = 1

                         Standard orientation:
 ---------------------------------------------------------------------
 Center     Atomic      Atomic             Coordinates (Angstroms)
 Number     Number       Type             X           Y           Z
 ---------------------------------------------------------------------
      1          6           0       -5.773212    0.977806   -0.425532
      2          6           0       -4.577459    1.694909   -0.313911
      3          6           0       -3.360274    1.025585   -0.155750
      4          6           0       -3.375648   -0.367698   -0.113130
      5          6           0       -4.550378   -1.110354   -0.221574
      6          6           0       -5.755886   -0.420072   -0.379090
      7          1           0       -6.714214    1.505893   -0.548145
      8          1           0       -4.587896    2.780570   -0.349641
      9          1           0       -2.419890    1.555869   -0.066895
     10          1           0       -4.508168   -2.192066   -0.182397
     11          1           0       -6.682985   -0.979591   -0.465520
     12          7           0       -2.093250   -1.087375    0.053966
     13          8           0       -2.133647   -2.315305    0.088510
     14          8           0       -1.071992   -0.409901    0.147229
     15          6           0        1.662452    1.114830    1.523606
     16          6           0        2.150611    1.870682    0.452668
     17          6           0        3.216523    1.400856   -0.320408
     18          6           0        3.773061    0.165390    0.006972
     19          6           0        3.309001   -0.610969    1.067730
     20          6           0        2.242182   -0.121404    1.827184
     21          1           0        0.834073    1.487469    2.118859
     22          1           0        1.702332    2.831106    0.214600
     23          1           0        3.614121    1.965466   -1.155003
     24          1           0        3.776394   -1.564688    1.280763
     25          1           0        1.865134   -0.710561    2.658312
     26          7           0        4.901974   -0.342443   -0.804238
     27          8           0        5.374956   -1.433997   -0.495314
     28          8           0        5.292458    0.360690   -1.733627
 ---------------------------------------------------------------------

 SCF Done:  E(RHF) =  -868.337802394     A.U. after   16 cycles
 E2 =    -0.2599749262D+01 EUMP2 =    -0.87093755165505D+03

 The electronic state is 1-A.
 Alpha  occ. eigenvalues --  -20.61410 -20.61377 -20.59878 -20.59865 -15.86436
 Alpha  occ. eigenvalues --  -15.84924 -11.31764 -11.30075 -11.28369 -11.28292
 Alpha  occ. eigenvalues --  -11.28031 -11.27339 -11.27290 -11.26709 -11.26615
 Alpha  occ. eigenvalues --  -11.26379 -11.25696 -11.25551  -1.60471  -1.58954
 Alpha  occ. eigenvalues --   -1.40027  -1.38514  -1.19927  -1.18236  -1.09324
 Alpha  occ. eigenvalues --   -1.07668  -1.05325  -1.03635  -0.96170  -0.94546
 Alpha  occ. eigenvalues --   -0.86723  -0.85056  -0.83005  -0.81403  -0.78067
 Alpha  occ. eigenvalues --   -0.76478  -0.72665  -0.71794  -0.71155  -0.71030
 Alpha  occ. eigenvalues --   -0.70270  -0.69386  -0.65579  -0.65322  -0.63918
 Alpha  occ. eigenvalues --   -0.63684  -0.62680  -0.61025  -0.55810  -0.54170
 Alpha  occ. eigenvalues --   -0.53652  -0.53416  -0.51917  -0.51771  -0.49422
 Alpha  occ. eigenvalues --   -0.49396  -0.47915  -0.47892  -0.45445  -0.43969
 Alpha  occ. eigenvalues --   -0.37894  -0.36927  -0.36110  -0.35202
 Alpha virt. eigenvalues --    0.04452   0.06096   0.10729   0.12449   0.15968
 Alpha virt. eigenvalues --    0.17650   0.20793   0.22316   0.26686   0.27562
 Alpha virt. eigenvalues --    0.28304   0.29147   0.30636   0.31709   0.32312

 Mulliken charges:
               1
     1  C   -0.170447
     2  C   -0.218011
     3  C   -0.171111
     4  C    0.158386
     5  C   -0.170548
     6  C   -0.218198
     7  H    0.227382
     8  H    0.223576
     9  H    0.269933
    10  H    0.277095
    11  H    0.225484
    12  N    0.490865
    13  O   -0.457586
    14  O   -0.466326
    15  C   -0.151938
    16  C   -0.218760
    17  C   -0.171124
    18  C    0.157952
    19  C   -0.169784
    20  C   -0.208601
    21  H    0.219546
    22  H    0.214268
    23  H    0.270867
    24  H    0.273354
    25  H    0.222173
    26  N    0.488327
    27  O   -0.462244
    28  O   -0.464530
 Sum of Mulliken charges =  -0.00000

 Dipole moment (field-independent basis, Debye):
    X=             -8.8842    Y=              4.1540    Z=              2.3440  Tot=             10.0836
 Quadrupole moment (field-independent basis, Debye-Ang):
   XX=           -104.7113   YY=            -99.4959   ZZ=           -104.4732
   XY=              1.1466   XZ=             13.9002   YZ=             -2.1969

 Normal termination of Gaussian 16 at Thu May  6 19:46:14 2021.
