 Gaussian 16, Revision A.03,
 Gaussian 16:  EM64L-G16RevA.03 25-Dec-2016

 -------------
 #p 6-31g* mp2
 -------------

 ------------------------------------------------------
 Input file generated by CHIRIPA (05-May-2021 14:53:14)
 ------------------------------------------------------
 Symbolic Z-matrix:
 Charge =  0 Multiplicity = 1

                         Standard orientation:
 ---------------------------------------------------------------------
 Center     Atomic      Atomic             Coordinates (Angstroms)
 Number     Number       Type             X           Y           Z
 ---------------------------------------------------------------------
      1          6           0        3.525573   -0.685200   -0.394369
      2          6           0        2.112444   -0.684300    0.189628
      3          6           0        1.128987   -1.509278   -0.641044
      4          1           0        3.491693   -0.293923   -1.420381
      5          1           0        3.884271   -1.721301   -0.466653
      6          1           0        1.757051    0.351588    0.262077
      7          1           0        2.149720   -1.075445    1.214436
      8          1           0        1.457107   -2.551912   -0.703117
      9          1           0        1.062207   -1.116771   -1.660887
     10          1           0        0.124981   -1.494930   -0.205582
     11          6           0        4.520197    0.135272    0.424945
     12          6           0        5.933325    0.134372   -0.159052
     13          6           0        6.916783    0.959351    0.671620
     14          1           0        4.161498    1.171373    0.497229
     15          1           0        4.554076   -0.256005    1.450957
     16          1           0        5.896050    0.525518   -1.183860
     17          1           0        6.288718   -0.901515   -0.231501
     18          1           0        6.983563    0.566843    1.691463
     19          1           0        6.588663    2.001984    0.733693
     20          1           0        7.920788    0.945003    0.236158
     21          6           0       -3.451827   -2.267613    0.316722
     22          6           0       -2.605858   -1.794983   -0.691980
     23          6           0       -2.427141   -0.421649   -0.883180
     24          6           0       -3.113010    0.454808   -0.043718
     25          6           0       -3.962718    0.014820    0.970037
     26          6           0       -4.126368   -1.362798    1.143054
     27          1           0       -3.584807   -3.336117    0.458188
     28          1           0       -2.080724   -2.495360   -1.335216
     29          1           0       -1.778261   -0.028485   -1.656353
     30          1           0       -4.472741    0.737387    1.595491
     31          1           0       -4.783993   -1.726990    1.927235
     32          7           0       -2.931786    1.910963   -0.236508
     33          8           0       -3.547400    2.662524    0.516361
     34          8           0       -2.177560    2.273164   -1.136836
 ---------------------------------------------------------------------

 SCF Done:  E(RHF) =  -669.534444253     A.U. after   15 cycles
 E2 =    -0.2092485663D+01 EUMP2 =    -0.67162692991599D+03

 The electronic state is 1-A.
 Alpha  occ. eigenvalues --  -20.60790 -20.60784 -15.85843 -11.31206 -11.27775
 Alpha  occ. eigenvalues --  -11.27754 -11.27518 -11.26792 -11.26754 -11.21719
 Alpha  occ. eigenvalues --  -11.21571 -11.21441 -11.21361 -11.21341 -11.21013
 Alpha  occ. eigenvalues --   -1.59865  -1.39418  -1.19394  -1.08782  -1.08470
 Alpha  occ. eigenvalues --   -1.04807  -1.03606  -0.96091  -0.95611  -0.87123
 Alpha  occ. eigenvalues --   -0.86182  -0.82450  -0.79686  -0.78270  -0.77487
 Alpha  occ. eigenvalues --   -0.72061  -0.71189  -0.70489  -0.65102  -0.65039
 Alpha  occ. eigenvalues --   -0.64782  -0.62165  -0.60999  -0.59479  -0.57702
 Alpha  occ. eigenvalues --   -0.55394  -0.55268  -0.53463  -0.52877  -0.52599
 Alpha  occ. eigenvalues --   -0.52344  -0.50024  -0.48820  -0.48815  -0.47992
 Alpha  occ. eigenvalues --   -0.46694  -0.45821  -0.45724  -0.44824  -0.43878
 Alpha  occ. eigenvalues --   -0.37378  -0.36278
 Alpha virt. eigenvalues --    0.05029   0.11204   0.16445   0.21023   0.22859
 Alpha virt. eigenvalues --    0.24214   0.26188   0.26716   0.27586   0.28007
 Alpha virt. eigenvalues --    0.29053   0.30396   0.31347   0.31939   0.32160

 Mulliken charges:
               1
     1  C   -0.298610
     2  C   -0.299087
     3  C   -0.488160
     4  H    0.150765
     5  H    0.147846
     6  H    0.158237
     7  H    0.151698
     8  H    0.152112
     9  H    0.151559
    10  H    0.167337
    11  C   -0.298907
    12  C   -0.299734
    13  C   -0.475866
    14  H    0.152535
    15  H    0.149086
    16  H    0.152614
    17  H    0.150872
    18  H    0.154796
    19  H    0.156567
    20  H    0.160142
    21  C   -0.171716
    22  C   -0.220637
    23  C   -0.170125
    24  C    0.158621
    25  C   -0.171215
    26  C   -0.218668
    27  H    0.225932
    28  H    0.227478
    29  H    0.278053
    30  H    0.275670
    31  H    0.223546
    32  N    0.488168
    33  O   -0.460318
    34  O   -0.460592
 Sum of Mulliken charges =  -0.00000

 Dipole moment (field-independent basis, Debye):
    X=             -0.6645    Y=             -5.0767    Z=              0.7079  Tot=              5.1687
 Quadrupole moment (field-independent basis, Debye-Ang):
   XX=            -89.8307   YY=            -99.6200   ZZ=            -92.2981
   XY=             14.8728   XZ=             -5.0978   YZ=              0.5195

 Normal termination of Gaussian 16 at Thu May  6 02:39:30 2021.
