 Gaussian 16, Revision A.03,
 Gaussian 16:  EM64L-G16RevA.03 25-Dec-2016

 -------------
 #p 6-31g* mp2
 -------------

 ------------------------------------------------------
 Input file generated by CHIRIPA (05-May-2021 14:53:13)
 ------------------------------------------------------
 Symbolic Z-matrix:
 Charge =  0 Multiplicity = 1

                         Standard orientation:
 ---------------------------------------------------------------------
 Center     Atomic      Atomic             Coordinates (Angstroms)
 Number     Number       Type             X           Y           Z
 ---------------------------------------------------------------------
      1          6           0       -3.447018   -0.418851   -0.031053
      2          6           0       -2.839456   -1.355937    1.013324
      3          6           0       -1.316347   -1.444731    0.913080
      4          1           0       -3.163744   -0.765406   -1.034348
      5          1           0       -3.011765    0.583031    0.088035
      6          1           0       -3.276746   -2.355418    0.893195
      7          1           0       -3.124368   -1.007221    2.014243
      8          1           0       -0.862805   -0.458396    1.054659
      9          1           0       -1.016050   -1.814252   -0.072758
     10          1           0       -0.902952   -2.119870    1.668826
     11          6           0       -4.968932   -0.319582    0.056430
     12          6           0       -5.576494    0.617504   -0.987946
     13          6           0       -7.099603    0.706297   -0.887702
     14          1           0       -5.404185   -1.321464   -0.062657
     15          1           0       -5.252205    0.026973    1.059725
     16          1           0       -5.291582    0.268788   -1.988865
     17          1           0       -5.139203    1.616984   -0.867818
     18          1           0       -7.399900    1.075819    0.098136
     19          1           0       -7.553144   -0.280038   -1.029281
     20          1           0       -7.512998    1.381436   -1.643449
     21          6           0        1.962056    2.199916    0.967570
     22          6           0        2.947318    2.450427    0.006829
     23          6           0        3.687835    1.399050   -0.541613
     24          6           0        3.415618    0.103657   -0.104412
     25          6           0        2.440521   -0.178077    0.851152
     26          6           0        1.712243    0.888774    1.385929
     27          1           0        1.391558    3.022661    1.388306
     28          1           0        3.143483    3.467666   -0.319958
     29          1           0        4.456366    1.564626   -1.286840
     30          1           0        2.267704   -1.202762    1.157048
     31          1           0        0.947682    0.691251    2.131901
     32          7           0        4.193092   -1.017580   -0.677790
     33          8           0        3.934078   -2.149830   -0.275847
     34          8           0        5.046767   -0.742925   -1.518289
 ---------------------------------------------------------------------

 SCF Done:  E(RHF) =  -669.535012266     A.U. after   15 cycles
 E2 =    -0.2091715046D+01 EUMP2 =    -0.67162672731178D+03

 The electronic state is 1-A.
 Alpha  occ. eigenvalues --  -20.60734 -20.60729 -15.85788 -11.31151 -11.27730
 Alpha  occ. eigenvalues --  -11.27708 -11.27477 -11.26747 -11.26710 -11.22085
 Alpha  occ. eigenvalues --  -11.21912 -11.21810 -11.21715 -11.21654 -11.21334
 Alpha  occ. eigenvalues --   -1.59810  -1.39363  -1.19332  -1.08829  -1.08729
 Alpha  occ. eigenvalues --   -1.04738  -1.03940  -0.96405  -0.95560  -0.87432
 Alpha  occ. eigenvalues --   -0.86134  -0.82397  -0.80012  -0.78630  -0.77432
 Alpha  occ. eigenvalues --   -0.72006  -0.71133  -0.70439  -0.65478  -0.64983
 Alpha  occ. eigenvalues --   -0.64754  -0.62129  -0.61308  -0.59772  -0.58002
 Alpha  occ. eigenvalues --   -0.55723  -0.55232  -0.53220  -0.53069  -0.52878
 Alpha  occ. eigenvalues --   -0.52652  -0.50313  -0.48766  -0.48760  -0.48313
 Alpha  occ. eigenvalues --   -0.47028  -0.46172  -0.46093  -0.44768  -0.44198
 Alpha  occ. eigenvalues --   -0.37316  -0.36290
 Alpha virt. eigenvalues --    0.05084   0.11232   0.16483   0.20814   0.22589
 Alpha virt. eigenvalues --    0.23954   0.26114   0.26355   0.27113   0.27977
 Alpha virt. eigenvalues --    0.28984   0.29923   0.31259   0.31505   0.31955

 Mulliken charges:
               1
     1  C   -0.298044
     2  C   -0.299978
     3  C   -0.482370
     4  H    0.152459
     5  H    0.146490
     6  H    0.155422
     7  H    0.150078
     8  H    0.150631
     9  H    0.162623
    10  H    0.158518
    11  C   -0.298593
    12  C   -0.299754
    13  C   -0.475889
    14  H    0.151215
    15  H    0.148982
    16  H    0.153264
    17  H    0.150644
    18  H    0.154925
    19  H    0.156216
    20  H    0.160949
    21  C   -0.172290
    22  C   -0.218590
    23  C   -0.170826
    24  C    0.157882
    25  C   -0.168813
    26  C   -0.218374
    27  H    0.225215
    28  H    0.223248
    29  H    0.275500
    30  H    0.277288
    31  H    0.224802
    32  N    0.488128
    33  O   -0.460281
    34  O   -0.460677
 Sum of Mulliken charges =  -0.00000

 Dipole moment (field-independent basis, Debye):
    X=             -2.8170    Y=              3.9102    Z=              1.9608  Tot=              5.2028
 Quadrupole moment (field-independent basis, Debye-Ang):
   XX=           -113.7112   YY=            -91.5611   ZZ=            -93.7783
   XY=             15.5699   XZ=              5.6945   YZ=             -1.7174

 Normal termination of Gaussian 16 at Thu May  6 02:35:46 2021.
