 Gaussian 16, Revision A.03,
 Gaussian 16:  EM64L-G16RevA.03 25-Dec-2016

 -------------
 #p 6-31g* mp2
 -------------

 ------------------------------------------------------
 Input file generated by CHIRIPA (05-May-2021 14:57:26)
 ------------------------------------------------------
 Symbolic Z-matrix:
 Charge =  0 Multiplicity = 1

                         Standard orientation:
 ---------------------------------------------------------------------
 Center     Atomic      Atomic             Coordinates (Angstroms)
 Number     Number       Type             X           Y           Z
 ---------------------------------------------------------------------
      1          6           0        3.235198   -2.109758    0.361155
      2          6           0        2.281574   -1.468039    1.158224
      3          6           0        2.030187   -0.101532    1.003268
      4          6           0        2.753954    0.595747    0.037217
      5          6           0        3.710429   -0.015238   -0.772192
      6          6           0        3.945330   -1.382592   -0.599815
      7          1           0        3.424077   -3.171623    0.488294
      8          1           0        1.728574   -2.030249    1.905322
      9          1           0        1.297533    0.420304    1.606859
     10          1           0        4.245856    0.571723   -1.508542
     11          1           0        4.686514   -1.878336   -1.220242
     12          7           0        2.496549    2.042855   -0.136049
     13          8           0        3.147554    2.634765   -0.994228
     14          8           0        1.648663    2.557786    0.589604
     15          6           0       -4.186482    1.733000    0.188011
     16          6           0       -3.449146    1.246722    1.272627
     17          6           0       -2.675426    0.089475    1.143454
     18          6           0       -2.661987   -0.559323   -0.090309
     19          6           0       -3.385727   -0.099654   -1.189488
     20          6           0       -4.152478    1.059447   -1.037424
     21          1           0       -4.784819    2.632698    0.297247
     22          1           0       -3.473663    1.767751    2.225503
     23          1           0       -2.095001   -0.308888    1.966759
     24          1           0       -3.341369   -0.640754   -2.126857
     25          1           0       -4.724096    1.434803   -1.881466
     26          7           0       -1.846573   -1.785430   -0.239175
     27          8           0       -1.851552   -2.338692   -1.336678
     28          8           0       -1.217914   -2.169975    0.744466
 ---------------------------------------------------------------------

 SCF Done:  E(RHF) =  -868.339778759     A.U. after   16 cycles
 E2 =    -0.2599480148D+01 EUMP2 =    -0.87093925890654D+03

 The electronic state is 1-A.
 Alpha  occ. eigenvalues --  -20.61169 -20.61131 -20.60402 -20.60386 -15.86181
 Alpha  occ. eigenvalues --  -15.85437 -11.31280 -11.30532 -11.27849 -11.27790
 Alpha  occ. eigenvalues --  -11.27470 -11.27047 -11.27009 -11.26760 -11.26748
 Alpha  occ. eigenvalues --  -11.26648 -11.26037 -11.25865  -1.60208  -1.59475
 Alpha  occ. eigenvalues --   -1.39777  -1.39038  -1.19412  -1.18640  -1.08853
 Alpha  occ. eigenvalues --   -1.08078  -1.04781  -1.03988  -0.95742  -0.94973
 Alpha  occ. eigenvalues --   -0.86196  -0.85400  -0.82598  -0.81807  -0.77683
 Alpha  occ. eigenvalues --   -0.76901  -0.72430  -0.71667  -0.71507  -0.70791
 Alpha  occ. eigenvalues --   -0.70529  -0.69748  -0.65078  -0.64788  -0.64285
 Alpha  occ. eigenvalues --   -0.63968  -0.62153  -0.61348  -0.55282  -0.54486
 Alpha  occ. eigenvalues --   -0.53104  -0.52882  -0.52337  -0.52068  -0.49193
 Alpha  occ. eigenvalues --   -0.49136  -0.48436  -0.48390  -0.45242  -0.44503
 Alpha  occ. eigenvalues --   -0.37355  -0.36581  -0.36357  -0.35538
 Alpha virt. eigenvalues --    0.04812   0.05618   0.11258   0.12106   0.16371
 Alpha virt. eigenvalues --    0.17238   0.21132   0.22284   0.26585   0.27719
 Alpha virt. eigenvalues --    0.28722   0.29203   0.31173   0.31743   0.32291

 Mulliken charges:
               1
     1  C   -0.170410
     2  C   -0.205128
     3  C   -0.174487
     4  C    0.157782
     5  C   -0.173023
     6  C   -0.217724
     7  H    0.226616
     8  H    0.232598
     9  H    0.267874
    10  H    0.272409
    11  H    0.221380
    12  N    0.488358
    13  O   -0.462146
    14  O   -0.465757
    15  C   -0.168639
    16  C   -0.214763
    17  C   -0.170305
    18  C    0.159347
    19  C   -0.170208
    20  C   -0.217347
    21  H    0.227701
    22  H    0.225260
    23  H    0.268988
    24  H    0.275319
    25  H    0.224655
    26  N    0.490632
    27  O   -0.457892
    28  O   -0.471090
 Sum of Mulliken charges =  -0.00000

 Dipole moment (field-independent basis, Debye):
    X=             -2.2051    Y=             -0.8942    Z=              1.1183  Tot=              2.6292
 Quadrupole moment (field-independent basis, Debye-Ang):
   XX=            -82.6322   YY=           -116.8961   ZZ=            -98.0928
   XY=            -24.4924   XZ=             -0.4290   YZ=             -0.2682

 Normal termination of Gaussian 16 at Thu May  6 08:22:56 2021.
