 Gaussian 16, Revision A.03,
 Gaussian 16:  EM64L-G16RevA.03 25-Dec-2016

 -------------
 #p 6-31g* mp2
 -------------

 ------------------------------------------------------
 Input file generated by CHIRIPA (05-May-2021 14:51:13)
 ------------------------------------------------------
 Symbolic Z-matrix:
 Charge =  0 Multiplicity = 1

                         Standard orientation:
 ---------------------------------------------------------------------
 Center     Atomic      Atomic             Coordinates (Angstroms)
 Number     Number       Type             X           Y           Z
 ---------------------------------------------------------------------
      1          6           0        4.455046   -0.489710    0.279409
      2          6           0        5.629220   -0.136248   -0.634028
      3          6           0        6.866578   -0.993065   -0.364581
      4          1           0        4.764581   -0.370204    1.326716
      5          1           0        4.203157   -1.551047    0.147083
      6          1           0        5.877924    0.924448   -0.501035
      7          1           0        5.316795   -0.256425   -1.679286
      8          1           0        6.641248   -2.053635   -0.516300
      9          1           0        7.205565   -0.866053    0.668645
     10          1           0        7.693833   -0.723624   -1.028593
     11          6           0        3.210699    0.358303    0.022114
     12          6           0        2.036525    0.004841    0.935550
     13          6           0        0.799167    0.861658    0.666104
     14          1           0        3.462588    1.419641    0.154440
     15          1           0        2.901164    0.238797   -1.025193
     16          1           0        2.348950    0.125018    1.980809
     17          1           0        1.787821   -1.055855    0.802558
     18          1           0        0.460180    0.734646   -0.367122
     19          1           0        1.024497    1.922228    0.817823
     20          1           0       -0.028088    0.592217    1.330116
     21          6           0       -3.860746   -0.648410   -0.420384
     22          6           0       -4.820582   -1.552025    0.354328
     23          6           0       -4.865349   -2.977454   -0.196983
     24          1           0       -4.161275   -0.625201   -1.476836
     25          1           0       -2.853008   -1.085482   -0.391616
     26          1           0       -5.825937   -1.112667    0.325277
     27          1           0       -4.517848   -1.572934    1.409094
     28          1           0       -3.873515   -3.438888   -0.152870
     29          1           0       -5.189036   -2.976005   -1.242844
     30          1           0       -5.557646   -3.606232    0.371544
     31          6           0       -3.804999    0.779817    0.118862
     32          6           0       -2.845163    1.683433   -0.655851
     33          6           0       -2.800396    3.108861   -0.104540
     34          1           0       -4.812737    1.216887    0.090093
     35          1           0       -3.504470    0.756608    1.175312
     36          1           0       -3.147897    1.704341   -1.710616
     37          1           0       -1.839808    1.244073   -0.626800
     38          1           0       -2.476709    3.107412    0.941320
     39          1           0       -3.792230    3.570294   -0.148654
     40          1           0       -2.108100    3.737638   -0.673068
 ---------------------------------------------------------------------

 SCF Done:  E(RHF) =  -470.732940377     A.U. after   11 cycles
 E2 =    -0.1582928471D+01 EUMP2 =    -0.47231586884719D+03

 The electronic state is 1-A.
 Alpha  occ. eigenvalues --  -11.21665 -11.21629 -11.21569 -11.21449 -11.21411
 Alpha  occ. eigenvalues --  -11.21388 -11.21342 -11.21274 -11.21163 -11.21092
 Alpha  occ. eigenvalues --  -11.21051 -11.20960  -1.08479  -1.08354  -1.03593
 Alpha  occ. eigenvalues --   -1.03441  -0.96046  -0.95902  -0.87069  -0.86918
 Alpha  occ. eigenvalues --   -0.79700  -0.79475  -0.78297  -0.78159  -0.65126
 Alpha  occ. eigenvalues --   -0.64980  -0.61042  -0.60817  -0.59392  -0.59277
 Alpha  occ. eigenvalues --   -0.57659  -0.57506  -0.55340  -0.55197  -0.52745
 Alpha  occ. eigenvalues --   -0.52598  -0.52464  -0.52327  -0.50081  -0.49781
 Alpha  occ. eigenvalues --   -0.48021  -0.47793  -0.46801  -0.46429  -0.45877
 Alpha  occ. eigenvalues --   -0.45766  -0.45699  -0.45486  -0.43816  -0.43703
 Alpha virt. eigenvalues --    0.21375   0.22973   0.23903   0.24694   0.26030
 Alpha virt. eigenvalues --    0.26639   0.26954   0.27611   0.27996   0.29190
 Alpha virt. eigenvalues --    0.30465   0.31048   0.31633   0.31850   0.32407

 Mulliken charges:
               1
     1  C   -0.298330
     2  C   -0.299694
     3  C   -0.475739
     4  H    0.149745
     5  H    0.149586
     6  H    0.152006
     7  H    0.152027
     8  H    0.155227
     9  H    0.155216
    10  H    0.160368
    11  C   -0.298688
    12  C   -0.299860
    13  C   -0.478703
    14  H    0.149732
    15  H    0.149953
    16  H    0.152129
    17  H    0.151918
    18  H    0.157218
    19  H    0.156657
    20  H    0.160486
    21  C   -0.298457
    22  C   -0.299535
    23  C   -0.475646
    24  H    0.149459
    25  H    0.149285
    26  H    0.151930
    27  H    0.151718
    28  H    0.154966
    29  H    0.155101
    30  H    0.160134
    31  C   -0.297785
    32  C   -0.308786
    33  C   -0.474938
    34  H    0.149113
    35  H    0.148846
    36  H    0.150482
    37  H    0.163699
    38  H    0.155110
    39  H    0.154361
    40  H    0.159689
 Sum of Mulliken charges =  -0.00000

 Dipole moment (field-independent basis, Debye):
    X=              0.0705    Y=              0.0007    Z=              0.0031  Tot=              0.0706
 Quadrupole moment (field-independent basis, Debye-Ang):
   XX=            -85.2548   YY=            -85.7534   ZZ=            -84.0201
   XY=              0.4694   XZ=              0.5810   YZ=              0.0749

 Normal termination of Gaussian 16 at Wed May  5 19:59:17 2021.
