 Gaussian 16, Revision A.03,
 Gaussian 16:  EM64L-G16RevA.03 25-Dec-2016

 -------------
 #p 6-31g* mp2
 -------------

 ------------------------------------------------------
 Input file generated by CHIRIPA (05-May-2021 14:55:19)
 ------------------------------------------------------
 Symbolic Z-matrix:
 Charge =  0 Multiplicity = 1

                         Standard orientation:
 ---------------------------------------------------------------------
 Center     Atomic      Atomic             Coordinates (Angstroms)
 Number     Number       Type             X           Y           Z
 ---------------------------------------------------------------------
      1          6           0        0.007002   -1.044219    0.757422
      2          6           0       -0.745768   -0.210963    1.591414
      3          6           0       -2.067691    0.109762    1.268608
      4          6           0       -2.607631   -0.422680    0.098881
      5          6           0       -1.883249   -1.255671   -0.752404
      6          6           0       -0.563136   -1.562999   -0.409768
      7          1           0        1.033200   -1.288162    1.015888
      8          1           0       -0.305591    0.193368    2.498500
      9          1           0       -2.673068    0.752372    1.896293
     10          1           0       -2.349427   -1.643555   -1.649980
     11          1           0        0.019106   -2.210375   -1.059340
     12          7           0       -4.006133   -0.090234   -0.253356
     13          8           0       -4.458698   -0.572126   -1.289504
     14          8           0       -4.623233    0.645934    0.513378
     15          6           0        2.748142    1.244960    0.107257
     16          6           0        1.836452    2.016232   -0.847702
     17          6           0        1.254748    3.281701   -0.216831
     18          1           0        2.181716    0.979145    1.010280
     19          1           0        3.565927    1.902384    0.433469
     20          1           0        1.021403    1.357120   -1.173099
     21          1           0        2.405060    2.280075   -1.748639
     22          1           0        2.055586    3.961321    0.092000
     23          1           0        0.664067    3.033123    0.670810
     24          1           0        0.606130    3.817578   -0.916824
     25          6           0        3.337338   -0.022634   -0.509008
     26          6           0        4.249028   -0.793906    0.445951
     27          6           0        4.830732   -2.059376   -0.184920
     28          1           0        2.519552   -0.680059   -0.835220
     29          1           0        3.903764    0.243181   -1.412030
     30          1           0        3.680419   -1.057749    1.346888
     31          1           0        5.064076   -0.134795    0.771348
     32          1           0        5.421413   -1.810798   -1.072561
     33          1           0        4.029894   -2.738996   -0.493751
     34          1           0        5.479350   -2.595253    0.515073
 ---------------------------------------------------------------------

 SCF Done:  E(RHF) =  -669.534166130     A.U. after   15 cycles
 E2 =    -0.2095354314D+01 EUMP2 =    -0.67162952044384D+03

 The electronic state is 1-A.
 Alpha  occ. eigenvalues --  -20.60815 -20.60810 -15.85872 -11.31263 -11.27867
 Alpha  occ. eigenvalues --  -11.27861 -11.27566 -11.26866 -11.26855 -11.22710
 Alpha  occ. eigenvalues --  -11.22380 -11.22194 -11.22053 -11.22049 -11.21464
 Alpha  occ. eigenvalues --   -1.59891  -1.39443  -1.19462  -1.09359  -1.08810
 Alpha  occ. eigenvalues --   -1.04870  -1.04297  -0.96765  -0.95668  -0.87769
 Alpha  occ. eigenvalues --   -0.86267  -0.82508  -0.80393  -0.79098  -0.77543
 Alpha  occ. eigenvalues --   -0.72090  -0.71215  -0.70694  -0.66002  -0.65115
 Alpha  occ. eigenvalues --   -0.64795  -0.62223  -0.61717  -0.60129  -0.58350
 Alpha  occ. eigenvalues --   -0.56205  -0.55179  -0.53425  -0.53168  -0.53147
 Alpha  occ. eigenvalues --   -0.52953  -0.50718  -0.48851  -0.48843  -0.48686
 Alpha  occ. eigenvalues --   -0.47468  -0.46623  -0.46557  -0.44843  -0.44571
 Alpha  occ. eigenvalues --   -0.37359  -0.36457
 Alpha virt. eigenvalues --    0.04976   0.10983   0.16382   0.18769   0.22983
 Alpha virt. eigenvalues --    0.23480   0.24610   0.25934   0.27079   0.28205
 Alpha virt. eigenvalues --    0.29558   0.30088   0.30957   0.31499   0.31648

 Mulliken charges:
               1
     1  C   -0.169917
     2  C   -0.220803
     3  C   -0.170536
     4  C    0.157979
     5  C   -0.170470
     6  C   -0.222966
     7  H    0.234795
     8  H    0.224102
     9  H    0.276244
    10  H    0.276237
    11  H    0.224205
    12  N    0.488140
    13  O   -0.460247
    14  O   -0.460129
    15  C   -0.297322
    16  C   -0.302440
    17  C   -0.475839
    18  H    0.140507
    19  H    0.152997
    20  H    0.158239
    21  H    0.152836
    22  H    0.154889
    23  H    0.152748
    24  H    0.164333
    25  C   -0.304755
    26  C   -0.302776
    27  C   -0.474803
    28  H    0.142822
    29  H    0.156495
    30  H    0.143589
    31  H    0.158181
    32  H    0.159633
    33  H    0.150262
    34  H    0.163772
 Sum of Mulliken charges =  -0.00000

 Dipole moment (field-independent basis, Debye):
    X=              4.9780    Y=             -1.1184    Z=              1.1636  Tot=              5.2331
 Quadrupole moment (field-independent basis, Debye-Ang):
   XX=           -120.0718   YY=            -93.2567   ZZ=            -91.3372
   XY=              1.6649   XZ=             -3.4586   YZ=              1.4736

 Normal termination of Gaussian 16 at Wed May  5 15:50:09 2021.
