 Gaussian 16, Revision A.03,
 Gaussian 16:  EM64L-G16RevA.03 25-Dec-2016

 -------------
 #p 6-31g* mp2
 -------------

 ------------------------------------------------------
 Input file generated by CHIRIPA (05-May-2021 14:55:20)
 ------------------------------------------------------
 Symbolic Z-matrix:
 Charge =  0 Multiplicity = 1

                         Standard orientation:
 ---------------------------------------------------------------------
 Center     Atomic      Atomic             Coordinates (Angstroms)
 Number     Number       Type             X           Y           Z
 ---------------------------------------------------------------------
      1          6           0        0.113266   -2.388783    0.239580
      2          6           0        0.931048   -2.348233   -0.894488
      3          6           0        1.991413   -1.440494   -0.973121
      4          6           0        2.206347   -0.583976    0.105522
      5          6           0        1.409159   -0.600184    1.248989
      6          6           0        0.354506   -1.516167    1.305819
      7          1           0       -0.708233   -3.097139    0.292195
      8          1           0        0.746048   -3.024725   -1.724053
      9          1           0        2.640031   -1.387754   -1.839107
     10          1           0        1.618349    0.086740    2.060034
     11          1           0       -0.278967   -1.545422    2.187806
     12          7           0        3.325885    0.381370    0.033817
     13          8           0        3.494327    1.125357    0.997533
     14          8           0        4.013738    0.375743   -0.984742
     15          6           0       -3.286258    0.756299    0.090288
     16          6           0       -3.725869   -0.629560   -0.383129
     17          6           0       -5.124974   -1.005079    0.106039
     18          1           0       -3.313001    0.787310    1.188135
     19          1           0       -4.011378    1.503297   -0.261262
     20          1           0       -2.999393   -1.373557   -0.031963
     21          1           0       -3.697893   -0.657336   -1.479971
     22          1           0       -5.865855   -0.284955   -0.256064
     23          1           0       -5.163387   -1.005245    1.200172
     24          1           0       -5.419161   -1.999489   -0.243910
     25          6           0       -1.889637    1.145979   -0.390677
     26          6           0       -1.450026    2.531837    0.082740
     27          6           0       -0.050921    2.907356   -0.406428
     28          1           0       -1.164517    0.398980   -0.039127
     29          1           0       -1.862894    1.114968   -1.488524
     30          1           0       -1.478003    2.559613    1.179582
     31          1           0       -2.176502    3.275834   -0.268426
     32          1           0       -0.012509    2.907523   -1.500560
     33          1           0        0.689960    2.187233   -0.044326
     34          1           0        0.243265    3.901766   -0.056480
 ---------------------------------------------------------------------

 SCF Done:  E(RHF) =  -669.534259298     A.U. after   15 cycles
 E2 =    -0.2095939663D+01 EUMP2 =    -0.67163019896107D+03

 The electronic state is 1-A.
 Alpha  occ. eigenvalues --  -20.60904 -20.60895 -15.85937 -11.31341 -11.27897
 Alpha  occ. eigenvalues --  -11.27890 -11.27634 -11.26916 -11.26905 -11.22156
 Alpha  occ. eigenvalues --  -11.21698 -11.21602 -11.21566 -11.21306 -11.20819
 Alpha  occ. eigenvalues --   -1.59964  -1.39517  -1.19527  -1.08917  -1.08641
 Alpha  occ. eigenvalues --   -1.04927  -1.03735  -0.96151  -0.95731  -0.87168
 Alpha  occ. eigenvalues --   -0.86315  -0.82559  -0.79836  -0.78435  -0.77603
 Alpha  occ. eigenvalues --   -0.72158  -0.71292  -0.70613  -0.65344  -0.65161
 Alpha  occ. eigenvalues --   -0.64905  -0.62259  -0.61163  -0.59558  -0.57763
 Alpha  occ. eigenvalues --   -0.55464  -0.55410  -0.53390  -0.53001  -0.52827
 Alpha  occ. eigenvalues --   -0.52556  -0.50119  -0.48922  -0.48914  -0.48139
 Alpha  occ. eigenvalues --   -0.46920  -0.45951  -0.45816  -0.44859  -0.43951
 Alpha  occ. eigenvalues --   -0.37430  -0.36442
 Alpha virt. eigenvalues --    0.04886   0.10993   0.16289   0.20408   0.23039
 Alpha virt. eigenvalues --    0.23914   0.26053   0.26646   0.27397   0.27644
 Alpha virt. eigenvalues --    0.28684   0.30769   0.31099   0.31457   0.31890

 Mulliken charges:
               1
     1  C   -0.167524
     2  C   -0.217444
     3  C   -0.170538
     4  C    0.160686
     5  C   -0.172860
     6  C   -0.222769
     7  H    0.227183
     8  H    0.224609
     9  H    0.276430
    10  H    0.276456
    11  H    0.224730
    12  N    0.489776
    13  O   -0.459404
    14  O   -0.458716
    15  C   -0.297187
    16  C   -0.299195
    17  C   -0.475567
    18  H    0.145714
    19  H    0.151272
    20  H    0.141674
    21  H    0.153212
    22  H    0.158330
    23  H    0.154028
    24  H    0.158577
    25  C   -0.309056
    26  C   -0.299339
    27  C   -0.476970
    28  H    0.161866
    29  H    0.148140
    30  H    0.147932
    31  H    0.151572
    32  H    0.155133
    33  H    0.155098
    34  H    0.164152
 Sum of Mulliken charges =  -0.00000

 Dipole moment (field-independent basis, Debye):
    X=             -3.7631    Y=             -3.4310    Z=              0.2059  Tot=              5.0966
 Quadrupole moment (field-independent basis, Debye-Ang):
   XX=           -113.5801   YY=            -90.7008   ZZ=            -90.0446
   XY=             -6.3135   XZ=             -0.4492   YZ=              1.0714

 Normal termination of Gaussian 16 at Thu May  6 10:50:30 2021.
