 Gaussian 16, Revision A.03,
 Gaussian 16:  EM64L-G16RevA.03 25-Dec-2016

 -------------
 #p 6-31g* mp2
 -------------

 ------------------------------------------------------
 Input file generated by CHIRIPA (05-May-2021 14:51:09)
 ------------------------------------------------------
 Symbolic Z-matrix:
 Charge =  0 Multiplicity = 1

                         Standard orientation:
 ---------------------------------------------------------------------
 Center     Atomic      Atomic             Coordinates (Angstroms)
 Number     Number       Type             X           Y           Z
 ---------------------------------------------------------------------
      1          6           0        3.783795    0.706911   -0.375161
      2          6           0        4.503393    1.192931    0.883389
      3          6           0        5.100581    2.590982    0.720251
      4          1           0        4.489182    0.709882   -1.217399
      5          1           0        2.987427    1.419143   -0.631906
      6          1           0        5.297269    0.479273    1.138476
      7          1           0        3.796261    1.188621    1.722771
      8          1           0        4.317214    3.319899    0.488697
      9          1           0        5.826750    2.606520   -0.098918
     10          1           0        5.610244    2.918695    1.631683
     11          6           0        3.181446   -0.689204   -0.227631
     12          6           0        2.461848   -1.175225   -1.486181
     13          6           0        1.864660   -2.573276   -1.323043
     14          1           0        3.977814   -1.401436    0.029115
     15          1           0        2.476059   -0.692175    0.614608
     16          1           0        3.168980   -1.170914   -2.325562
     17          1           0        1.667972   -0.461566   -1.741267
     18          1           0        1.138491   -2.588814   -0.503873
     19          1           0        2.648027   -3.302192   -1.091488
     20          1           0        1.354997   -2.900988   -2.234475
     21          6           0       -3.124794   -0.680637    0.237373
     22          6           0       -2.426856   -1.121001    1.524598
     23          6           0       -1.715490   -2.466753    1.380713
     24          1           0       -3.849878   -1.450245   -0.060792
     25          1           0       -2.383240   -0.619839   -0.571203
     26          1           0       -3.169265   -1.179613    2.330830
     27          1           0       -1.703487   -0.350166    1.819837
     28          1           0       -0.954156   -2.418043    0.595475
     29          1           0       -2.428262   -3.252203    1.109372
     30          1           0       -1.223362   -2.762368    2.312529
     31          6           0       -3.840447    0.662931    0.365419
     32          6           0       -4.538385    1.103294   -0.921806
     33          6           0       -5.249751    2.449047   -0.777922
     34          1           0       -4.582002    0.602133    1.173994
     35          1           0       -3.115363    1.432539    0.663583
     36          1           0       -5.261754    0.332460   -1.217045
     37          1           0       -3.795976    1.161906   -1.728039
     38          1           0       -4.536979    3.234497   -0.506581
     39          1           0       -6.011086    2.400337    0.007316
     40          1           0       -5.741879    2.744661   -1.709738
 ---------------------------------------------------------------------

 SCF Done:  E(RHF) =  -470.733334473     A.U. after   11 cycles
 E2 =    -0.1582442544D+01 EUMP2 =    -0.47231577701689D+03

 The electronic state is 1-A.
 Alpha  occ. eigenvalues --  -11.21636 -11.21630 -11.21621 -11.21619 -11.21431
 Alpha  occ. eigenvalues --  -11.21427 -11.21371 -11.21368 -11.21088 -11.21088
 Alpha  occ. eigenvalues --  -11.21087 -11.21074  -1.08459  -1.08450  -1.03568
 Alpha  occ. eigenvalues --   -1.03538  -0.96029  -0.95976  -0.87058  -0.86980
 Alpha  occ. eigenvalues --   -0.79655  -0.79576  -0.78275  -0.78256  -0.65134
 Alpha  occ. eigenvalues --   -0.65044  -0.61087  -0.60838  -0.59371  -0.59364
 Alpha  occ. eigenvalues --   -0.57663  -0.57569  -0.55486  -0.55121  -0.52702
 Alpha  occ. eigenvalues --   -0.52691  -0.52516  -0.52337  -0.50154  -0.49744
 Alpha  occ. eigenvalues --   -0.48012  -0.47849  -0.46767  -0.46507  -0.45846
 Alpha  occ. eigenvalues --   -0.45782  -0.45743  -0.45671  -0.43810  -0.43805
 Alpha virt. eigenvalues --    0.21214   0.23195   0.23549   0.24964   0.26055
 Alpha virt. eigenvalues --    0.26873   0.27057   0.27373   0.27867   0.28826
 Alpha virt. eigenvalues --    0.30337   0.31666   0.31714   0.31878   0.31951

 Mulliken charges:
               1
     1  C   -0.298280
     2  C   -0.299675
     3  C   -0.475707
     4  H    0.149762
     5  H    0.149238
     6  H    0.152056
     7  H    0.151926
     8  H    0.155097
     9  H    0.155233
    10  H    0.160339
    11  C   -0.298454
    12  C   -0.299269
    13  C   -0.483452
    14  H    0.149807
    15  H    0.149650
    16  H    0.152200
    17  H    0.151082
    18  H    0.162226
    19  H    0.155781
    20  H    0.160380
    21  C   -0.298410
    22  C   -0.299173
    23  C   -0.483501
    24  H    0.149938
    25  H    0.149468
    26  H    0.152179
    27  H    0.151267
    28  H    0.161994
    29  H    0.155891
    30  H    0.160360
    31  C   -0.298304
    32  C   -0.299676
    33  C   -0.475713
    34  H    0.149648
    35  H    0.149415
    36  H    0.152070
    37  H    0.151905
    38  H    0.155118
    39  H    0.155238
    40  H    0.160346
 Sum of Mulliken charges =  -0.00000

 Dipole moment (field-independent basis, Debye):
    X=             -0.0018    Y=             -0.0136    Z=              0.0010  Tot=              0.0137
 Quadrupole moment (field-independent basis, Debye-Ang):
   XX=            -83.7400   YY=            -86.2813   ZZ=            -84.6212
   XY=              0.1072   XZ=             -0.5971   YZ=              0.0097

 Normal termination of Gaussian 16 at Thu May  6 00:33:10 2021.
