 Gaussian 16, Revision A.03,
 Gaussian 16:  EM64L-G16RevA.03 25-Dec-2016

 -------------
 #p 6-31g* mp2
 -------------

 ------------------------------------------------------
 Input file generated by CHIRIPA (05-May-2021 14:57:21)
 ------------------------------------------------------
 Symbolic Z-matrix:
 Charge =  0 Multiplicity = 1

                         Standard orientation:
 ---------------------------------------------------------------------
 Center     Atomic      Atomic             Coordinates (Angstroms)
 Number     Number       Type             X           Y           Z
 ---------------------------------------------------------------------
      1          6           0        1.558254   -0.010882    0.476982
      2          6           0        2.043268   -0.450014   -0.759321
      3          6           0        3.417913   -0.481648   -1.012105
      4          6           0        4.283034   -0.065150   -0.001469
      5          6           0        3.830571    0.377590    1.240525
      6          6           0        2.451877    0.400792    1.471206
      7          1           0        0.488824    0.010417    0.664766
      8          1           0        1.351601   -0.770312   -1.533304
      9          1           0        3.820545   -0.817002   -1.960178
     10          1           0        4.544636    0.690703    1.992515
     11          1           0        2.078054    0.742311    2.432282
     12          7           0        5.740452   -0.094176   -0.257381
     13          8           0        6.481875    0.277972    0.649501
     14          8           0        6.113756   -0.488526   -1.360000
     15          6           0       -3.468573    2.501699   -0.316467
     16          6           0       -4.801800    2.084143   -0.384848
     17          6           0       -5.131621    0.734011   -0.233490
     18          6           0       -4.098352   -0.175654   -0.014049
     19          6           0       -2.760548    0.209333    0.059156
     20          6           0       -2.453991    1.564612   -0.095073
     21          1           0       -3.221396    3.552513   -0.435161
     22          1           0       -5.591810    2.809679   -0.556679
     23          1           0       -6.155398    0.383369   -0.281950
     24          1           0       -1.994873   -0.537285    0.231555
     25          1           0       -1.417714    1.886022   -0.041499
     26          7           0       -4.435204   -1.607702    0.147707
     27          8           0       -3.506448   -2.389389    0.340098
     28          8           0       -5.621608   -1.921340    0.079037
 ---------------------------------------------------------------------

 SCF Done:  E(RHF) =  -868.336657015     A.U. after   16 cycles
 E2 =    -0.2600091968D+01 EUMP2 =    -0.87093674898289D+03

 The electronic state is 1-A.
 Alpha  occ. eigenvalues --  -20.61522 -20.61506 -20.61078 -20.61073 -15.86575
 Alpha  occ. eigenvalues --  -15.86133 -11.32059 -11.31621 -11.28753 -11.28561
 Alpha  occ. eigenvalues --  -11.28333 -11.28172 -11.28161 -11.28084 -11.27725
 Alpha  occ. eigenvalues --  -11.27577 -11.27276 -11.27260  -1.60589  -1.60150
 Alpha  occ. eigenvalues --   -1.40141  -1.39700  -1.20226  -1.19804  -1.09581
 Alpha  occ. eigenvalues --   -1.09209  -1.05670  -1.05209  -0.96410  -0.96022
 Alpha  occ. eigenvalues --   -0.87042  -0.86617  -0.83267  -0.82830  -0.78306
 Alpha  occ. eigenvalues --   -0.77835  -0.72789  -0.72351  -0.71914  -0.71472
 Alpha  occ. eigenvalues --   -0.71393  -0.70943  -0.65882  -0.65667  -0.65466
 Alpha  occ. eigenvalues --   -0.65218  -0.63035  -0.62539  -0.56165  -0.55747
 Alpha  occ. eigenvalues --   -0.53956  -0.53780  -0.53529  -0.53306  -0.49556
 Alpha  occ. eigenvalues --   -0.49538  -0.49120  -0.49097  -0.45522  -0.45077
 Alpha  occ. eigenvalues --   -0.38169  -0.37837  -0.37271  -0.36794
 Alpha virt. eigenvalues --    0.04262   0.04649   0.10396   0.10847   0.15741
 Alpha virt. eigenvalues --    0.16001   0.17825   0.21988   0.24677   0.26801
 Alpha virt. eigenvalues --    0.27236   0.29693   0.29901   0.30904   0.32132

 Mulliken charges:
               1
     1  C   -0.177446
     2  C   -0.219040
     3  C   -0.170310
     4  C    0.159581
     5  C   -0.170370
     6  C   -0.219187
     7  H    0.221903
     8  H    0.225553
     9  H    0.277807
    10  H    0.277155
    11  H    0.225073
    12  N    0.487828
    13  O   -0.459162
    14  O   -0.458758
    15  C   -0.170214
    16  C   -0.217911
    17  C   -0.169705
    18  C    0.161742
    19  C   -0.178737
    20  C   -0.220357
    21  H    0.228876
    22  H    0.226962
    23  H    0.278432
    24  H    0.269855
    25  H    0.220466
    26  N    0.488415
    27  O   -0.461588
    28  O   -0.456862
 Sum of Mulliken charges =  -0.00000

 Dipole moment (field-independent basis, Debye):
    X=             -4.0228    Y=              5.1922    Z=              0.2765  Tot=              6.5741
 Quadrupole moment (field-independent basis, Debye-Ang):
   XX=           -152.0533   YY=           -106.7906   ZZ=           -101.3400
   XY=            -21.5258   XZ=              7.8983   YZ=              1.6965

 Normal termination of Gaussian 16 at Thu May  6 00:06:01 2021.
