 Gaussian 16, Revision A.03,
 Gaussian 16:  EM64L-G16RevA.03 25-Dec-2016

 -------------
 #p 6-31g* mp2
 -------------

 ------------------------------------------------------
 Input file generated by CHIRIPA (05-May-2021 14:51:10)
 ------------------------------------------------------
 Symbolic Z-matrix:
 Charge =  0 Multiplicity = 1

                         Standard orientation:
 ---------------------------------------------------------------------
 Center     Atomic      Atomic             Coordinates (Angstroms)
 Number     Number       Type             X           Y           Z
 ---------------------------------------------------------------------
      1          6           0        4.557738   -0.503044   -0.221585
      2          6           0        5.916404    0.015828    0.250416
      3          6           0        7.087277   -0.768018   -0.343248
      4          1           0        4.464179   -1.564205    0.046980
      5          1           0        4.514944   -0.453270   -1.318438
      6          1           0        5.956100   -0.033616    1.346133
      7          1           0        6.006662    1.075928   -0.019135
      8          1           0        7.075759   -0.708757   -1.436388
      9          1           0        7.024909   -1.824605   -0.063363
     10          1           0        8.048846   -0.380356    0.007413
     11          6           0        3.377357    0.270462    0.363322
     12          6           0        2.018692   -0.248410   -0.108679
     13          6           0        0.847819    0.535435    0.484985
     14          1           0        3.420151    0.220688    1.460175
     15          1           0        3.470917    1.331623    0.094757
     16          1           0        1.928434   -1.308510    0.160872
     17          1           0        1.978996   -0.198967   -1.204396
     18          1           0        0.910186    1.592022    0.205100
     19          1           0        0.859337    0.476174    1.578125
     20          1           0       -0.113751    0.147774    0.134324
     21          6           0       -3.417255    0.608806   -0.265904
     22          6           0       -3.737693    2.055957    0.109675
     23          6           0       -2.627309    3.029368   -0.286949
     24          1           0       -2.476669    0.310942    0.217335
     25          1           0       -3.244894    0.548097   -1.349417
     26          1           0       -3.910760    2.113670    1.191957
     27          1           0       -4.677725    2.350350   -0.374359
     28          1           0       -2.458482    3.001289   -1.368295
     29          1           0       -1.687158    2.763265    0.206921
     30          1           0       -2.877115    4.058106   -0.009180
     31          6           0       -4.517840   -0.376224    0.124167
     32          6           0       -4.197402   -1.823374   -0.251413
     33          6           0       -5.307787   -2.796786    0.145212
     34          1           0       -4.690202   -0.315514    1.207680
     35          1           0       -5.458426   -0.078360   -0.359072
     36          1           0       -3.257370   -2.117767    0.232623
     37          1           0       -4.024336   -1.881087   -1.333694
     38          1           0       -6.247937   -2.530682   -0.348657
     39          1           0       -5.476614   -2.768707    1.226559
     40          1           0       -5.057981   -3.825523   -0.132557
 ---------------------------------------------------------------------

 SCF Done:  E(RHF) =  -470.733141902     A.U. after   11 cycles
 E2 =    -0.1582877710D+01 EUMP2 =    -0.47231601961272D+03

 The electronic state is 1-A.
 Alpha  occ. eigenvalues --  -11.21615 -11.21605 -11.21595 -11.21553 -11.21411
 Alpha  occ. eigenvalues --  -11.21373 -11.21351 -11.21309 -11.21077 -11.21073
 Alpha  occ. eigenvalues --  -11.21064 -11.20983  -1.08440  -1.08400  -1.03547
 Alpha  occ. eigenvalues --   -1.03488  -0.95994  -0.95943  -0.87016  -0.86960
 Alpha  occ. eigenvalues --   -0.79650  -0.79521  -0.78264  -0.78205  -0.65069
 Alpha  occ. eigenvalues --   -0.65041  -0.60957  -0.60880  -0.59436  -0.59246
 Alpha  occ. eigenvalues --   -0.57665  -0.57504  -0.55330  -0.55182  -0.52757
 Alpha  occ. eigenvalues --   -0.52622  -0.52503  -0.52271  -0.49995  -0.49821
 Alpha  occ. eigenvalues --   -0.47920  -0.47872  -0.46664  -0.46559  -0.45794
 Alpha  occ. eigenvalues --   -0.45765  -0.45710  -0.45689  -0.43762  -0.43693
 Alpha virt. eigenvalues --    0.21862   0.23003   0.23671   0.24574   0.25906
 Alpha virt. eigenvalues --    0.26441   0.26967   0.27108   0.27855   0.29056
 Alpha virt. eigenvalues --    0.30345   0.31279   0.31592   0.31826   0.32115

 Mulliken charges:
               1
     1  C   -0.298229
     2  C   -0.299629
     3  C   -0.475705
     4  H    0.149622
     5  H    0.149600
     6  H    0.151897
     7  H    0.151998
     8  H    0.155211
     9  H    0.155166
    10  H    0.160268
    11  C   -0.298776
    12  C   -0.299315
    13  C   -0.484040
    14  H    0.149409
    15  H    0.149826
    16  H    0.151822
    17  H    0.152359
    18  H    0.156627
    19  H    0.154498
    20  H    0.167533
    21  C   -0.306125
    22  C   -0.298875
    23  C   -0.479856
    24  H    0.157384
    25  H    0.148913
    26  H    0.151700
    27  H    0.151628
    28  H    0.154481
    29  H    0.160846
    30  H    0.159619
    31  C   -0.297504
    32  C   -0.299736
    33  C   -0.475655
    34  H    0.149453
    35  H    0.149631
    36  H    0.151502
    37  H    0.151846
    38  H    0.155225
    39  H    0.155199
    40  H    0.160183
 Sum of Mulliken charges =  -0.00000

 Dipole moment (field-independent basis, Debye):
    X=              0.0201    Y=             -0.0025    Z=              0.0022  Tot=              0.0204
 Quadrupole moment (field-independent basis, Debye-Ang):
   XX=            -86.1134   YY=            -85.3084   ZZ=            -83.4909
   XY=             -0.1471   XZ=              0.8299   YZ=             -0.6164

 Normal termination of Gaussian 16 at Wed May  5 23:01:23 2021.
