 Gaussian 16, Revision A.03,
 Gaussian 16:  EM64L-G16RevA.03 25-Dec-2016

 -------------
 #p 6-31g* mp2
 -------------

 ------------------------------------------------------
 Input file generated by CHIRIPA (05-May-2021 14:55:26)
 ------------------------------------------------------
 Symbolic Z-matrix:
 Charge =  0 Multiplicity = 1

                         Standard orientation:
 ---------------------------------------------------------------------
 Center     Atomic      Atomic             Coordinates (Angstroms)
 Number     Number       Type             X           Y           Z
 ---------------------------------------------------------------------
      1          6           0        3.907310    1.679295   -0.198749
      2          6           0        4.535079    0.430756   -0.138933
      3          6           0        3.778419   -0.740058   -0.033057
      4          6           0        2.389846   -0.624991    0.010671
      5          6           0        1.735051    0.604327   -0.046867
      6          6           0        2.511760    1.761950   -0.152607
      7          1           0        4.502889    2.583687   -0.280943
      8          1           0        5.618711    0.363539   -0.174560
      9          1           0        4.238535   -1.719545    0.015068
     10          1           0        0.653033    0.639449   -0.009165
     11          1           0        2.021513    2.730228   -0.198872
     12          7           0        1.578191   -1.857497    0.122685
     13          8           0        0.356376   -1.729205    0.159363
     14          8           0        2.179201   -2.928489    0.171682
     15          6           0       -3.713262    0.050431   -0.322371
     16          6           0       -3.697149   -1.341320    0.310680
     17          6           0       -4.668700   -2.309419   -0.365093
     18          1           0       -4.732572    0.457200   -0.272479
     19          1           0       -3.463290   -0.036558   -1.388834
     20          1           0       -3.945723   -1.251577    1.375938
     21          1           0       -2.677719   -1.744745    0.259447
     22          1           0       -4.419427   -2.428521   -1.424469
     23          1           0       -5.694636   -1.932550   -0.301635
     24          1           0       -4.640935   -3.298244    0.103217
     25          6           0       -2.747195    1.029530    0.342315
     26          6           0       -2.763307    2.421281   -0.290738
     27          6           0       -1.791757    3.389379    0.385036
     28          1           0       -2.997167    1.116518    1.408777
     29          1           0       -1.727884    0.622761    0.292423
     30          1           0       -3.782738    2.824705   -0.239505
     31          1           0       -2.514734    2.331537   -1.355995
     32          1           0       -0.765821    3.012511    0.321579
     33          1           0       -2.041029    3.508482    1.444413
     34          1           0       -1.819523    4.378204   -0.083274
 ---------------------------------------------------------------------

 SCF Done:  E(RHF) =  -669.535790978     A.U. after   15 cycles
 E2 =    -0.2092963470D+01 EUMP2 =    -0.67162875444812D+03

 The electronic state is 1-A.
 Alpha  occ. eigenvalues --  -20.60926 -20.60920 -15.85967 -11.31256 -11.27818
 Alpha  occ. eigenvalues --  -11.27800 -11.27549 -11.26821 -11.26802 -11.21752
 Alpha  occ. eigenvalues --  -11.21624 -11.21207 -11.20894 -11.20629 -11.20288
 Alpha  occ. eigenvalues --   -1.59988  -1.39546  -1.19423  -1.08831  -1.08138
 Alpha  occ. eigenvalues --   -1.04818  -1.03241  -0.95752  -0.95680  -0.86782
 Alpha  occ. eigenvalues --   -0.86219  -0.82518  -0.79365  -0.77888  -0.77506
 Alpha  occ. eigenvalues --   -0.72193  -0.71302  -0.70544  -0.65084  -0.64921
 Alpha  occ. eigenvalues --   -0.64698  -0.62186  -0.60610  -0.59191  -0.57303
 Alpha  occ. eigenvalues --   -0.55324  -0.55083  -0.53148  -0.52927  -0.52465
 Alpha  occ. eigenvalues --   -0.52156  -0.49744  -0.48953  -0.48938  -0.47645
 Alpha  occ. eigenvalues --   -0.46376  -0.45379  -0.45175  -0.44962  -0.43475
 Alpha  occ. eigenvalues --   -0.37400  -0.36414
 Alpha virt. eigenvalues --    0.04960   0.11239   0.16462   0.18978   0.23224
 Alpha virt. eigenvalues --    0.24136   0.25769   0.26150   0.27480   0.28334
 Alpha virt. eigenvalues --    0.29511   0.31019   0.31630   0.31942   0.32423

 Mulliken charges:
               1
     1  C   -0.169937
     2  C   -0.219348
     3  C   -0.168981
     4  C    0.154268
     5  C   -0.177849
     6  C   -0.226397
     7  H    0.226138
     8  H    0.223711
     9  H    0.275764
    10  H    0.292531
    11  H    0.227071
    12  N    0.492638
    13  O   -0.469420
    14  O   -0.458848
    15  C   -0.295865
    16  C   -0.310243
    17  C   -0.475260
    18  H    0.146459
    19  H    0.148999
    20  H    0.148042
    21  H    0.179655
    22  H    0.154683
    23  H    0.150155
    24  H    0.161651
    25  C   -0.310736
    26  C   -0.300311
    27  C   -0.476039
    28  H    0.150301
    29  H    0.160193
    30  H    0.154480
    31  H    0.151235
    32  H    0.141034
    33  H    0.159427
    34  H    0.160800
 Sum of Mulliken charges =  -0.00000

 Dipole moment (field-independent basis, Debye):
    X=              2.9221    Y=              4.1871    Z=             -0.3705  Tot=              5.1193
 Quadrupole moment (field-independent basis, Debye-Ang):
   XX=            -77.8463   YY=            -99.7273   ZZ=            -95.4490
   XY=              5.3964   XZ=             -1.7317   YZ=              0.1448

 Normal termination of Gaussian 16 at Thu May  6 06:26:35 2021.
