 Gaussian 16, Revision A.03,
 Gaussian 16:  EM64L-G16RevA.03 25-Dec-2016

 -------------
 #p 6-31g* mp2
 -------------

 ------------------------------------------------------
 Input file generated by CHIRIPA (05-May-2021 14:51:10)
 ------------------------------------------------------
 Symbolic Z-matrix:
 Charge =  0 Multiplicity = 1

                         Standard orientation:
 ---------------------------------------------------------------------
 Center     Atomic      Atomic             Coordinates (Angstroms)
 Number     Number       Type             X           Y           Z
 ---------------------------------------------------------------------
      1          6           0       -3.879584    0.736503    0.294351
      2          6           0       -3.709803    2.120026   -0.334158
      3          6           0       -4.417086    3.220025    0.458021
      4          1           0       -4.950680    0.504423    0.370752
      5          1           0       -3.490337    0.757877    1.321689
      6          1           0       -4.097992    2.095679   -1.360478
      7          1           0       -2.638982    2.348760   -0.409248
      8          1           0       -4.024050    3.273336    1.478454
      9          1           0       -5.491351    3.018817    0.521819
     10          1           0       -4.282753    4.200720   -0.008941
     11          6           0       -3.178142   -0.373681   -0.486160
     12          6           0       -3.347924   -1.757204    0.142348
     13          6           0       -2.640641   -2.857203   -0.649831
     14          1           0       -3.567389   -0.395055   -1.513499
     15          1           0       -2.107046   -0.141601   -0.562562
     16          1           0       -4.418745   -1.985937    0.217438
     17          1           0       -2.959734   -1.732857    1.168668
     18          1           0       -1.566376   -2.655995   -0.713629
     19          1           0       -3.033676   -2.910514   -1.670263
     20          1           0       -2.774974   -3.837897   -0.182869
     21          6           0        3.099423   -0.749767   -0.179748
     22          6           0        2.339774   -1.516117    0.903593
     23          6           0        1.485119   -2.650046    0.336527
     24          1           0        2.380811   -0.342292   -0.903976
     25          1           0        3.739098   -1.450182   -0.734391
     26          1           0        1.702765   -0.814223    1.456928
     27          1           0        3.060264   -1.921652    1.625431
     28          1           0        2.109654   -3.372453   -0.198902
     29          1           0        0.744441   -2.258731   -0.368362
     30          1           0        0.950813   -3.184553    1.128158
     31          6           0        3.958304    0.386945    0.371557
     32          6           0        4.717953    1.153294   -0.711783
     33          6           0        5.572608    2.287224   -0.144717
     34          1           0        3.318629    1.087360    0.926202
     35          1           0        4.676916   -0.020529    1.095785
     36          1           0        3.997462    1.558830   -1.433621
     37          1           0        5.354963    0.451400   -1.265118
     38          1           0        6.313286    1.895909    0.560172
     39          1           0        4.948072    3.009631    0.390712
     40          1           0        6.106914    2.821731   -0.936348
 ---------------------------------------------------------------------

 SCF Done:  E(RHF) =  -470.733209564     A.U. after   11 cycles
 E2 =    -0.1582470226D+01 EUMP2 =    -0.47231567979025D+03

 The electronic state is 1-A.
 Alpha  occ. eigenvalues --  -11.21649 -11.21625 -11.21617 -11.21572 -11.21442
 Alpha  occ. eigenvalues --  -11.21412 -11.21382 -11.21353 -11.21115 -11.21090
 Alpha  occ. eigenvalues --  -11.21084 -11.20978  -1.08468  -1.08428  -1.03574
 Alpha  occ. eigenvalues --   -1.03510  -0.96037  -0.95946  -0.87069  -0.86948
 Alpha  occ. eigenvalues --   -0.79662  -0.79549  -0.78283  -0.78239  -0.65131
 Alpha  occ. eigenvalues --   -0.65033  -0.61083  -0.60817  -0.59384  -0.59331
 Alpha  occ. eigenvalues --   -0.57658  -0.57553  -0.55492  -0.55095  -0.52728
 Alpha  occ. eigenvalues --   -0.52644  -0.52508  -0.52320  -0.50149  -0.49721
 Alpha  occ. eigenvalues --   -0.48010  -0.47834  -0.46769  -0.46487  -0.45857
 Alpha  occ. eigenvalues --   -0.45770  -0.45742  -0.45645  -0.43819  -0.43773
 Alpha virt. eigenvalues --    0.21356   0.23148   0.23578   0.25008   0.25927
 Alpha virt. eigenvalues --    0.26851   0.27084   0.27544   0.27756   0.28983
 Alpha virt. eigenvalues --    0.30229   0.31585   0.31771   0.31859   0.31959

 Mulliken charges:
               1
     1  C   -0.298284
     2  C   -0.299582
     3  C   -0.475704
     4  H    0.149833
     5  H    0.149467
     6  H    0.151993
     7  H    0.151533
     8  H    0.155148
     9  H    0.155284
    10  H    0.160238
    11  C   -0.298231
    12  C   -0.299188
    13  C   -0.482290
    14  H    0.149614
    15  H    0.148451
    16  H    0.151778
    17  H    0.151779
    18  H    0.162693
    19  H    0.154529
    20  H    0.160115
    21  C   -0.298555
    22  C   -0.299516
    23  C   -0.480272
    24  H    0.149598
    25  H    0.149827
    26  H    0.151479
    27  H    0.152238
    28  H    0.155962
    29  H    0.158682
    30  H    0.161134
    31  C   -0.298295
    32  C   -0.299702
    33  C   -0.475727
    34  H    0.149382
    35  H    0.149782
    36  H    0.151997
    37  H    0.152045
    38  H    0.155224
    39  H    0.155171
    40  H    0.160371
 Sum of Mulliken charges =  -0.00000

 Dipole moment (field-independent basis, Debye):
    X=              0.0304    Y=             -0.0145    Z=              0.0018  Tot=              0.0338
 Quadrupole moment (field-independent basis, Debye-Ang):
   XX=            -84.0704   YY=            -85.8684   ZZ=            -84.7690
   XY=             -0.6108   XZ=              0.5811   YZ=             -0.6343

 Normal termination of Gaussian 16 at Wed May  5 21:23:43 2021.
