 Gaussian 16, Revision A.03,
 Gaussian 16:  EM64L-G16RevA.03 25-Dec-2016

 -------------
 #p 6-31g* mp2
 -------------

 ------------------------------------------------------
 Input file generated by CHIRIPA (05-May-2021 14:57:26)
 ------------------------------------------------------
 Symbolic Z-matrix:
 Charge =  0 Multiplicity = 1

                         Standard orientation:
 ---------------------------------------------------------------------
 Center     Atomic      Atomic             Coordinates (Angstroms)
 Number     Number       Type             X           Y           Z
 ---------------------------------------------------------------------
      1          6           0        4.541463    1.809996    1.127640
      2          6           0        3.348008    2.161358    0.488318
      3          6           0        2.617264    1.206906   -0.225533
      4          6           0        3.111445   -0.095455   -0.279696
      5          6           0        4.297119   -0.476422    0.346666
      6          6           0        5.011380    0.494547    1.054902
      7          1           0        5.102720    2.557853    1.679995
      8          1           0        2.980660    3.182190    0.543114
      9          1           0        1.690338    1.451655   -0.729837
     10          1           0        4.637981   -1.502083    0.274201
     11          1           0        5.937919    0.218817    1.550427
     12          7           0        2.346563   -1.114633   -1.032446
     13          8           0        2.803321   -2.255222   -1.065101
     14          8           0        1.304775   -0.753578   -1.575542
     15          6           0       -2.328833   -2.203180    1.155894
     16          6           0       -3.223596   -1.413385    1.885379
     17          6           0       -3.733446   -0.230849    1.341128
     18          6           0       -3.325353    0.133466    0.058933
     19          6           0       -2.435387   -0.632117   -0.692819
     20          6           0       -1.938273   -1.810717   -0.128611
     21          1           0       -1.937716   -3.120272    1.586434
     22          1           0       -3.528664   -1.715707    2.883167
     23          1           0       -4.427472    0.399383    1.883856
     24          1           0       -2.149765   -0.304722   -1.685115
     25          1           0       -1.243528   -2.422110   -0.697447
     26          7           0       -3.858368    1.383280   -0.527806
     27          8           0       -3.483231    1.682270   -1.659403
     28          8           0       -4.641189    2.040229    0.155017
 ---------------------------------------------------------------------

 SCF Done:  E(RHF) =  -868.340449672     A.U. after   16 cycles
 E2 =    -0.2598776710D+01 EUMP2 =    -0.87093922638155D+03

 The electronic state is 1-A.
 Alpha  occ. eigenvalues --  -20.61499 -20.61494 -20.60264 -20.60255 -15.86517
 Alpha  occ. eigenvalues --  -15.85303 -11.31590 -11.30455 -11.28145 -11.28092
 Alpha  occ. eigenvalues --  -11.27821 -11.27095 -11.27055 -11.27044 -11.26847
 Alpha  occ. eigenvalues --  -11.26683 -11.26065 -11.25749  -1.60562  -1.59345
 Alpha  occ. eigenvalues --   -1.40121  -1.38901  -1.19739  -1.18598  -1.09191
 Alpha  occ. eigenvalues --   -1.08043  -1.05093  -1.03927  -0.96073  -0.94910
 Alpha  occ. eigenvalues --   -0.86506  -0.85350  -0.82916  -0.81719  -0.77990
 Alpha  occ. eigenvalues --   -0.76792  -0.72757  -0.71862  -0.71525  -0.70842
 Alpha  occ. eigenvalues --   -0.70670  -0.69708  -0.65394  -0.65091  -0.64230
 Alpha  occ. eigenvalues --   -0.63898  -0.62438  -0.61248  -0.55611  -0.54476
 Alpha  occ. eigenvalues --   -0.53445  -0.53177  -0.52327  -0.51988  -0.49515
 Alpha  occ. eigenvalues --   -0.49487  -0.48291  -0.48262  -0.45584  -0.44353
 Alpha  occ. eigenvalues --   -0.37709  -0.36684  -0.36613  -0.35512
 Alpha virt. eigenvalues --    0.04488   0.05692   0.10974   0.12104   0.16034
 Alpha virt. eigenvalues --    0.17244   0.21137   0.22334   0.27090   0.27837
 Alpha virt. eigenvalues --    0.28483   0.29095   0.30774   0.31906   0.32232

 Mulliken charges:
               1
     1  C   -0.169941
     2  C   -0.218885
     3  C   -0.170290
     4  C    0.157332
     5  C   -0.171173
     6  C   -0.218823
     7  H    0.227444
     8  H    0.227198
     9  H    0.278641
    10  H    0.274922
    11  H    0.224283
    12  N    0.489087
    13  O   -0.461058
    14  O   -0.466561
    15  C   -0.173862
    16  C   -0.219265
    17  C   -0.173931
    18  C    0.155677
    19  C   -0.171313
    20  C   -0.219621
    21  H    0.224295
    22  H    0.219545
    23  H    0.271761
    24  H    0.281416
    25  H    0.240746
    26  N    0.487669
    27  O   -0.461167
    28  O   -0.464125
 Sum of Mulliken charges =  -0.00000

 Dipole moment (field-independent basis, Debye):
    X=              4.9496    Y=             -0.8284    Z=              4.5974  Tot=              6.8060
 Quadrupole moment (field-independent basis, Debye-Ang):
   XX=            -98.3651   YY=           -104.9174   ZZ=           -103.4938
   XY=             23.3703   XZ=             -0.1268   YZ=             -1.1228

 Normal termination of Gaussian 16 at Wed May  5 19:37:06 2021.
