 Gaussian 16, Revision A.03,
 Gaussian 16:  EM64L-G16RevA.03 25-Dec-2016

 -------------
 #p 6-31g* mp2
 -------------

 ------------------------------------------------------
 Input file generated by CHIRIPA (05-May-2021 14:55:18)
 ------------------------------------------------------
 Symbolic Z-matrix:
 Charge =  0 Multiplicity = 1

                         Standard orientation:
 ---------------------------------------------------------------------
 Center     Atomic      Atomic             Coordinates (Angstroms)
 Number     Number       Type             X           Y           Z
 ---------------------------------------------------------------------
      1          6           0       -4.823736    1.524712   -0.007774
      2          6           0       -5.094387    0.155325    0.081939
      3          6           0       -4.052072   -0.776383    0.074885
      4          6           0       -2.745107   -0.301580   -0.023572
      5          6           0       -2.443275    1.056337   -0.114391
      6          6           0       -3.501375    1.970062   -0.105480
      7          1           0       -5.639562    2.241500   -0.001573
      8          1           0       -6.120375   -0.193415    0.157922
      9          1           0       -4.233211   -1.842196    0.143072
     10          1           0       -1.410252    1.373681   -0.189052
     11          1           0       -3.288208    3.032951   -0.175285
     12          7           0       -1.633300   -1.278419   -0.032023
     13          8           0       -0.490530   -0.834537   -0.119678
     14          8           0       -1.925688   -2.469450    0.049169
     15          6           0        3.517712    0.850251    0.312933
     16          6           0        4.178580    2.054008   -0.359531
     17          6           0        3.707140    3.387802    0.220581
     18          1           0        2.427240    0.932495    0.207803
     19          1           0        3.730840    0.878290    1.390516
     20          1           0        3.965427    2.022952   -1.435735
     21          1           0        5.267614    1.968790   -0.252954
     22          1           0        3.934212    3.444515    1.290078
     23          1           0        2.624625    3.498985    0.100576
     24          1           0        4.192141    4.234816   -0.274596
     25          6           0        3.978855   -0.490353   -0.256153
     26          6           0        3.317986   -1.694109    0.416311
     27          6           0        3.789427   -3.027903   -0.163801
     28          1           0        3.765727   -0.518392   -1.333736
     29          1           0        5.069326   -0.572597   -0.151022
     30          1           0        2.228952   -1.608891    0.309734
     31          1           0        3.531140   -1.663053    1.492516
     32          1           0        4.871942   -3.139085   -0.043796
     33          1           0        3.562355   -3.084616   -1.233297
     34          1           0        3.304426   -3.874917    0.331377
 ---------------------------------------------------------------------

 SCF Done:  E(RHF) =  -669.536499327     A.U. after   15 cycles
 E2 =    -0.2091295909D+01 EUMP2 =    -0.67162779523548D+03

 The electronic state is 1-A.
 Alpha  occ. eigenvalues --  -20.61057 -20.61042 -15.86079 -11.31356 -11.27915
 Alpha  occ. eigenvalues --  -11.27909 -11.27642 -11.26910 -11.26901 -11.21003
 Alpha  occ. eigenvalues --  -11.20726 -11.20470 -11.20273 -11.20012 -11.19788
 Alpha  occ. eigenvalues --   -1.60105  -1.39663  -1.19519  -1.08931  -1.07439
 Alpha  occ. eigenvalues --   -1.04909  -1.02555  -0.95780  -0.95062  -0.86311
 Alpha  occ. eigenvalues --   -0.86090  -0.82617  -0.78657  -0.77679  -0.77166
 Alpha  occ. eigenvalues --   -0.72302  -0.71413  -0.70628  -0.65178  -0.64912
 Alpha  occ. eigenvalues --   -0.64060  -0.62257  -0.59944  -0.58474  -0.56636
 Alpha  occ. eigenvalues --   -0.55414  -0.54366  -0.53242  -0.53001  -0.51786
 Alpha  occ. eigenvalues --   -0.51485  -0.49175  -0.49047  -0.48953  -0.46959
 Alpha  occ. eigenvalues --   -0.45665  -0.45101  -0.44743  -0.44499  -0.42804
 Alpha  occ. eigenvalues --   -0.37495  -0.36508
 Alpha virt. eigenvalues --    0.04856   0.11148   0.16363   0.21123   0.23605
 Alpha virt. eigenvalues --    0.25246   0.26615   0.27412   0.27979   0.28728
 Alpha virt. eigenvalues --    0.29084   0.31010   0.32163   0.32434   0.32594

 Mulliken charges:
               1
     1  C   -0.170440
     2  C   -0.218611
     3  C   -0.170337
     4  C    0.157531
     5  C   -0.170606
     6  C   -0.218533
     7  H    0.226276
     8  H    0.224044
     9  H    0.276015
    10  H    0.275396
    11  H    0.224200
    12  N    0.492723
    13  O   -0.464429
    14  O   -0.458112
    15  C   -0.300165
    16  C   -0.298971
    17  C   -0.473826
    18  H    0.156789
    19  H    0.146482
    20  H    0.150626
    21  H    0.150593
    22  H    0.154554
    23  H    0.149703
    24  H    0.157734
    25  C   -0.295976
    26  C   -0.314039
    27  C   -0.474085
    28  H    0.148324
    29  H    0.143894
    30  H    0.185603
    31  H    0.144768
    32  H    0.147950
    33  H    0.154150
    34  H    0.160770
 Sum of Mulliken charges =  -0.00000

 Dipole moment (field-independent basis, Debye):
    X=             -4.3176    Y=              3.3499    Z=              0.0214  Tot=              5.4648
 Quadrupole moment (field-independent basis, Debye-Ang):
   XX=            -72.1325   YY=            -95.8448   ZZ=            -95.4067
   XY=             -5.3827   XZ=              0.2476   YZ=             -0.7753

 Normal termination of Gaussian 16 at Wed May  5 15:48:38 2021.
