 Gaussian 16, Revision A.03,
 Gaussian 16:  EM64L-G16RevA.03 25-Dec-2016

 -------------
 #p 6-31g* mp2
 -------------

 ------------------------------------------------------
 Input file generated by CHIRIPA (05-May-2021 14:55:25)
 ------------------------------------------------------
 Symbolic Z-matrix:
 Charge =  0 Multiplicity = 1

                         Standard orientation:
 ---------------------------------------------------------------------
 Center     Atomic      Atomic             Coordinates (Angstroms)
 Number     Number       Type             X           Y           Z
 ---------------------------------------------------------------------
      1          6           0        3.163667   -2.258413   -0.823342
      2          6           0        3.923978   -1.103759   -1.036001
      3          6           0        3.528209    0.118503   -0.484649
      4          6           0        2.361446    0.150062    0.277557
      5          6           0        1.582602   -0.983012    0.507416
      6          6           0        1.997461   -2.194466   -0.053670
      7          1           0        3.478525   -3.203698   -1.255426
      8          1           0        4.830117   -1.150447   -1.633310
      9          1           0        4.097998    1.027694   -0.633415
     10          1           0        0.684038   -0.905136    1.107363
     11          1           0        1.405021   -3.089582    0.113147
     12          7           0        1.932357    1.438296    0.866400
     13          8           0        0.900452    1.439645    1.534088
     14          8           0        2.636068    2.422272    0.649098
     15          6           0       -3.304604    0.818315   -0.265866
     16          6           0       -2.215647    1.698646   -0.880011
     17          6           0       -2.613415    3.173648   -0.942802
     18          1           0       -4.227861    0.925968   -0.851487
     19          1           0       -3.532241    1.181048    0.746063
     20          1           0       -1.989152    1.333511   -1.889958
     21          1           0       -1.294819    1.588737   -0.292973
     22          1           0       -2.819855    3.560024    0.060541
     23          1           0       -3.518132    3.303347   -1.545518
     24          1           0       -1.820540    3.784790   -1.385197
     25          6           0       -2.921738   -0.658945   -0.196235
     26          6           0       -4.010695   -1.539276    0.417910
     27          6           0       -3.612926   -3.014277    0.480701
     28          1           0       -2.694101   -1.021678   -1.208164
     29          1           0       -1.998481   -0.766597    0.389386
     30          1           0       -4.931522   -1.429366   -0.169128
     31          1           0       -4.237190   -1.174141    1.427857
     32          1           0       -2.708210   -3.143976    1.083417
     33          1           0       -3.406486   -3.400653   -0.522642
     34          1           0       -4.405801   -3.625420    0.923096
 ---------------------------------------------------------------------

 SCF Done:  E(RHF) =  -669.536418184     A.U. after   15 cycles
 E2 =    -0.2092100464D+01 EUMP2 =    -0.67162851864827D+03

 The electronic state is 1-A.
 Alpha  occ. eigenvalues --  -20.60980 -20.60973 -15.85987 -11.31267 -11.27827
 Alpha  occ. eigenvalues --  -11.27823 -11.27557 -11.26829 -11.26815 -11.21601
 Alpha  occ. eigenvalues --  -11.21310 -11.21296 -11.20950 -11.20823 -11.20309
 Alpha  occ. eigenvalues --   -1.60025  -1.39585  -1.19432  -1.08845  -1.08147
 Alpha  occ. eigenvalues --   -1.04823  -1.03201  -0.95695  -0.95691  -0.86710
 Alpha  occ. eigenvalues --   -0.86227  -0.82531  -0.79319  -0.77943  -0.77568
 Alpha  occ. eigenvalues --   -0.72217  -0.71330  -0.70547  -0.65093  -0.64865
 Alpha  occ. eigenvalues --   -0.64731  -0.62174  -0.60578  -0.59102  -0.57283
 Alpha  occ. eigenvalues --   -0.55336  -0.54989  -0.53153  -0.52920  -0.52377
 Alpha  occ. eigenvalues --   -0.52118  -0.49645  -0.48990  -0.48968  -0.47637
 Alpha  occ. eigenvalues --   -0.46382  -0.45640  -0.45408  -0.44661  -0.43466
 Alpha  occ. eigenvalues --   -0.37407  -0.36415
 Alpha virt. eigenvalues --    0.04892   0.11191   0.16373   0.20285   0.23045
 Alpha virt. eigenvalues --    0.24602   0.25163   0.27344   0.27599   0.28226
 Alpha virt. eigenvalues --    0.29443   0.31115   0.31760   0.32022   0.32280

 Mulliken charges:
               1
     1  C   -0.170521
     2  C   -0.218587
     3  C   -0.170622
     4  C    0.158452
     5  C   -0.172517
     6  C   -0.219137
     7  H    0.226000
     8  H    0.223711
     9  H    0.275639
    10  H    0.278770
    11  H    0.224471
    12  N    0.487737
    13  O   -0.459660
    14  O   -0.457940
    15  C   -0.296955
    16  C   -0.309699
    17  C   -0.474425
    18  H    0.147283
    19  H    0.153177
    20  H    0.145091
    21  H    0.168991
    22  H    0.159005
    23  H    0.149943
    24  H    0.161806
    25  C   -0.299474
    26  C   -0.299490
    27  C   -0.474605
    28  H    0.147121
    29  H    0.145598
    30  H    0.153080
    31  H    0.154417
    32  H    0.148366
    33  H    0.153475
    34  H    0.161497
 Sum of Mulliken charges =  -0.00000

 Dipole moment (field-independent basis, Debye):
    X=              1.6484    Y=             -4.4330    Z=             -1.9997  Tot=              5.1349
 Quadrupole moment (field-independent basis, Debye-Ang):
   XX=            -84.5302   YY=            -96.7798   ZZ=            -95.1195
   XY=             -8.4395   XZ=             -6.4227   YZ=             -2.0757

 Normal termination of Gaussian 16 at Thu May  6 06:24:07 2021.
