 Gaussian 16, Revision A.03,
 Gaussian 16:  EM64L-G16RevA.03 25-Dec-2016

 -------------
 #p 6-31g* mp2
 -------------

 ------------------------------------------------------
 Input file generated by CHIRIPA (05-May-2021 14:55:21)
 ------------------------------------------------------
 Symbolic Z-matrix:
 Charge =  0 Multiplicity = 1

                         Standard orientation:
 ---------------------------------------------------------------------
 Center     Atomic      Atomic             Coordinates (Angstroms)
 Number     Number       Type             X           Y           Z
 ---------------------------------------------------------------------
      1          6           0        5.838006    0.076037   -0.218576
      2          6           0        5.302051   -0.867772    0.663750
      3          6           0        3.920363   -1.068785    0.735029
      4          6           0        3.100220   -0.305200   -0.094184
      5          6           0        3.603950    0.642734   -0.983547
      6          6           0        4.988742    0.826953   -1.037964
      7          1           0        6.912540    0.225666   -0.267397
      8          1           0        5.959195   -1.452370    1.301285
      9          1           0        3.478748   -1.792749    1.409025
     10          1           0        2.923538    1.210455   -1.606563
     11          1           0        5.402174    1.560630   -1.724140
     12          7           0        1.635845   -0.509115   -0.027650
     13          8           0        0.934690    0.176298   -0.768749
     14          8           0        1.216952   -1.350494    0.764339
     15          6           0       -4.879953    0.213347   -0.314956
     16          6           0       -5.628775   -1.070988    0.042443
     17          6           0       -6.832069   -1.325941   -0.865783
     18          1           0       -5.573312    1.063380   -0.254623
     19          1           0       -4.545949    0.156004   -1.360208
     20          1           0       -5.960065   -1.011822    1.087125
     21          1           0       -4.933503   -1.918038   -0.018563
     22          1           0       -6.515145   -1.411385   -1.910225
     23          1           0       -7.547539   -0.500020   -0.798255
     24          1           0       -7.352769   -2.249048   -0.592647
     25          6           0       -3.674457    0.481930    0.584139
     26          6           0       -2.925635    1.766265    0.226740
     27          6           0       -1.722340    2.021218    1.134966
     28          1           0       -4.008460    0.539274    1.629390
     29          1           0       -2.981097   -0.368102    0.523806
     30          1           0       -3.620906    2.613315    0.287746
     31          1           0       -2.594344    1.707099   -0.817943
     32          1           0       -1.006871    1.195298    1.067438
     33          1           0       -2.039264    2.106662    2.179408
     34          1           0       -1.201641    2.944325    0.861829
 ---------------------------------------------------------------------

 SCF Done:  E(RHF) =  -669.536542290     A.U. after   15 cycles
 E2 =    -0.2091140025D+01 EUMP2 =    -0.67162768231557D+03

 The electronic state is 1-A.
 Alpha  occ. eigenvalues --  -20.61036 -20.61022 -15.86044 -11.31335 -11.27891
 Alpha  occ. eigenvalues --  -11.27888 -11.27625 -11.26890 -11.26881 -11.20702
 Alpha  occ. eigenvalues --  -11.20340 -11.20332 -11.20220 -11.20042 -11.19477
 Alpha  occ. eigenvalues --   -1.60084  -1.39638  -1.19498  -1.08910  -1.07265
 Alpha  occ. eigenvalues --   -1.04888  -1.02361  -0.95757  -0.94816  -0.86290
 Alpha  occ. eigenvalues --   -0.85841  -0.82590  -0.78469  -0.77649  -0.77049
 Alpha  occ. eigenvalues --   -0.72261  -0.71396  -0.70607  -0.65153  -0.64892
 Alpha  occ. eigenvalues --   -0.63884  -0.62235  -0.59739  -0.58234  -0.56433
 Alpha  occ. eigenvalues --   -0.55398  -0.54092  -0.53219  -0.52979  -0.51551
 Alpha  occ. eigenvalues --   -0.51253  -0.49160  -0.49024  -0.48606  -0.46769
 Alpha  occ. eigenvalues --   -0.45513  -0.45019  -0.44596  -0.44448  -0.42632
 Alpha  occ. eigenvalues --   -0.37473  -0.36487
 Alpha virt. eigenvalues --    0.04850   0.11170   0.16355   0.21305   0.24008
 Alpha virt. eigenvalues --    0.25529   0.27228   0.27804   0.28212   0.28654
 Alpha virt. eigenvalues --    0.29172   0.30874   0.32416   0.32595   0.32773

 Mulliken charges:
               1
     1  C   -0.170415
     2  C   -0.218626
     3  C   -0.170672
     4  C    0.159164
     5  C   -0.170527
     6  C   -0.218614
     7  H    0.226163
     8  H    0.223975
     9  H    0.275968
    10  H    0.276012
    11  H    0.223992
    12  N    0.487955
    13  O   -0.459325
    14  O   -0.460065
    15  C   -0.297695
    16  C   -0.299226
    17  C   -0.475072
    18  H    0.145642
    19  H    0.149583
    20  H    0.149952
    21  H    0.153896
    22  H    0.154418
    23  H    0.153174
    24  H    0.157746
    25  C   -0.300615
    26  C   -0.296590
    27  C   -0.481279
    28  H    0.144750
    29  H    0.161774
    30  H    0.143805
    31  H    0.155803
    32  H    0.177492
    33  H    0.145966
    34  H    0.151491
 Sum of Mulliken charges =  -0.00000

 Dipole moment (field-independent basis, Debye):
    X=              5.5504    Y=              0.5662    Z=             -0.3041  Tot=              5.5874
 Quadrupole moment (field-independent basis, Debye-Ang):
   XX=            -64.9350   YY=            -93.5912   ZZ=            -92.8110
   XY=             -0.0696   XZ=             -1.4597   YZ=             -3.0529

 Normal termination of Gaussian 16 at Thu May  6 12:30:43 2021.
