 Gaussian 16, Revision A.03,
 Gaussian 16:  EM64L-G16RevA.03 25-Dec-2016

 -------------
 #p 6-31g* mp2
 -------------

 ------------------------------------------------------
 Input file generated by CHIRIPA (05-May-2021 14:53:13)
 ------------------------------------------------------
 Symbolic Z-matrix:
 Charge =  0 Multiplicity = 1

                         Standard orientation:
 ---------------------------------------------------------------------
 Center     Atomic      Atomic             Coordinates (Angstroms)
 Number     Number       Type             X           Y           Z
 ---------------------------------------------------------------------
      1          6           0       -5.686342    0.039332    0.000529
      2          6           0       -6.088555   -1.431073   -0.118298
      3          6           0       -7.591566   -1.617734   -0.327847
      4          1           0       -6.234038    0.496326    0.836071
      5          1           0       -5.999892    0.572560   -0.907628
      6          1           0       -5.773107   -1.961657    0.789220
      7          1           0       -5.539694   -1.884668   -0.953534
      8          1           0       -7.918446   -1.113724   -1.243120
      9          1           0       -8.153185   -1.191150    0.509536
     10          1           0       -7.857024   -2.676326   -0.410165
     11          6           0       -4.186819    0.242173    0.210326
     12          6           0       -3.784605    1.712577    0.329153
     13          6           0       -2.281595    1.899238    0.538702
     14          1           0       -3.873268   -0.291055    1.118483
     15          1           0       -3.639123   -0.214821   -0.625216
     16          1           0       -4.333466    2.166172    1.164389
     17          1           0       -4.100053    2.243161   -0.578365
     18          1           0       -1.719975    1.472654   -0.298681
     19          1           0       -1.954714    1.395228    1.453975
     20          1           0       -2.016137    2.957830    0.621020
     21          6           0        1.626056    1.021645   -0.413425
     22          6           0        2.807115    1.767407   -0.487310
     23          6           0        4.048654    1.150902   -0.305517
     24          6           0        4.072354   -0.219363   -0.050360
     25          6           0        2.913131   -0.989529    0.029235
     26          6           0        1.682734   -0.352021   -0.155842
     27          1           0        0.665926    1.508719   -0.555922
     28          1           0        2.766129    2.834368   -0.687215
     29          1           0        4.978428    1.704294   -0.357438
     30          1           0        2.985923   -2.051524    0.229951
     31          1           0        0.767126   -0.933701   -0.097909
     32          7           0        5.380818   -0.883146    0.143835
     33          8           0        5.374735   -2.091705    0.367412
     34          8           0        6.387700   -0.182294    0.068790
 ---------------------------------------------------------------------

 SCF Done:  E(RHF) =  -669.535589742     A.U. after   15 cycles
 E2 =    -0.2090802369D+01 EUMP2 =    -0.67162639211172D+03

 The electronic state is 1-A.
 Alpha  occ. eigenvalues --  -20.60697 -20.60692 -15.85751 -11.31094 -11.27668
 Alpha  occ. eigenvalues --  -11.27665 -11.27346 -11.26666 -11.26655 -11.22569
 Alpha  occ. eigenvalues --  -11.22385 -11.22229 -11.22159 -11.22025 -11.21524
 Alpha  occ. eigenvalues --   -1.59773  -1.39327  -1.19264  -1.09207  -1.08656
 Alpha  occ. eigenvalues --   -1.04668  -1.04334  -0.96812  -0.95496  -0.87837
 Alpha  occ. eigenvalues --   -0.86062  -0.82335  -0.80414  -0.78985  -0.77388
 Alpha  occ. eigenvalues --   -0.71968  -0.71097  -0.70375  -0.65832  -0.64914
 Alpha  occ. eigenvalues --   -0.64674  -0.62020  -0.61730  -0.60189  -0.58403
 Alpha  occ. eigenvalues --   -0.56171  -0.55149  -0.53485  -0.53205  -0.52990
 Alpha  occ. eigenvalues --   -0.52757  -0.50743  -0.48744  -0.48725  -0.48697
 Alpha  occ. eigenvalues --   -0.47423  -0.46537  -0.46429  -0.44738  -0.44570
 Alpha  occ. eigenvalues --   -0.37232  -0.36279
 Alpha virt. eigenvalues --    0.05148   0.11375   0.16638   0.20110   0.22287
 Alpha virt. eigenvalues --    0.23731   0.25454   0.26123   0.26820   0.27523
 Alpha virt. eigenvalues --    0.28886   0.30480   0.30854   0.31061   0.31840

 Mulliken charges:
               1
     1  C   -0.298839
     2  C   -0.300222
     3  C   -0.476132
     4  H    0.151445
     5  H    0.150736
     6  H    0.152558
     7  H    0.151883
     8  H    0.155881
     9  H    0.156130
    10  H    0.161890
    11  C   -0.299194
    12  C   -0.299405
    13  C   -0.481142
    14  H    0.150257
    15  H    0.147523
    16  H    0.156331
    17  H    0.154364
    18  H    0.145179
    19  H    0.159481
    20  H    0.162878
    21  C   -0.176102
    22  C   -0.220171
    23  C   -0.170768
    24  C    0.158074
    25  C   -0.170994
    26  C   -0.221342
    27  H    0.236097
    28  H    0.223461
    29  H    0.275159
    30  H    0.275210
    31  H    0.223194
    32  N    0.488061
    33  O   -0.460766
    34  O   -0.460719
 Sum of Mulliken charges =  -0.00000

 Dipole moment (field-independent basis, Debye):
    X=             -4.8965    Y=              2.3694    Z=             -0.6361  Tot=              5.4767
 Quadrupole moment (field-independent basis, Debye-Ang):
   XX=           -131.9662   YY=            -92.0717   ZZ=            -94.4400
   XY=             12.5797   XZ=             -3.3615   YZ=             -0.7023

 Normal termination of Gaussian 16 at Thu May  6 20:16:28 2021.
