 Gaussian 16, Revision A.03,
 Gaussian 16:  EM64L-G16RevA.03 25-Dec-2016

 -------------
 #p 6-31g* mp2
 -------------

 ------------------------------------------------------
 Input file generated by CHIRIPA (05-May-2021 14:57:26)
 ------------------------------------------------------
 Symbolic Z-matrix:
 Charge =  0 Multiplicity = 1

                         Standard orientation:
 ---------------------------------------------------------------------
 Center     Atomic      Atomic             Coordinates (Angstroms)
 Number     Number       Type             X           Y           Z
 ---------------------------------------------------------------------
      1          6           0        1.072084   -1.772718   -0.759899
      2          6           0        0.817422   -0.751490    0.161383
      3          6           0        1.833739    0.128744    0.544576
      4          6           0        3.098685   -0.041953   -0.015838
      5          6           0        3.383655   -1.049572   -0.936048
      6          6           0        2.352130   -1.918244   -1.304714
      7          1           0        0.276677   -2.452014   -1.051930
      8          1           0       -0.175717   -0.636095    0.586121
      9          1           0        1.664159    0.928042    1.255760
     10          1           0        4.383798   -1.139550   -1.342294
     11          1           0        2.552794   -2.710432   -2.020408
     12          7           0        4.182664    0.883791    0.382141
     13          8           0        5.288529    0.712256   -0.126068
     14          8           0        3.905897    1.763394    1.194751
     15          6           0       -2.807655   -2.010936    1.301770
     16          6           0       -2.592286   -0.815433    1.995248
     17          6           0       -2.652109    0.412363    1.329302
     18          6           0       -2.930896    0.407743   -0.036548
     19          6           0       -3.150090   -0.766445   -0.755246
     20          6           0       -3.085380   -1.982676   -0.068847
     21          1           0       -2.759285   -2.960226    1.827037
     22          1           0       -2.376408   -0.834349    3.059712
     23          1           0       -2.489450    1.352812    1.841667
     24          1           0       -3.363258   -0.715646   -1.816093
     25          1           0       -3.253066   -2.909554   -0.609979
     26          7           0       -2.996815    1.701434   -0.752381
     27          8           0       -3.244141    1.670395   -1.955918
     28          8           0       -2.799909    2.721973   -0.096358
 ---------------------------------------------------------------------

 SCF Done:  E(RHF) =  -868.336642179     A.U. after   16 cycles
 E2 =    -0.2603484537D+01 EUMP2 =    -0.87094012671635D+03

 The electronic state is 1-A.
 Alpha  occ. eigenvalues --  -20.61631 -20.61624 -20.60666 -20.60659 -15.86699
 Alpha  occ. eigenvalues --  -15.85716 -11.32407 -11.31096 -11.29021 -11.28967
 Alpha  occ. eigenvalues --  -11.28782 -11.28104 -11.28023 -11.27661 -11.27622
 Alpha  occ. eigenvalues --  -11.27398 -11.26712 -11.26485  -1.60700  -1.59739
 Alpha  occ. eigenvalues --   -1.40243  -1.39293  -1.20666  -1.19253  -1.09945
 Alpha  occ. eigenvalues --   -1.08654  -1.06079  -1.04654  -0.96711  -0.95493
 Alpha  occ. eigenvalues --   -0.87410  -0.86061  -0.83521  -0.82326  -0.78521
 Alpha  occ. eigenvalues --   -0.77376  -0.72900  -0.72043  -0.71934  -0.71647
 Alpha  occ. eigenvalues --   -0.71061  -0.70400  -0.66239  -0.65996  -0.64905
 Alpha  occ. eigenvalues --   -0.64748  -0.63355  -0.62084  -0.56482  -0.55259
 Alpha  occ. eigenvalues --   -0.54549  -0.54088  -0.52996  -0.52377  -0.49688
 Alpha  occ. eigenvalues --   -0.49640  -0.48692  -0.48684  -0.45572  -0.44695
 Alpha  occ. eigenvalues --   -0.38705  -0.37749  -0.37208  -0.36222
 Alpha virt. eigenvalues --    0.03982   0.05156   0.09877   0.11380   0.15370
 Alpha virt. eigenvalues --    0.16672   0.20208   0.21777   0.25997   0.27235
 Alpha virt. eigenvalues --    0.27824   0.28271   0.29965   0.31344   0.31693

 Mulliken charges:
               1
     1  C   -0.175466
     2  C   -0.226082
     3  C   -0.175546
     4  C    0.159756
     5  C   -0.171691
     6  C   -0.217768
     7  H    0.219319
     8  H    0.238980
     9  H    0.274503
    10  H    0.275210
    11  H    0.221619
    12  N    0.488114
    13  O   -0.460790
    14  O   -0.460018
    15  C   -0.173149
    16  C   -0.224846
    17  C   -0.185461
    18  C    0.163757
    19  C   -0.172111
    20  C   -0.224104
    21  H    0.231145
    22  H    0.230474
    23  H    0.281269
    24  H    0.280099
    25  H    0.226796
    26  N    0.488647
    27  O   -0.456682
    28  O   -0.455974
 Sum of Mulliken charges =  -0.00000

 Dipole moment (field-independent basis, Debye):
    X=             -3.9516    Y=             -7.6856    Z=              1.1530  Tot=              8.7186
 Quadrupole moment (field-independent basis, Debye-Ang):
   XX=           -128.0932   YY=           -106.8305   ZZ=            -99.8502
   XY=              2.4467   XZ=            -13.0475   YZ=              5.1986

 Normal termination of Gaussian 16 at Fri May  7 09:40:57 2021.
