 Gaussian 16, Revision A.03,
 Gaussian 16:  EM64L-G16RevA.03 25-Dec-2016

 -------------
 #p 6-31g* mp2
 -------------

 ------------------------------------------------------
 Input file generated by CHIRIPA (05-May-2021 14:51:12)
 ------------------------------------------------------
 Symbolic Z-matrix:
 Charge =  0 Multiplicity = 1

                         Standard orientation:
 ---------------------------------------------------------------------
 Center     Atomic      Atomic             Coordinates (Angstroms)
 Number     Number       Type             X           Y           Z
 ---------------------------------------------------------------------
      1          6           0        3.409007   -0.415592   -0.001132
      2          6           0        4.331803    0.499928   -0.806276
      3          6           0        5.354936   -0.274891   -1.637329
      4          1           0        4.016705   -1.048552    0.659935
      5          1           0        2.885741   -1.094007   -0.689129
      6          1           0        4.852138    1.177343   -0.117091
      7          1           0        3.721826    1.130916   -1.465363
      8          1           0        4.851178   -0.938682   -2.347407
      9          1           0        5.987913   -0.891991   -0.991475
     10          1           0        6.004243    0.399016   -2.204876
     11          6           0        2.380659    0.344296    0.834809
     12          6           0        1.457863   -0.571223    1.639953
     13          6           0        0.434730    0.203595    2.471007
     14          1           0        2.903925    1.022711    1.522807
     15          1           0        1.772961    0.977257    0.173742
     16          1           0        2.067840   -1.202212    2.299041
     17          1           0        0.937528   -1.248639    0.950769
     18          1           0       -0.198247    0.820695    1.825152
     19          1           0        0.938488    0.867386    3.181085
     20          1           0       -0.214577   -0.470312    3.038554
     21          6           0       -3.192401    0.717605   -0.589524
     22          6           0       -2.312297    1.890503   -0.156265
     23          6           0       -2.921045    3.248098   -0.508623
     24          1           0       -3.361342    0.775058   -1.673546
     25          1           0       -4.178416    0.812883   -0.114032
     26          1           0       -1.327780    1.792295   -0.631342
     27          1           0       -2.145274    1.830143    0.926822
     28          1           0       -3.894213    3.371753   -0.022562
     29          1           0       -3.072073    3.333690   -1.589578
     30          1           0       -2.275467    4.072436   -0.189943
     31          6           0       -2.597265   -0.646309   -0.244153
     32          6           0       -3.477368   -1.819207   -0.677413
     33          6           0       -2.868622   -3.176803   -0.325055
     34          1           0       -1.611250   -0.741587   -0.719645
     35          1           0       -2.428325   -0.703762    0.839868
     36          1           0       -3.644392   -1.758848   -1.760499
     37          1           0       -4.461885   -1.720999   -0.202336
     38          1           0       -2.717592   -3.262394    0.755901
     39          1           0       -1.895454   -3.300458   -0.811115
     40          1           0       -3.514199   -4.001140   -0.643735
 ---------------------------------------------------------------------

 SCF Done:  E(RHF) =  -470.732963164     A.U. after   11 cycles
 E2 =    -0.1583894382D+01 EUMP2 =    -0.47231685754515D+03

 The electronic state is 1-A.
 Alpha  occ. eigenvalues --  -11.21670 -11.21633 -11.21592 -11.21519 -11.21448
 Alpha  occ. eigenvalues --  -11.21383 -11.21377 -11.21314 -11.21117 -11.21101
 Alpha  occ. eigenvalues --  -11.21066 -11.20921  -1.08491  -1.08384  -1.03582
 Alpha  occ. eigenvalues --   -1.03477  -0.96023  -0.95931  -0.87043  -0.86951
 Alpha  occ. eigenvalues --   -0.79701  -0.79510  -0.78318  -0.78188  -0.65115
 Alpha  occ. eigenvalues --   -0.65023  -0.60999  -0.60868  -0.59426  -0.59280
 Alpha  occ. eigenvalues --   -0.57654  -0.57521  -0.55308  -0.55237  -0.52730
 Alpha  occ. eigenvalues --   -0.52629  -0.52477  -0.52325  -0.49977  -0.49909
 Alpha  occ. eigenvalues --   -0.48088  -0.47792  -0.46692  -0.46589  -0.45950
 Alpha  occ. eigenvalues --   -0.45748  -0.45644  -0.45450  -0.43827  -0.43740
 Alpha virt. eigenvalues --    0.20656   0.23275   0.23621   0.24011   0.25195
 Alpha virt. eigenvalues --    0.26144   0.27300   0.27915   0.28424   0.29547
 Alpha virt. eigenvalues --    0.30433   0.30781   0.31694   0.31838   0.32093

 Mulliken charges:
               1
     1  C   -0.298155
     2  C   -0.299578
     3  C   -0.475662
     4  H    0.149768
     5  H    0.149012
     6  H    0.151987
     7  H    0.151630
     8  H    0.155029
     9  H    0.155238
    10  H    0.160191
    11  C   -0.299346
    12  C   -0.300208
    13  C   -0.483827
    14  H    0.149465
    15  H    0.149901
    16  H    0.151363
    17  H    0.153398
    18  H    0.165875
    19  H    0.153797
    20  H    0.158326
    21  C   -0.297908
    22  C   -0.305619
    23  C   -0.475006
    24  H    0.149638
    25  H    0.149796
    26  H    0.151780
    27  H    0.156895
    28  H    0.155496
    29  H    0.155231
    30  H    0.160622
    31  C   -0.302100
    32  C   -0.299710
    33  C   -0.475743
    34  H    0.149630
    35  H    0.154093
    36  H    0.151878
    37  H    0.152094
    38  H    0.155402
    39  H    0.154845
    40  H    0.160487
 Sum of Mulliken charges =  -0.00000

 Dipole moment (field-independent basis, Debye):
    X=             -0.0585    Y=              0.0173    Z=             -0.0070  Tot=              0.0615
 Quadrupole moment (field-independent basis, Debye-Ang):
   XX=            -84.7887   YY=            -86.0512   ZZ=            -83.9143
   XY=              0.6334   XZ=              0.4914   YZ=             -0.0125

 Normal termination of Gaussian 16 at Wed May  5 21:30:54 2021.
