 Gaussian 16, Revision A.03,
 Gaussian 16:  EM64L-G16RevA.03 25-Dec-2016

 -------------
 #p 6-31g* mp2
 -------------

 ------------------------------------------------------
 Input file generated by CHIRIPA (05-May-2021 14:53:12)
 ------------------------------------------------------
 Symbolic Z-matrix:
 Charge =  0 Multiplicity = 1

                         Standard orientation:
 ---------------------------------------------------------------------
 Center     Atomic      Atomic             Coordinates (Angstroms)
 Number     Number       Type             X           Y           Z
 ---------------------------------------------------------------------
      1          6           0       -2.981529   -0.389688    0.186374
      2          6           0       -3.879866   -1.499861   -0.359970
      3          6           0       -4.022212   -2.675086    0.607697
      4          1           0       -1.989332   -0.805692    0.408703
      5          1           0       -3.391651   -0.032191    1.141042
      6          1           0       -3.468932   -1.854205   -1.314008
      7          1           0       -4.869983   -1.081124   -0.581204
      8          1           0       -4.453588   -2.342170    1.557266
      9          1           0       -3.044577   -3.119643    0.820298
     10          1           0       -4.668484   -3.457162    0.197148
     11          6           0       -2.829453    0.792115   -0.769629
     12          6           0       -1.931116    1.902288   -0.223286
     13          6           0       -1.788770    3.077513   -1.190952
     14          1           0       -2.419332    0.434618   -1.724297
     15          1           0       -3.821651    1.208119   -0.991958
     16          1           0       -0.940999    1.483551   -0.002052
     17          1           0       -2.342050    2.256632    0.730753
     18          1           0       -2.766405    3.522070   -1.403554
     19          1           0       -1.357394    2.744597   -2.140522
     20          1           0       -1.142498    3.859589   -0.780403
     21          6           0        1.411029    1.878762    1.445661
     22          6           0        2.303842    2.025949    0.379012
     23          6           0        2.786223    0.904909   -0.302990
     24          6           0        2.352949   -0.354027    0.110099
     25          6           0        1.464203   -0.533284    1.169008
     26          6           0        0.994793    0.601867    1.836566
     27          1           0        1.041341    2.755094    1.969847
     28          1           0        2.628813    3.016376    0.073245
     29          1           0        3.478102    0.990081   -1.132126
     30          1           0        1.158352   -1.533520    1.450791
     31          1           0        0.301496    0.484544    2.664588
     32          7           0        2.856758   -1.548291   -0.604261
     33          8           0        2.459766   -2.646500   -0.220893
     34          8           0        3.639098   -1.363532   -1.534016
 ---------------------------------------------------------------------

 SCF Done:  E(RHF) =  -669.534333170     A.U. after   15 cycles
 E2 =    -0.2094090408D+01 EUMP2 =    -0.67162842357739D+03

 The electronic state is 1-A.
 Alpha  occ. eigenvalues --  -20.60860 -20.60855 -15.85915 -11.31313 -11.27880
 Alpha  occ. eigenvalues --  -11.27867 -11.27576 -11.26885 -11.26846 -11.21779
 Alpha  occ. eigenvalues --  -11.21754 -11.21666 -11.21586 -11.21468 -11.21201
 Alpha  occ. eigenvalues --   -1.59936  -1.39488  -1.19494  -1.08894  -1.08655
 Alpha  occ. eigenvalues --   -1.04887  -1.03766  -0.96235  -0.95699  -0.87248
 Alpha  occ. eigenvalues --   -0.86275  -0.82525  -0.79844  -0.78514  -0.77568
 Alpha  occ. eigenvalues --   -0.72130  -0.71261  -0.70573  -0.65312  -0.65128
 Alpha  occ. eigenvalues --   -0.64868  -0.62222  -0.61182  -0.59635  -0.57862
 Alpha  occ. eigenvalues --   -0.55520  -0.55365  -0.53360  -0.52960  -0.52886
 Alpha  occ. eigenvalues --   -0.52654  -0.50156  -0.48892  -0.48885  -0.48151
 Alpha  occ. eigenvalues --   -0.46842  -0.46038  -0.45940  -0.44887  -0.44029
 Alpha  occ. eigenvalues --   -0.37343  -0.36446
 Alpha virt. eigenvalues --    0.04909   0.11112   0.16322   0.20852   0.22866
 Alpha virt. eigenvalues --    0.23898   0.26087   0.26405   0.27401   0.28253
 Alpha virt. eigenvalues --    0.28668   0.30796   0.31285   0.31504   0.31977

 Mulliken charges:
               1
     1  C   -0.299404
     2  C   -0.299858
     3  C   -0.476211
     4  H    0.147378
     5  H    0.145590
     6  H    0.155452
     7  H    0.152146
     8  H    0.153067
     9  H    0.156051
    10  H    0.162360
    11  C   -0.297102
    12  C   -0.311106
    13  C   -0.473760
    14  H    0.152287
    15  H    0.149352
    16  H    0.167898
    17  H    0.143547
    18  H    0.156131
    19  H    0.157504
    20  H    0.152051
    21  C   -0.171316
    22  C   -0.216673
    23  C   -0.171326
    24  C    0.158613
    25  C   -0.171470
    26  C   -0.218723
    27  H    0.227195
    28  H    0.224414
    29  H    0.276211
    30  H    0.276081
    31  H    0.225790
    32  N    0.488071
    33  O   -0.460207
    34  O   -0.460036
 Sum of Mulliken charges =  -0.00000

 Dipole moment (field-independent basis, Debye):
    X=             -1.6725    Y=              4.1455    Z=              2.4901  Tot=              5.1169
 Quadrupole moment (field-independent basis, Debye-Ang):
   XX=           -101.7404   YY=            -97.2943   ZZ=            -92.9465
   XY=             12.2702   XZ=              3.8667   YZ=             -1.5892

 Normal termination of Gaussian 16 at Wed May  5 20:09:46 2021.
