 Gaussian 16, Revision A.03,
 Gaussian 16:  EM64L-G16RevA.03 25-Dec-2016

 -------------
 #p 6-31g* mp2
 -------------

 ------------------------------------------------------
 Input file generated by CHIRIPA (05-May-2021 14:55:24)
 ------------------------------------------------------
 Symbolic Z-matrix:
 Charge =  0 Multiplicity = 1

                         Standard orientation:
 ---------------------------------------------------------------------
 Center     Atomic      Atomic             Coordinates (Angstroms)
 Number     Number       Type             X           Y           Z
 ---------------------------------------------------------------------
      1          6           0        0.954958   -0.993794    0.194317
      2          6           0        1.695234   -1.173278   -0.978840
      3          6           0        2.991878   -0.661527   -1.085483
      4          6           0        3.519554    0.027682    0.005315
      5          6           0        2.807103    0.222949    1.187506
      6          6           0        1.512273   -0.297481    1.271846
      7          1           0       -0.051602   -1.394706    0.268497
      8          1           0        1.264967   -1.713624   -1.817257
      9          1           0        3.587127   -0.785968   -1.981926
     10          1           0        3.262903    0.766023    2.006490
     11          1           0        0.939686   -0.156571    2.184170
     12          7           0        4.891293    0.574044   -0.095778
     13          8           0        5.333475    1.177498    0.879392
     14          8           0        5.498306    0.388485   -1.148270
     15          6           0       -4.410406   -0.642953   -0.180080
     16          6           0       -3.453566   -1.669296    0.427426
     17          6           0       -3.856469   -3.110711    0.114716
     18          1           0       -5.425831   -0.830903    0.194795
     19          1           0       -4.447669   -0.786250   -1.268874
     20          1           0       -3.417059   -1.523209    1.514597
     21          1           0       -2.440268   -1.478763    0.051210
     22          1           0       -3.874487   -3.279679   -0.966823
     23          1           0       -4.856829   -3.324376    0.504879
     24          1           0       -3.158902   -3.827838    0.558551
     25          6           0       -4.020889    0.802609    0.123821
     26          6           0       -4.977729    1.828951   -0.483685
     27          6           0       -4.574826    3.270366   -0.170974
     28          1           0       -3.983626    0.945905    1.212615
     29          1           0       -3.005463    0.990557   -0.251054
     30          1           0       -5.991027    1.638418   -0.107469
     31          1           0       -5.014236    1.682863   -1.570856
     32          1           0       -3.574465    3.484031   -0.561137
     33          1           0       -4.556807    3.439333    0.910564
     34          1           0       -5.272392    3.987492   -0.614810
 ---------------------------------------------------------------------

 SCF Done:  E(RHF) =  -669.535591172     A.U. after   15 cycles
 E2 =    -0.2090971264D+01 EUMP2 =    -0.67162656243573D+03

 The electronic state is 1-A.
 Alpha  occ. eigenvalues --  -20.60738 -20.60733 -15.85792 -11.31153 -11.27723
 Alpha  occ. eigenvalues --  -11.27718 -11.27430 -11.26735 -11.26721 -11.22790
 Alpha  occ. eigenvalues --  -11.22269 -11.22208 -11.22132 -11.22051 -11.21559
 Alpha  occ. eigenvalues --   -1.59814  -1.39367  -1.19324  -1.09279  -1.08717
 Alpha  occ. eigenvalues --   -1.04727  -1.04351  -0.96762  -0.95554  -0.87779
 Alpha  occ. eigenvalues --   -0.86123  -0.82391  -0.80453  -0.79075  -0.77436
 Alpha  occ. eigenvalues --   -0.72009  -0.71137  -0.70444  -0.65909  -0.64974
 Alpha  occ. eigenvalues --   -0.64730  -0.62076  -0.61751  -0.60164  -0.58383
 Alpha  occ. eigenvalues --   -0.56039  -0.55239  -0.53464  -0.53177  -0.53056
 Alpha  occ. eigenvalues --   -0.52818  -0.50702  -0.48792  -0.48765  -0.48716
 Alpha  occ. eigenvalues --   -0.47488  -0.46606  -0.46514  -0.44774  -0.44596
 Alpha  occ. eigenvalues --   -0.37299  -0.36335
 Alpha virt. eigenvalues --    0.05090   0.11320   0.16543   0.19700   0.22457
 Alpha virt. eigenvalues --    0.23629   0.25104   0.26212   0.27212   0.27382
 Alpha virt. eigenvalues --    0.28911   0.30358   0.30849   0.31192   0.32207

 Mulliken charges:
               1
     1  C   -0.178370
     2  C   -0.221407
     3  C   -0.170810
     4  C    0.158330
     5  C   -0.170794
     6  C   -0.221278
     7  H    0.238114
     8  H    0.223240
     9  H    0.275426
    10  H    0.275473
    11  H    0.224152
    12  N    0.487993
    13  O   -0.460494
    14  O   -0.460566
    15  C   -0.297655
    16  C   -0.306179
    17  C   -0.476063
    18  H    0.153393
    19  H    0.151232
    20  H    0.153261
    21  H    0.143752
    22  H    0.156800
    23  H    0.160098
    24  H    0.159716
    25  C   -0.299240
    26  C   -0.300194
    27  C   -0.476347
    28  H    0.149473
    29  H    0.148232
    30  H    0.153383
    31  H    0.153071
    32  H    0.156212
    33  H    0.155520
    34  H    0.162524
 Sum of Mulliken charges =  -0.00000

 Dipole moment (field-independent basis, Debye):
    X=             -5.0717    Y=             -1.8987    Z=              0.3524  Tot=              5.4269
 Quadrupole moment (field-independent basis, Debye-Ang):
   XX=           -128.2219   YY=            -95.8743   ZZ=            -89.8015
   XY=             -7.2098   XZ=              0.3512   YZ=              1.7750

 Normal termination of Gaussian 16 at Thu May  6 17:40:37 2021.
