 Gaussian 16, Revision A.03,
 Gaussian 16:  EM64L-G16RevA.03 25-Dec-2016

 -------------
 #p 6-31g* mp2
 -------------

 ------------------------------------------------------
 Input file generated by CHIRIPA (05-May-2021 14:51:10)
 ------------------------------------------------------
 Symbolic Z-matrix:
 Charge =  0 Multiplicity = 1

                         Standard orientation:
 ---------------------------------------------------------------------
 Center     Atomic      Atomic             Coordinates (Angstroms)
 Number     Number       Type             X           Y           Z
 ---------------------------------------------------------------------
      1          6           0       -3.076139    0.195144    0.538863
      2          6           0       -4.452337   -0.422109    0.287741
      3          6           0       -4.804492   -1.512994    1.299547
      4          1           0       -2.314919   -0.596346    0.506690
      5          1           0       -3.049413    0.613412    1.554605
      6          1           0       -4.476917   -0.837865   -0.727719
      7          1           0       -5.210346    0.370971    0.320326
      8          1           0       -4.807654   -1.108375    2.316835
      9          1           0       -4.070057   -2.324079    1.262835
     10          1           0       -5.792314   -1.940562    1.101427
     11          6           0       -2.709808    1.287301   -0.464492
     12          6           0       -1.333610    1.904554   -0.213370
     13          6           0       -0.981455    2.995439   -1.225176
     14          1           0       -2.736534    0.869033   -1.480234
     15          1           0       -3.471027    2.078791   -0.432318
     16          1           0       -0.575600    1.111474   -0.245955
     17          1           0       -1.309030    2.320310    0.802091
     18          1           0       -1.715890    3.806524   -1.188464
     19          1           0       -0.978293    2.590820   -2.242464
     20          1           0        0.006368    3.423006   -1.027055
     21          6           0        2.696194   -1.374173   -0.416768
     22          6           0        1.183711   -1.571009   -0.524638
     23          6           0        0.805782   -2.841533   -1.286696
     24          1           0        3.128032   -1.340040   -1.426370
     25          1           0        3.137891   -2.247542    0.082757
     26          1           0        0.744830   -0.696903   -1.022573
     27          1           0        0.755400   -1.604486    0.485334
     28          1           0        1.216523   -3.725893   -0.788900
     29          1           0        1.205894   -2.813153   -2.305374
     30          1           0       -0.280016   -2.962560   -1.351929
     31          6           0        3.089753   -0.108271    0.342397
     32          6           0        4.602235    0.088564    0.450267
     33          6           0        4.980165    1.359088    1.212324
     34          1           0        2.648056    0.765098   -0.157128
     35          1           0        2.657915   -0.142405    1.351999
     36          1           0        5.030548    0.122041   -0.559705
     37          1           0        5.041117   -0.785542    0.948201
     38          1           0        4.580053    1.330708    2.231003
     39          1           0        4.569423    2.243447    0.714529
     40          1           0        6.065963    1.480115    1.277558
 ---------------------------------------------------------------------

 SCF Done:  E(RHF) =  -470.733276762     A.U. after   11 cycles
 E2 =    -0.1583324543D+01 EUMP2 =    -0.47231660130446D+03

 The electronic state is 1-A.
 Alpha  occ. eigenvalues --  -11.21679 -11.21627 -11.21583 -11.21505 -11.21452
 Alpha  occ. eigenvalues --  -11.21388 -11.21369 -11.21310 -11.21153 -11.21087
 Alpha  occ. eigenvalues --  -11.21061 -11.21059  -1.08488  -1.08390  -1.03588
 Alpha  occ. eigenvalues --   -1.03496  -0.96028  -0.95955  -0.87047  -0.86969
 Alpha  occ. eigenvalues --   -0.79699  -0.79529  -0.78367  -0.78129  -0.65164
 Alpha  occ. eigenvalues --   -0.64988  -0.61059  -0.60834  -0.59411  -0.59308
 Alpha  occ. eigenvalues --   -0.57649  -0.57555  -0.55312  -0.55245  -0.52730
 Alpha  occ. eigenvalues --   -0.52648  -0.52462  -0.52372  -0.49998  -0.49882
 Alpha  occ. eigenvalues --   -0.48115  -0.47817  -0.46842  -0.46500  -0.46058
 Alpha  occ. eigenvalues --   -0.45758  -0.45714  -0.45276  -0.43833  -0.43751
 Alpha virt. eigenvalues --    0.20717   0.22916   0.23676   0.24286   0.25745
 Alpha virt. eigenvalues --    0.26508   0.26994   0.27462   0.28350   0.29365
 Alpha virt. eigenvalues --    0.30442   0.31528   0.31714   0.31832   0.32244

 Mulliken charges:
               1
     1  C   -0.300283
     2  C   -0.299599
     3  C   -0.475656
     4  H    0.151718
     5  H    0.149390
     6  H    0.151741
     7  H    0.151945
     8  H    0.155135
     9  H    0.154991
    10  H    0.160211
    11  C   -0.297558
    12  C   -0.308798
    13  C   -0.475627
    14  H    0.148881
    15  H    0.149455
    16  H    0.161399
    17  H    0.151733
    18  H    0.155342
    19  H    0.154402
    20  H    0.159622
    21  C   -0.298049
    22  C   -0.306253
    23  C   -0.475551
    24  H    0.149714
    25  H    0.149797
    26  H    0.157417
    27  H    0.152950
    28  H    0.155684
    29  H    0.155461
    30  H    0.159816
    31  C   -0.299394
    32  C   -0.299697
    33  C   -0.475700
    34  H    0.150355
    35  H    0.150094
    36  H    0.151992
    37  H    0.152052
    38  H    0.155313
    39  H    0.155219
    40  H    0.160335
 Sum of Mulliken charges =  -0.00000

 Dipole moment (field-independent basis, Debye):
    X=              0.0429    Y=             -0.0252    Z=              0.0088  Tot=              0.0505
 Quadrupole moment (field-independent basis, Debye-Ang):
   XX=            -84.9705   YY=            -85.5025   ZZ=            -84.3466
   XY=             -1.0144   XZ=             -0.2365   YZ=              0.0599

 Normal termination of Gaussian 16 at Wed May  5 16:40:24 2021.
