 Gaussian 16, Revision A.03,
 Gaussian 16:  EM64L-G16RevA.03 25-Dec-2016

 -------------
 #p 6-31g* mp2
 -------------

 ------------------------------------------------------
 Input file generated by CHIRIPA (05-May-2021 14:53:12)
 ------------------------------------------------------
 Symbolic Z-matrix:
 Charge =  0 Multiplicity = 1

                         Standard orientation:
 ---------------------------------------------------------------------
 Center     Atomic      Atomic             Coordinates (Angstroms)
 Number     Number       Type             X           Y           Z
 ---------------------------------------------------------------------
      1          6           0        3.071736    0.975528   -0.144024
      2          6           0        3.774371    2.177696    0.487705
      3          6           0        2.922446    3.446817    0.450972
      4          1           0        2.813010    1.215196   -1.184488
      5          1           0        2.123026    0.796731    0.380738
      6          1           0        4.722130    2.353319   -0.037201
      7          1           0        4.031626    1.935069    1.526727
      8          1           0        1.982439    3.295576    0.991448
      9          1           0        2.676866    3.716203   -0.581367
     10          1           0        3.443922    4.293758    0.907715
     11          6           0        3.910801   -0.300736   -0.114879
     12          6           0        3.208166   -1.502904   -0.746608
     13          6           0        4.060092   -2.772025   -0.709875
     14          1           0        4.859512   -0.121939   -0.639641
     15          1           0        4.169528   -0.540404    0.925585
     16          1           0        2.950911   -1.260277   -1.785630
     17          1           0        2.260408   -1.678526   -0.221702
     18          1           0        4.305672   -3.041411    0.322464
     19          1           0        5.000099   -2.620784   -1.250350
     20          1           0        3.538616   -3.618966   -1.166618
     21          6           0       -4.492934    0.978610   -1.205117
     22          6           0       -4.663811    0.754725    0.164992
     23          6           0       -3.692186    0.067636    0.898751
     24          6           0       -2.556883   -0.383682    0.227418
     25          6           0       -2.357770   -0.176256   -1.136627
     26          6           0       -3.342488    0.513225   -1.850416
     27          1           0       -5.252802    1.513285   -1.767362
     28          1           0       -5.556253    1.115005    0.668766
     29          1           0       -3.799003   -0.119485    1.960351
     30          1           0       -1.457501   -0.547443   -1.611132
     31          1           0       -3.207114    0.685652   -2.914365
     32          7           0       -1.521337   -1.112339    0.993645
     33          8           0       -0.530115   -1.499784    0.378826
     34          8           0       -1.720506   -1.282216    2.194524
 ---------------------------------------------------------------------

 SCF Done:  E(RHF) =  -669.536375202     A.U. after   15 cycles
 E2 =    -0.2091109727D+01 EUMP2 =    -0.67162748492877D+03

 The electronic state is 1-A.
 Alpha  occ. eigenvalues --  -20.60983 -20.60978 -15.86015 -11.31299 -11.27862
 Alpha  occ. eigenvalues --  -11.27852 -11.27595 -11.26862 -11.26851 -11.21031
 Alpha  occ. eigenvalues --  -11.20678 -11.20617 -11.20482 -11.20363 -11.20110
 Alpha  occ. eigenvalues --   -1.60043  -1.39599  -1.19466  -1.08878  -1.07602
 Alpha  occ. eigenvalues --   -1.04857  -1.02728  -0.95725  -0.95222  -0.86260
 Alpha  occ. eigenvalues --   -0.86243  -0.82562  -0.78804  -0.77634  -0.77361
 Alpha  occ. eigenvalues --   -0.72241  -0.71353  -0.70575  -0.65125  -0.64861
 Alpha  occ. eigenvalues --   -0.64221  -0.62204  -0.60114  -0.58604  -0.56815
 Alpha  occ. eigenvalues --   -0.55365  -0.54519  -0.53191  -0.52949  -0.51935
 Alpha  occ. eigenvalues --   -0.51648  -0.49190  -0.48997  -0.48988  -0.47120
 Alpha  occ. eigenvalues --   -0.45812  -0.45173  -0.44948  -0.44608  -0.42982
 Alpha  occ. eigenvalues --   -0.37445  -0.36457
 Alpha virt. eigenvalues --    0.04897   0.11198   0.16383   0.21293   0.23659
 Alpha virt. eigenvalues --    0.25070   0.27183   0.27430   0.27752   0.28590
 Alpha virt. eigenvalues --    0.28881   0.30968   0.32115   0.32198   0.32758

 Mulliken charges:
               1
     1  C   -0.299414
     2  C   -0.299001
     3  C   -0.475091
     4  H    0.143403
     5  H    0.157377
     6  H    0.149737
     7  H    0.152904
     8  H    0.154795
     9  H    0.151927
    10  H    0.158422
    11  C   -0.296827
    12  C   -0.311987
    13  C   -0.474544
    14  H    0.144325
    15  H    0.150389
    16  H    0.142711
    17  H    0.183327
    18  H    0.155496
    19  H    0.149414
    20  H    0.158890
    21  C   -0.170468
    22  C   -0.218625
    23  C   -0.170565
    24  C    0.157236
    25  C   -0.170470
    26  C   -0.218538
    27  H    0.226063
    28  H    0.223821
    29  H    0.275760
    30  H    0.276499
    31  H    0.223976
    32  N    0.494187
    33  O   -0.466190
    34  O   -0.458940
 Sum of Mulliken charges =  -0.00000

 Dipole moment (field-independent basis, Debye):
    X=             -3.9353    Y=              2.4702    Z=             -2.5849  Tot=              5.3170
 Quadrupole moment (field-independent basis, Debye-Ang):
   XX=            -76.0954   YY=            -98.8601   ZZ=            -91.9953
   XY=             -5.2206   XZ=              3.7127   YZ=              1.6323

 Normal termination of Gaussian 16 at Thu May  6 07:18:53 2021.
