 Gaussian 16, Revision A.03,
 Gaussian 16:  EM64L-G16RevA.03 25-Dec-2016

 -------------
 #p 6-31g* mp2
 -------------

 ------------------------------------------------------
 Input file generated by CHIRIPA (05-May-2021 14:51:10)
 ------------------------------------------------------
 Symbolic Z-matrix:
 Charge =  0 Multiplicity = 1

                         Standard orientation:
 ---------------------------------------------------------------------
 Center     Atomic      Atomic             Coordinates (Angstroms)
 Number     Number       Type             X           Y           Z
 ---------------------------------------------------------------------
      1          6           0        3.095200   -0.502648   -0.520388
      2          6           0        3.689272   -1.878960   -0.219008
      3          6           0        2.813961   -3.024871   -0.727450
      4          1           0        2.097491   -0.433421   -0.065714
      5          1           0        2.951967   -0.402379   -1.605203
      6          1           0        3.832630   -1.976072    0.864797
      7          1           0        4.685762   -1.944849   -0.674290
      8          1           0        2.680731   -2.955936   -1.811931
      9          1           0        1.822751   -2.987337   -0.264099
     10          1           0        3.257438   -3.999596   -0.501400
     11          6           0        3.958793    0.653114   -0.018242
     12          6           0        3.364721    2.029425   -0.319621
     13          6           0        4.240032    3.175336    0.188821
     14          1           0        4.102026    0.552845    1.066574
     15          1           0        4.956502    0.583887   -0.472916
     16          1           0        2.368230    2.095314    0.135661
     17          1           0        3.221363    2.126538   -1.403426
     18          1           0        5.231242    3.137802   -0.274530
     19          1           0        4.373262    3.106401    1.273302
     20          1           0        3.796554    4.150061   -0.037229
     21          6           0       -2.903443   -0.516051    0.252201
     22          6           0       -1.956562   -0.272974    1.427920
     23          6           0       -0.713756   -1.162300    1.379680
     24          1           0       -3.206468   -1.572024    0.245951
     25          1           0       -2.362165   -0.340625   -0.687819
     26          1           0       -2.499850   -0.447462    2.365475
     27          1           0       -1.655905    0.782587    1.431485
     28          1           0       -0.147131   -0.982908    0.460247
     29          1           0       -0.995871   -2.219946    1.399544
     30          1           0       -0.050706   -0.972022    2.229397
     31          6           0       -4.150549    0.365585    0.286428
     32          6           0       -5.097431    0.122509   -0.889291
     33          6           0       -6.340237    1.011834   -0.841051
     34          1           0       -4.691828    0.190159    1.226448
     35          1           0       -3.847523    1.421559    0.292678
     36          1           0       -5.398086   -0.933052   -0.892855
     37          1           0       -4.554143    0.296998   -1.826846
     38          1           0       -6.058122    2.069482   -0.860915
     39          1           0       -6.906861    0.832443    0.078382
     40          1           0       -7.003287    0.821556   -1.690768
 ---------------------------------------------------------------------

 SCF Done:  E(RHF) =  -470.733188182     A.U. after   11 cycles
 E2 =    -0.1582902949D+01 EUMP2 =    -0.47231609113072D+03

 The electronic state is 1-A.
 Alpha  occ. eigenvalues --  -11.21664 -11.21617 -11.21592 -11.21538 -11.21435
 Alpha  occ. eigenvalues --  -11.21375 -11.21357 -11.21281 -11.21150 -11.21083
 Alpha  occ. eigenvalues --  -11.21065 -11.20988  -1.08468  -1.08387  -1.03578
 Alpha  occ. eigenvalues --   -1.03485  -0.96029  -0.95935  -0.87051  -0.86952
 Alpha  occ. eigenvalues --   -0.79667  -0.79531  -0.78294  -0.78187  -0.65143
 Alpha  occ. eigenvalues --   -0.64985  -0.61017  -0.60849  -0.59392  -0.59309
 Alpha  occ. eigenvalues --   -0.57635  -0.57550  -0.55387  -0.55166  -0.52727
 Alpha  occ. eigenvalues --   -0.52634  -0.52460  -0.52365  -0.50064  -0.49816
 Alpha  occ. eigenvalues --   -0.48040  -0.47814  -0.46773  -0.46533  -0.45896
 Alpha  occ. eigenvalues --   -0.45770  -0.45708  -0.45421  -0.43822  -0.43741
 Alpha virt. eigenvalues --    0.21451   0.23036   0.23735   0.24493   0.25915
 Alpha virt. eigenvalues --    0.26661   0.27158   0.27554   0.28009   0.29265
 Alpha virt. eigenvalues --    0.30765   0.31171   0.31670   0.31837   0.32182

 Mulliken charges:
               1
     1  C   -0.306922
     2  C   -0.298632
     3  C   -0.479153
     4  H    0.158516
     5  H    0.148543
     6  H    0.151774
     7  H    0.151537
     8  H    0.154478
     9  H    0.159391
    10  H    0.159881
    11  C   -0.297532
    12  C   -0.299653
    13  C   -0.475649
    14  H    0.149389
    15  H    0.149518
    16  H    0.151492
    17  H    0.151690
    18  H    0.155236
    19  H    0.155198
    20  H    0.160044
    21  C   -0.298716
    22  C   -0.299687
    23  C   -0.483012
    24  H    0.149853
    25  H    0.150142
    26  H    0.152245
    27  H    0.151927
    28  H    0.161917
    29  H    0.155881
    30  H    0.159977
    31  C   -0.298359
    32  C   -0.299711
    33  C   -0.475736
    34  H    0.149565
    35  H    0.149727
    36  H    0.152017
    37  H    0.152078
    38  H    0.155216
    39  H    0.155189
    40  H    0.160342
 Sum of Mulliken charges =  -0.00000

 Dipole moment (field-independent basis, Debye):
    X=             -0.0453    Y=             -0.0057    Z=              0.0115  Tot=              0.0471
 Quadrupole moment (field-independent basis, Debye-Ang):
   XX=            -85.5709   YY=            -85.5148   ZZ=            -83.8168
   XY=              0.4512   XZ=             -0.9280   YZ=             -0.6672

 Normal termination of Gaussian 16 at Thu May  6 03:46:12 2021.
