 Gaussian 16, Revision A.03,
 Gaussian 16:  EM64L-G16RevA.03 25-Dec-2016

 -------------
 #p 6-31g* mp2
 -------------

 ------------------------------------------------------
 Input file generated by CHIRIPA (05-May-2021 14:51:12)
 ------------------------------------------------------
 Symbolic Z-matrix:
 Charge =  0 Multiplicity = 1

                         Standard orientation:
 ---------------------------------------------------------------------
 Center     Atomic      Atomic             Coordinates (Angstroms)
 Number     Number       Type             X           Y           Z
 ---------------------------------------------------------------------
      1          6           0        2.814868   -0.429329    0.609599
      2          6           0        1.731585   -1.493166    0.428678
      3          6           0        0.536216   -1.283780    1.358756
      4          1           0        3.155533   -0.435944    1.654036
      5          1           0        2.378338    0.562839    0.429486
      6          1           0        2.170357   -2.483134    0.607724
      7          1           0        1.393595   -1.484147   -0.615495
      8          1           0        0.072027   -0.309227    1.176067
      9          1           0        0.853202   -1.313891    2.406237
     10          1           0       -0.226109   -2.055390    1.212681
     11          6           0        4.016391   -0.625131   -0.313294
     12          6           0        5.099674    0.438706   -0.132373
     13          6           0        6.295042    0.229320   -1.062452
     14          1           0        4.452920   -1.617299   -0.133181
     15          1           0        3.675725   -0.618516   -1.357731
     16          1           0        5.437664    0.429687    0.911800
     17          1           0        4.660902    1.428675   -0.311419
     18          1           0        5.978057    0.259431   -2.109932
     19          1           0        6.759232   -0.745232   -0.879762
     20          1           0        7.057368    1.000930   -0.916376
     21          6           0       -3.998325    0.184666   -0.503888
     22          6           0       -4.216060   -1.261262   -0.056817
     23          6           0       -5.385276   -1.933142   -0.777445
     24          1           0       -4.918254    0.758757   -0.327553
     25          1           0       -3.821350    0.203155   -1.588200
     26          1           0       -4.391198   -1.277156    1.026552
     27          1           0       -3.295443   -1.831933   -0.234059
     28          1           0       -5.214739   -1.946774   -1.858802
     29          1           0       -6.316721   -1.388845   -0.591028
     30          1           0       -5.523076   -2.966002   -0.442677
     31          6           0       -2.832934    0.869795    0.207583
     32          6           0       -2.615199    2.315721   -0.239487
     33          6           0       -1.445983    2.987602    0.481140
     34          1           0       -3.009909    0.851304    1.291895
     35          1           0       -1.913005    0.295702    0.031249
     36          1           0       -3.535815    2.886392   -0.062245
     37          1           0       -2.440060    2.331615   -1.322857
     38          1           0       -0.514537    2.443305    0.294723
     39          1           0       -1.616519    3.001234    1.562497
     40          1           0       -1.308182    4.020463    0.146372
 ---------------------------------------------------------------------

 SCF Done:  E(RHF) =  -470.733091488     A.U. after   11 cycles
 E2 =    -0.1583104045D+01 EUMP2 =    -0.47231619553256D+03

 The electronic state is 1-A.
 Alpha  occ. eigenvalues --  -11.21613 -11.21610 -11.21606 -11.21585 -11.21420
 Alpha  occ. eigenvalues --  -11.21375 -11.21360 -11.21304 -11.21121 -11.21075
 Alpha  occ. eigenvalues --  -11.21061 -11.21021  -1.08448  -1.08414  -1.03549
 Alpha  occ. eigenvalues --   -1.03519  -0.96003  -0.95961  -0.87028  -0.86972
 Alpha  occ. eigenvalues --   -0.79644  -0.79555  -0.78294  -0.78188  -0.65151
 Alpha  occ. eigenvalues --   -0.64987  -0.61023  -0.60853  -0.59382  -0.59320
 Alpha  occ. eigenvalues --   -0.57596  -0.57586  -0.55377  -0.55185  -0.52714
 Alpha  occ. eigenvalues --   -0.52649  -0.52457  -0.52352  -0.50038  -0.49852
 Alpha  occ. eigenvalues --   -0.48034  -0.47810  -0.46785  -0.46555  -0.45886
 Alpha  occ. eigenvalues --   -0.45761  -0.45717  -0.45409  -0.43796  -0.43766
 Alpha virt. eigenvalues --    0.20616   0.23081   0.23509   0.24311   0.26066
 Alpha virt. eigenvalues --    0.26541   0.26989   0.27148   0.28260   0.29697
 Alpha virt. eigenvalues --    0.30020   0.31296   0.31709   0.31796   0.31850

 Mulliken charges:
               1
     1  C   -0.298806
     2  C   -0.300111
     3  C   -0.482322
     4  H    0.150053
     5  H    0.149478
     6  H    0.152157
     7  H    0.151054
     8  H    0.162156
     9  H    0.155312
    10  H    0.160393
    11  C   -0.298267
    12  C   -0.299701
    13  C   -0.475715
    14  H    0.149649
    15  H    0.149476
    16  H    0.152044
    17  H    0.152059
    18  H    0.155132
    19  H    0.155179
    20  H    0.160325
    21  C   -0.297856
    22  C   -0.300098
    23  C   -0.475707
    24  H    0.149499
    25  H    0.149100
    26  H    0.152180
    27  H    0.152289
    28  H    0.155067
    29  H    0.155193
    30  H    0.160194
    31  C   -0.304346
    32  C   -0.299536
    33  C   -0.477583
    34  H    0.149604
    35  H    0.157222
    36  H    0.152061
    37  H    0.151511
    38  H    0.155147
    39  H    0.155898
    40  H    0.160617
 Sum of Mulliken charges =  -0.00000

 Dipole moment (field-independent basis, Debye):
    X=             -0.0035    Y=              0.0041    Z=              0.0177  Tot=              0.0185
 Quadrupole moment (field-independent basis, Debye-Ang):
   XX=            -85.7315   YY=            -84.7674   ZZ=            -84.2821
   XY=             -0.9663   XZ=              0.0446   YZ=             -0.4565

 Normal termination of Gaussian 16 at Thu May  6 02:17:49 2021.
