 Gaussian 16, Revision A.03,
 Gaussian 16:  EM64L-G16RevA.03 25-Dec-2016

 -------------
 #p 6-31g* mp2
 -------------

 ------------------------------------------------------
 Input file generated by CHIRIPA (05-May-2021 14:57:22)
 ------------------------------------------------------
 Symbolic Z-matrix:
 Charge =  0 Multiplicity = 1

                         Standard orientation:
 ---------------------------------------------------------------------
 Center     Atomic      Atomic             Coordinates (Angstroms)
 Number     Number       Type             X           Y           Z
 ---------------------------------------------------------------------
      1          6           0        2.451608   -1.916557    1.425344
      2          6           0        1.666747   -0.909044    0.854877
      3          6           0        2.259548    0.123807    0.122517
      4          6           0        3.646234    0.118055   -0.020169
      5          6           0        4.455251   -0.871546    0.536131
      6          6           0        3.840905   -1.894631    1.264434
      7          1           0        1.982737   -2.715108    1.992683
      8          1           0        0.587569   -0.923520    0.978212
      9          1           0        1.675795    0.916327   -0.329769
     10          1           0        5.528598   -0.830221    0.396002
     11          1           0        4.452939   -2.675765    1.706349
     12          7           0        4.285210    1.206319   -0.793339
     13          8           0        5.508934    1.178545   -0.904537
     14          8           0        3.550216    2.066468   -1.273510
     15          6           0       -3.847706    2.263759    1.084798
     16          6           0       -4.961488    1.482056    0.760840
     17          6           0       -4.803384    0.260016    0.100407
     18          6           0       -3.511264   -0.151622   -0.222502
     19          6           0       -2.381832    0.604713    0.086743
     20          6           0       -2.563697    1.823370    0.747311
     21          1           0       -3.979754    3.211754    1.597892
     22          1           0       -5.959853    1.821558    1.021704
     23          1           0       -5.648216   -0.365003   -0.162323
     24          1           0       -1.399116    0.239837   -0.186299
     25          1           0       -1.696893    2.428370    0.997650
     26          7           0       -3.331310   -1.443548   -0.921744
     27          8           0       -2.182394   -1.783877   -1.195252
     28          8           0       -4.342585   -2.091370   -1.183063
 ---------------------------------------------------------------------

 SCF Done:  E(RHF) =  -868.337614182     A.U. after   16 cycles
 E2 =    -0.2599707005D+01 EUMP2 =    -0.87093732118690D+03

 The electronic state is 1-A.
 Alpha  occ. eigenvalues --  -20.61406 -20.61376 -20.60838 -20.60827 -15.86442
 Alpha  occ. eigenvalues --  -15.85889 -11.31820 -11.31230 -11.28465 -11.28312
 Alpha  occ. eigenvalues --  -11.28034 -11.27855 -11.27760 -11.27468 -11.27386
 Alpha  occ. eigenvalues --  -11.27322 -11.26807 -11.26755  -1.60465  -1.59910
 Alpha  occ. eigenvalues --   -1.40021  -1.39466  -1.19966  -1.19385  -1.09343
 Alpha  occ. eigenvalues --   -1.08769  -1.05378  -1.04802  -0.96190  -0.95619
 Alpha  occ. eigenvalues --   -0.86768  -0.86185  -0.83026  -0.82470  -0.78104
 Alpha  occ. eigenvalues --   -0.77525  -0.72656  -0.72108  -0.71787  -0.71230
 Alpha  occ. eigenvalues --   -0.71071  -0.70480  -0.65614  -0.65392  -0.65041
 Alpha  occ. eigenvalues --   -0.64793  -0.62805  -0.62096  -0.55833  -0.55253
 Alpha  occ. eigenvalues --   -0.53688  -0.53483  -0.53099  -0.52871  -0.49427
 Alpha  occ. eigenvalues --   -0.49407  -0.48869  -0.48858  -0.45424  -0.44878
 Alpha  occ. eigenvalues --   -0.37908  -0.37323  -0.36974  -0.36392
 Alpha virt. eigenvalues --    0.04420   0.05022   0.10626   0.11275   0.15973
 Alpha virt. eigenvalues --    0.16521   0.18629   0.22085   0.24725   0.27272
 Alpha virt. eigenvalues --    0.28129   0.29619   0.30135   0.31084   0.32254

 Mulliken charges:
               1
     1  C   -0.169939
     2  C   -0.216942
     3  C   -0.171796
     4  C    0.159015
     5  C   -0.170789
     6  C   -0.218165
     7  H    0.228853
     8  H    0.224398
     9  H    0.267728
    10  H    0.275866
    11  H    0.224361
    12  N    0.488395
    13  O   -0.459540
    14  O   -0.462553
    15  C   -0.170408
    16  C   -0.217699
    17  C   -0.170219
    18  C    0.159782
    19  C   -0.178768
    20  C   -0.218139
    21  H    0.228814
    22  H    0.226088
    23  H    0.277336
    24  H    0.272037
    25  H    0.225549
    26  N    0.487822
    27  O   -0.464184
    28  O   -0.456903
 Sum of Mulliken charges =  -0.00000

 Dipole moment (field-independent basis, Debye):
    X=             -3.0630    Y=              0.6691    Z=              5.2503  Tot=              6.1152
 Quadrupole moment (field-independent basis, Debye-Ang):
   XX=           -106.4740   YY=           -106.9620   ZZ=           -107.4247
   XY=            -32.3224   XZ=              2.2816   YZ=             -1.3606

 Normal termination of Gaussian 16 at Fri May  7 04:48:09 2021.
