 Gaussian 16, Revision A.03,
 Gaussian 16:  EM64L-G16RevA.03 25-Dec-2016

 -------------
 #p 6-31g* mp2
 -------------

 ------------------------------------------------------
 Input file generated by CHIRIPA (05-May-2021 14:51:08)
 ------------------------------------------------------
 Symbolic Z-matrix:
 Charge =  0 Multiplicity = 1

                         Standard orientation:
 ---------------------------------------------------------------------
 Center     Atomic      Atomic             Coordinates (Angstroms)
 Number     Number       Type             X           Y           Z
 ---------------------------------------------------------------------
      1          6           0       -3.243930   -0.102819   -0.295702
      2          6           0       -4.649385   -0.637845   -0.572159
      3          6           0       -5.194550   -0.193667   -1.929839
      4          1           0       -3.260022    0.994578   -0.344749
      5          1           0       -2.566995   -0.441409   -1.092263
      6          1           0       -5.323175   -0.299496    0.225426
      7          1           0       -4.629986   -1.734088   -0.522258
      8          1           0       -4.545604   -0.544159   -2.738928
      9          1           0       -5.242732    0.898584   -1.986995
     10          1           0       -6.200293   -0.587352   -2.106909
     11          6           0       -2.685299   -0.538319    1.057812
     12          6           0       -1.279844   -0.003293    1.334269
     13          6           0       -0.734679   -0.447470    2.691949
     14          1           0       -3.362235   -0.199729    1.854373
     15          1           0       -2.669207   -1.635716    1.106860
     16          1           0       -1.299244    1.092951    1.284369
     17          1           0       -0.606054   -0.341642    0.536684
     18          1           0       -0.686497   -1.539722    2.749105
     19          1           0       -1.383625   -0.096978    3.501038
     20          1           0        0.271064   -0.053785    2.869019
     21          6           0        2.745092    0.982782   -0.692047
     22          6           0        2.053394    1.918666    0.299749
     23          6           0        1.620078    3.239345   -0.337306
     24          1           0        3.621316    1.491618   -1.116621
     25          1           0        2.064349    0.780532   -1.530545
     26          1           0        2.734727    2.117985    1.136811
     27          1           0        1.178825    1.407473    0.722153
     28          1           0        0.920587    3.059006   -1.159979
     29          1           0        2.485329    3.773556   -0.742965
     30          1           0        1.127839    3.893162    0.389389
     31          6           0        3.184137   -0.341644   -0.070063
     32          6           0        3.875834   -1.277529   -1.061859
     33          6           0        4.309152   -2.598208   -0.424804
     34          1           0        3.864881   -0.139395    0.768434
     35          1           0        2.307914   -0.850481    0.354510
     36          1           0        4.750404   -0.766336   -1.484264
     37          1           0        3.194502   -1.476847   -1.898921
     38          1           0        3.443901   -3.132418   -0.019146
     39          1           0        5.008642   -2.417869    0.397869
     40          1           0        4.801390   -3.252024   -1.151499
 ---------------------------------------------------------------------

 SCF Done:  E(RHF) =  -470.732904244     A.U. after   11 cycles
 E2 =    -0.1583788035D+01 EUMP2 =    -0.47231669227837D+03

 The electronic state is 1-A.
 Alpha  occ. eigenvalues --  -11.21690 -11.21642 -11.21598 -11.21463 -11.21463
 Alpha  occ. eigenvalues --  -11.21403 -11.21380 -11.21313 -11.21123 -11.21103
 Alpha  occ. eigenvalues --  -11.21071 -11.21020  -1.08505  -1.08387  -1.03615
 Alpha  occ. eigenvalues --   -1.03472  -0.96036  -0.95948  -0.87047  -0.86964
 Alpha  occ. eigenvalues --   -0.79740  -0.79505  -0.78383  -0.78137  -0.65158
 Alpha  occ. eigenvalues --   -0.65012  -0.60990  -0.60933  -0.59473  -0.59238
 Alpha  occ. eigenvalues --   -0.57672  -0.57530  -0.55334  -0.55220  -0.52738
 Alpha  occ. eigenvalues --   -0.52633  -0.52461  -0.52367  -0.49973  -0.49893
 Alpha  occ. eigenvalues --   -0.48072  -0.47820  -0.46705  -0.46597  -0.46007
 Alpha  occ. eigenvalues --   -0.45773  -0.45720  -0.45405  -0.43839  -0.43748
 Alpha virt. eigenvalues --    0.20592   0.23167   0.23746   0.24386   0.25908
 Alpha virt. eigenvalues --    0.26479   0.26760   0.27890   0.28038   0.29410
 Alpha virt. eigenvalues --    0.30581   0.31406   0.31559   0.31858   0.32159

 Mulliken charges:
               1
     1  C   -0.298478
     2  C   -0.299712
     3  C   -0.475745
     4  H    0.149927
     5  H    0.149118
     6  H    0.152109
     7  H    0.152012
     8  H    0.155143
     9  H    0.155314
    10  H    0.160429
    11  C   -0.297005
    12  C   -0.305340
    13  C   -0.478694
    14  H    0.149913
    15  H    0.149745
    16  H    0.153410
    17  H    0.153079
    18  H    0.155342
    19  H    0.155756
    20  H    0.163410
    21  C   -0.297332
    22  C   -0.312682
    23  C   -0.475148
    24  H    0.149456
    25  H    0.148824
    26  H    0.150608
    27  H    0.168354
    28  H    0.155064
    29  H    0.154885
    30  H    0.159380
    31  C   -0.301300
    32  C   -0.299507
    33  C   -0.475651
    34  H    0.149542
    35  H    0.151598
    36  H    0.152129
    37  H    0.151585
    38  H    0.154981
    39  H    0.155288
    40  H    0.160193
 Sum of Mulliken charges =  -0.00000

 Dipole moment (field-independent basis, Debye):
    X=             -0.0457    Y=             -0.0116    Z=              0.0246  Tot=              0.0532
 Quadrupole moment (field-independent basis, Debye-Ang):
   XX=            -84.2640   YY=            -85.0689   ZZ=            -85.5157
   XY=              0.4661   XZ=             -0.5792   YZ=              1.0204

 Normal termination of Gaussian 16 at Thu May  6 13:12:50 2021.
