 Gaussian 16, Revision A.03,
 Gaussian 16:  EM64L-G16RevA.03 25-Dec-2016

 -------------
 #p 6-31g* mp2
 -------------

 ------------------------------------------------------
 Input file generated by CHIRIPA (05-May-2021 14:51:09)
 ------------------------------------------------------
 Symbolic Z-matrix:
 Charge =  0 Multiplicity = 1

                         Standard orientation:
 ---------------------------------------------------------------------
 Center     Atomic      Atomic             Coordinates (Angstroms)
 Number     Number       Type             X           Y           Z
 ---------------------------------------------------------------------
      1          6           0       -3.516111   -0.568955    0.364962
      2          6           0       -2.525642   -1.302310   -0.540104
      3          6           0       -1.729705   -2.376129    0.202318
      4          1           0       -2.969484   -0.110344    1.200318
      5          1           0       -4.207806   -1.299164    0.807396
      6          1           0       -1.836888   -0.570767   -0.981783
      7          1           0       -3.074667   -1.759067   -1.373508
      8          1           0       -2.401728   -3.127629    0.629207
      9          1           0       -1.156916   -1.932578    1.023157
     10          1           0       -1.027763   -2.887811   -0.463503
     11          6           0       -4.319293    0.507589   -0.362829
     12          6           0       -5.309763    1.240944    0.542238
     13          6           0       -6.105699    2.314763   -0.200185
     14          1           0       -3.627598    1.237798   -0.805263
     15          1           0       -4.865920    0.048978   -1.198185
     16          1           0       -4.760738    1.697701    1.375641
     17          1           0       -5.998517    0.509401    0.983916
     18          1           0       -6.678488    1.871212   -1.021024
     19          1           0       -5.433676    3.066263   -0.627074
     20          1           0       -6.807641    2.826445    0.465636
     21          6           0        4.603860    0.363284    0.043604
     22          6           0        4.544884    1.888849   -0.040988
     23          6           0        5.925414    2.539756    0.049838
     24          1           0        5.086287    0.073093    0.987002
     25          1           0        5.243615   -0.017344   -0.764623
     26          1           0        3.904316    2.266396    0.766321
     27          1           0        4.062369    2.175440   -0.984207
     28          1           0        6.569913    2.191251   -0.763651
     29          1           0        6.410962    2.282724    0.996822
     30          1           0        5.859908    3.630468   -0.012749
     31          6           0        3.231544   -0.301917   -0.045738
     32          6           0        3.290521   -1.827483    0.038855
     33          6           0        1.909990   -2.478391   -0.051971
     34          1           0        2.591789    0.078710    0.762490
     35          1           0        2.749117   -0.011728   -0.989136
     36          1           0        3.773035   -2.114074    0.982074
     37          1           0        3.931089   -2.205029   -0.768453
     38          1           0        1.424441   -2.221357   -0.998955
     39          1           0        1.265490   -2.129885    0.761518
     40          1           0        1.975496   -3.569102    0.010615
 ---------------------------------------------------------------------

 SCF Done:  E(RHF) =  -470.732210079     A.U. after   11 cycles
 E2 =    -0.1582885636D+01 EUMP2 =    -0.47231509571533D+03

 The electronic state is 1-A.
 Alpha  occ. eigenvalues --  -11.21606 -11.21580 -11.21549 -11.21532 -11.21400
 Alpha  occ. eigenvalues --  -11.21368 -11.21341 -11.21308 -11.21075 -11.21055
 Alpha  occ. eigenvalues --  -11.20971 -11.20906  -1.08422  -1.08384  -1.03542
 Alpha  occ. eigenvalues --   -1.03446  -0.96049  -0.95843  -0.87126  -0.86804
 Alpha  occ. eigenvalues --   -0.79689  -0.79437  -0.78241  -0.78194  -0.65060
 Alpha  occ. eigenvalues --   -0.65012  -0.60978  -0.60831  -0.59349  -0.59300
 Alpha  occ. eigenvalues --   -0.57643  -0.57479  -0.55391  -0.55104  -0.52932
 Alpha  occ. eigenvalues --   -0.52580  -0.52359  -0.52123  -0.50061  -0.49711
 Alpha  occ. eigenvalues --   -0.47881  -0.47832  -0.46697  -0.46461  -0.45786
 Alpha  occ. eigenvalues --   -0.45738  -0.45700  -0.45622  -0.43836  -0.43629
 Alpha virt. eigenvalues --    0.22191   0.23033   0.23586   0.24880   0.26075
 Alpha virt. eigenvalues --    0.26595   0.27065   0.27511   0.27595   0.29244
 Alpha virt. eigenvalues --    0.29498   0.31293   0.31573   0.32076   0.32359

 Mulliken charges:
               1
     1  C   -0.298321
     2  C   -0.300271
     3  C   -0.477703
     4  H    0.149354
     5  H    0.149463
     6  H    0.151747
     7  H    0.151427
     8  H    0.153588
     9  H    0.154723
    10  H    0.166870
    11  C   -0.298225
    12  C   -0.299596
    13  C   -0.475676
    14  H    0.149439
    15  H    0.149551
    16  H    0.151820
    17  H    0.151877
    18  H    0.155139
    19  H    0.155136
    20  H    0.160157
    21  C   -0.298189
    22  C   -0.299606
    23  C   -0.475692
    24  H    0.149659
    25  H    0.149596
    26  H    0.151732
    27  H    0.151840
    28  H    0.155223
    29  H    0.155197
    30  H    0.160203
    31  C   -0.298001
    32  C   -0.300911
    33  C   -0.476684
    34  H    0.148794
    35  H    0.149349
    36  H    0.151581
    37  H    0.151384
    38  H    0.154234
    39  H    0.160157
    40  H    0.159632
 Sum of Mulliken charges =  -0.00000

 Dipole moment (field-independent basis, Debye):
    X=              0.0056    Y=             -0.0250    Z=              0.0004  Tot=              0.0257
 Quadrupole moment (field-independent basis, Debye-Ang):
   XX=            -85.7997   YY=            -85.3220   ZZ=            -83.8565
   XY=              0.4711   XZ=             -0.2037   YZ=              0.5130

 Normal termination of Gaussian 16 at Thu May  6 06:55:44 2021.
