 Gaussian 16, Revision A.03,
 Gaussian 16:  EM64L-G16RevA.03 25-Dec-2016

 -------------
 #p 6-31g* mp2
 -------------

 ------------------------------------------------------
 Input file generated by CHIRIPA (05-May-2021 14:53:16)
 ------------------------------------------------------
 Symbolic Z-matrix:
 Charge =  0 Multiplicity = 1

                         Standard orientation:
 ---------------------------------------------------------------------
 Center     Atomic      Atomic             Coordinates (Angstroms)
 Number     Number       Type             X           Y           Z
 ---------------------------------------------------------------------
      1          6           0       -2.548672   -0.697242    0.821520
      2          6           0       -1.094289   -0.318202    1.102742
      3          6           0       -0.304198   -1.451344    1.758133
      4          1           0       -3.033973   -0.987520    1.763415
      5          1           0       -2.570355   -1.583697    0.172581
      6          1           0       -1.075355    0.568102    1.749831
      7          1           0       -0.612447   -0.028608    0.160097
      8          1           0       -0.293329   -2.336314    1.113686
      9          1           0       -0.758866   -1.736214    2.712453
     10          1           0        0.732806   -1.158847    1.950303
     11          6           0       -3.351467    0.425292    0.166413
     12          6           0       -4.805849    0.046252   -0.114809
     13          6           0       -5.595941    1.179395   -0.770199
     14          1           0       -3.329784    1.311747    0.815352
     15          1           0       -2.866165    0.715570   -0.775482
     16          1           0       -5.287691   -0.243341    0.827837
     17          1           0       -4.824784   -0.840051   -0.761897
     18          1           0       -5.141272    1.464264   -1.724519
     19          1           0       -5.606809    2.064365   -0.125753
     20          1           0       -6.632944    0.886898   -0.962370
     21          6           0        3.026062    2.350182    0.514254
     22          6           0        2.228593    2.279572   -0.632733
     23          6           0        1.823001    1.041702   -1.140392
     24          6           0        2.235007   -0.110707   -0.472936
     25          6           0        3.029532   -0.073136    0.671882
     26          6           0        3.423286    1.175673    1.161759
     27          1           0        3.336537    3.316040    0.901710
     28          1           0        1.918602    3.190066   -1.137658
     29          1           0        1.205617    0.958112   -2.026545
     30          1           0        3.322718   -0.998094    1.153455
     31          1           0        4.042609    1.227479    2.052714
     32          7           0        1.811891   -1.426975   -1.000960
     33          8           0        2.188232   -2.427615   -0.394557
     34          8           0        1.111925   -1.433104   -2.011230
 ---------------------------------------------------------------------

 SCF Done:  E(RHF) =  -669.533483116     A.U. after   15 cycles
 E2 =    -0.2096406980D+01 EUMP2 =    -0.67162989009569D+03

 The electronic state is 1-A.
 Alpha  occ. eigenvalues --  -20.60900 -20.60891 -15.85894 -11.31210 -11.27798
 Alpha  occ. eigenvalues --  -11.27792 -11.27543 -11.26822 -11.26808 -11.21350
 Alpha  occ. eigenvalues --  -11.21207 -11.21122 -11.20959 -11.20908 -11.20452
 Alpha  occ. eigenvalues --   -1.59951  -1.39509  -1.19425  -1.08825  -1.08102
 Alpha  occ. eigenvalues --   -1.04825  -1.03217  -0.95694  -0.95628  -0.86690
 Alpha  occ. eigenvalues --   -0.86207  -0.82498  -0.79284  -0.77931  -0.77551
 Alpha  occ. eigenvalues --   -0.72147  -0.71353  -0.70538  -0.65076  -0.64826
 Alpha  occ. eigenvalues --   -0.64708  -0.62180  -0.60580  -0.59081  -0.57354
 Alpha  occ. eigenvalues --   -0.55321  -0.54906  -0.53209  -0.52915  -0.52272
 Alpha  occ. eigenvalues --   -0.52015  -0.49606  -0.48910  -0.48900  -0.47615
 Alpha  occ. eigenvalues --   -0.46435  -0.45526  -0.45419  -0.44663  -0.43432
 Alpha  occ. eigenvalues --   -0.37311  -0.36355
 Alpha virt. eigenvalues --    0.04913   0.11092   0.16454   0.21280   0.23194
 Alpha virt. eigenvalues --    0.24641   0.26718   0.27129   0.27692   0.28350
 Alpha virt. eigenvalues --    0.28567   0.30801   0.31426   0.31832   0.32095

 Mulliken charges:
               1
     1  C   -0.297919
     2  C   -0.302953
     3  C   -0.487978
     4  H    0.147940
     5  H    0.156713
     6  H    0.146849
     7  H    0.151259
     8  H    0.173819
     9  H    0.152902
    10  H    0.155158
    11  C   -0.297614
    12  C   -0.299741
    13  C   -0.475498
    14  H    0.145988
    15  H    0.148765
    16  H    0.151359
    17  H    0.154686
    18  H    0.154570
    19  H    0.153248
    20  H    0.160124
    21  C   -0.170697
    22  C   -0.216904
    23  C   -0.173383
    24  C    0.163089
    25  C   -0.174305
    26  C   -0.218661
    27  H    0.225864
    28  H    0.223808
    29  H    0.275038
    30  H    0.276191
    31  H    0.223806
    32  N    0.492182
    33  O   -0.457096
    34  O   -0.460608
 Sum of Mulliken charges =  -0.00000

 Dipole moment (field-independent basis, Debye):
    X=              1.6022    Y=              4.5202    Z=              1.7754  Tot=              5.1138
 Quadrupole moment (field-independent basis, Debye-Ang):
   XX=            -88.0142   YY=            -95.3429   ZZ=            -93.7703
   XY=              9.7413   XZ=              5.2150   YZ=             -3.6731

 Normal termination of Gaussian 16 at Thu May  6 17:14:18 2021.
