 Gaussian 16, Revision A.03,
 Gaussian 16:  EM64L-G16RevA.03 25-Dec-2016

 -------------
 #p 6-31g* mp2
 -------------

 ------------------------------------------------------
 Input file generated by CHIRIPA (05-May-2021 14:55:25)
 ------------------------------------------------------
 Symbolic Z-matrix:
 Charge =  0 Multiplicity = 1

                         Standard orientation:
 ---------------------------------------------------------------------
 Center     Atomic      Atomic             Coordinates (Angstroms)
 Number     Number       Type             X           Y           Z
 ---------------------------------------------------------------------
      1          6           0        0.980872   -0.630120    2.116650
      2          6           0        0.863203    0.564081    1.397929
      3          6           0        1.731886    0.843910    0.338857
      4          6           0        2.711111   -0.097043    0.024189
      5          6           0        2.853667   -1.295769    0.721343
      6          6           0        1.973977   -1.554603    1.776662
      7          1           0        0.301782   -0.839343    2.937904
      8          1           0        0.092890    1.283885    1.659741
      9          1           0        1.663133    1.760555   -0.234251
     10          1           0        3.631525   -1.993943    0.436898
     11          1           0        2.067702   -2.482860    2.333080
     12          7           0        3.636573    0.188087   -1.095017
     13          8           0        4.490853   -0.657241   -1.352435
     14          8           0        3.490146    1.251500   -1.693639
     15          6           0       -2.948400    0.708227    0.182757
     16          6           0       -3.053725    2.130804   -0.367851
     17          6           0       -2.395736    3.167539    0.543206
     18          1           0       -3.412920    0.671613    1.177657
     19          1           0       -1.888564    0.454370    0.323100
     20          1           0       -4.112998    2.381400   -0.508418
     21          1           0       -2.589072    2.163990   -1.361637
     22          1           0       -1.331849    2.945056    0.674536
     23          1           0       -2.864433    3.163701    1.532603
     24          1           0       -2.482709    4.177482    0.130517
     25          6           0       -3.601572   -0.339496   -0.716894
     26          6           0       -3.496248   -1.762072   -0.166287
     27          6           0       -4.154237   -2.798808   -1.077343
     28          1           0       -4.661410   -0.085639   -0.857239
     29          1           0       -3.137054   -0.302883   -1.711795
     30          1           0       -3.960901   -1.795259    0.827499
     31          1           0       -2.436975   -2.012669   -0.025720
     32          1           0       -3.685539   -2.794970   -2.066741
     33          1           0       -5.218123   -2.576325   -1.208674
     34          1           0       -4.067263   -3.808751   -0.664655
 ---------------------------------------------------------------------

 SCF Done:  E(RHF) =  -669.535034423     A.U. after   15 cycles
 E2 =    -0.2092767045D+01 EUMP2 =    -0.67162780146828D+03

 The electronic state is 1-A.
 Alpha  occ. eigenvalues --  -20.60795 -20.60790 -15.85849 -11.31230 -11.27798
 Alpha  occ. eigenvalues --  -11.27794 -11.27531 -11.26809 -11.26760 -11.22257
 Alpha  occ. eigenvalues --  -11.22064 -11.22003 -11.21995 -11.21847 -11.21427
 Alpha  occ. eigenvalues --   -1.59871  -1.39424  -1.19404  -1.09015  -1.08787
 Alpha  occ. eigenvalues --   -1.04813  -1.04124  -0.96585  -0.95623  -0.87603
 Alpha  occ. eigenvalues --   -0.86206  -0.82463  -0.80193  -0.78839  -0.77497
 Alpha  occ. eigenvalues --   -0.72066  -0.71194  -0.70496  -0.65704  -0.65051
 Alpha  occ. eigenvalues --   -0.64778  -0.62226  -0.61453  -0.59943  -0.58197
 Alpha  occ. eigenvalues --   -0.55901  -0.55291  -0.53278  -0.53173  -0.53031
 Alpha  occ. eigenvalues --   -0.52869  -0.50538  -0.48841  -0.48821  -0.48483
 Alpha  occ. eigenvalues --   -0.47197  -0.46351  -0.46252  -0.44826  -0.44355
 Alpha  occ. eigenvalues --   -0.37360  -0.36376
 Alpha virt. eigenvalues --    0.05024   0.11136   0.16445   0.19833   0.22670
 Alpha virt. eigenvalues --    0.23667   0.25589   0.26476   0.27014   0.28161
 Alpha virt. eigenvalues --    0.28888   0.30365   0.31142   0.31369   0.32299

 Mulliken charges:
               1
     1  C   -0.172653
     2  C   -0.221892
     3  C   -0.174610
     4  C    0.158633
     5  C   -0.170746
     6  C   -0.218576
     7  H    0.227217
     8  H    0.232958
     9  H    0.275513
    10  H    0.275803
    11  H    0.223711
    12  N    0.488113
    13  O   -0.460364
    14  O   -0.460261
    15  C   -0.306910
    16  C   -0.300241
    17  C   -0.478693
    18  H    0.146409
    19  H    0.151885
    20  H    0.155356
    21  H    0.156239
    22  H    0.145145
    23  H    0.155799
    24  H    0.166939
    25  C   -0.297868
    26  C   -0.300810
    27  C   -0.475999
    28  H    0.150893
    29  H    0.153133
    30  H    0.149652
    31  H    0.152280
    32  H    0.157609
    33  H    0.156044
    34  H    0.160290
 Sum of Mulliken charges =  -0.00000

 Dipole moment (field-independent basis, Debye):
    X=             -3.3414    Y=             -1.0149    Z=              3.8707  Tot=              5.2132
 Quadrupole moment (field-independent basis, Debye-Ang):
   XX=           -111.1180   YY=            -91.4181   ZZ=            -95.1094
   XY=             -5.4250   XZ=             10.7102   YZ=             -1.7459

 Normal termination of Gaussian 16 at Wed May  5 22:27:21 2021.
