 Gaussian 16, Revision A.03,
 Gaussian 16:  EM64L-G16RevA.03 25-Dec-2016

 -------------
 #p 6-31g* mp2
 -------------

 ------------------------------------------------------
 Input file generated by CHIRIPA (05-May-2021 14:51:13)
 ------------------------------------------------------
 Symbolic Z-matrix:
 Charge =  0 Multiplicity = 1

                         Standard orientation:
 ---------------------------------------------------------------------
 Center     Atomic      Atomic             Coordinates (Angstroms)
 Number     Number       Type             X           Y           Z
 ---------------------------------------------------------------------
      1          6           0        2.617011   -1.376360   -0.123632
      2          6           0        1.141037   -1.526026   -0.493882
      3          6           0        0.704972   -2.987197   -0.606213
      4          1           0        3.231285   -1.886863   -0.877952
      5          1           0        2.802490   -1.889679    0.830043
      6          1           0        0.958106   -1.011396   -1.445885
      7          1           0        0.530215   -1.014943    0.261305
      8          1           0        0.858977   -3.509298    0.343679
      9          1           0        1.289299   -3.505731   -1.373211
     10          1           0       -0.353500   -3.071000   -0.871684
     11          6           0        3.067962    0.078599   -0.007583
     12          6           0        4.543936    0.228265    0.362668
     13          6           0        4.980001    1.689436    0.474999
     14          1           0        2.882484    0.591918   -0.961257
     15          1           0        2.453688    0.589102    0.746738
     16          1           0        5.154758   -0.282818   -0.392519
     17          1           0        4.726867   -0.286364    1.314670
     18          1           0        4.395674    2.207970    1.241997
     19          1           0        4.825997    2.211537   -0.474893
     20          1           0        6.038473    1.773239    0.740469
     21          6           0       -3.201770    0.119702    0.483121
     22          6           0       -3.122221   -1.283922   -0.118126
     23          6           0       -3.845663   -2.331572    0.728546
     24          1           0       -2.772654    0.103396    1.494327
     25          1           0       -4.257315    0.403376    0.596041
     26          1           0       -2.067129   -1.564312   -0.231164
     27          1           0       -3.551403   -1.264231   -1.128092
     28          1           0       -4.905930   -2.078760    0.831111
     29          1           0       -3.413223   -2.380547    1.733135
     30          1           0       -3.776212   -3.327650    0.280363
     31          6           0       -2.483203    1.178059   -0.351906
     32          6           0       -2.562752    2.581683    0.249340
     33          6           0       -1.839310    3.629333   -0.597332
     34          1           0       -1.427658    0.894385   -0.464827
     35          1           0       -2.912320    1.194365   -1.363112
     36          1           0       -2.133570    2.561992    1.259306
     37          1           0       -3.617844    2.862073    0.362378
     38          1           0       -2.271750    3.678307   -1.601920
     39          1           0       -0.779043    3.376521   -0.699896
     40          1           0       -1.908761    4.625410   -0.149149
 ---------------------------------------------------------------------

 SCF Done:  E(RHF) =  -470.732999080     A.U. after   11 cycles
 E2 =    -0.1583713717D+01 EUMP2 =    -0.47231671279747D+03

 The electronic state is 1-A.
 Alpha  occ. eigenvalues --  -11.21690 -11.21647 -11.21568 -11.21529 -11.21472
 Alpha  occ. eigenvalues --  -11.21413 -11.21359 -11.21293 -11.21113 -11.21104
 Alpha  occ. eigenvalues --  -11.21047 -11.21039  -1.08504  -1.08384  -1.03607
 Alpha  occ. eigenvalues --   -1.03483  -0.96042  -0.95941  -0.87057  -0.86956
 Alpha  occ. eigenvalues --   -0.79662  -0.79562  -0.78364  -0.78155  -0.65183
 Alpha  occ. eigenvalues --   -0.64990  -0.61056  -0.60876  -0.59499  -0.59220
 Alpha  occ. eigenvalues --   -0.57697  -0.57505  -0.55321  -0.55233  -0.52750
 Alpha  occ. eigenvalues --   -0.52630  -0.52489  -0.52349  -0.49973  -0.49881
 Alpha  occ. eigenvalues --   -0.48029  -0.47818  -0.46719  -0.46551  -0.46024
 Alpha  occ. eigenvalues --   -0.45777  -0.45727  -0.45430  -0.43845  -0.43740
 Alpha virt. eigenvalues --    0.20722   0.23144   0.23446   0.24776   0.25810
 Alpha virt. eigenvalues --    0.26554   0.26989   0.27176   0.28048   0.29449
 Alpha virt. eigenvalues --    0.30784   0.31367   0.31505   0.31889   0.32285

 Mulliken charges:
               1
     1  C   -0.298184
     2  C   -0.303543
     3  C   -0.480447
     4  H    0.150159
     5  H    0.149727
     6  H    0.153346
     7  H    0.153648
     8  H    0.155383
     9  H    0.155910
    10  H    0.164540
    11  C   -0.298530
    12  C   -0.299671
    13  C   -0.475790
    14  H    0.149674
    15  H    0.149161
    16  H    0.152167
    17  H    0.152036
    18  H    0.155198
    19  H    0.155345
    20  H    0.160459
    21  C   -0.296993
    22  C   -0.310836
    23  C   -0.475256
    24  H    0.148643
    25  H    0.149374
    26  H    0.163645
    27  H    0.151398
    28  H    0.155188
    29  H    0.154875
    30  H    0.159968
    31  C   -0.302719
    32  C   -0.299326
    33  C   -0.475831
    34  H    0.154154
    35  H    0.149283
    36  H    0.151415
    37  H    0.151778
    38  H    0.155011
    39  H    0.155580
    40  H    0.160060
 Sum of Mulliken charges =  -0.00000

 Dipole moment (field-independent basis, Debye):
    X=              0.0514    Y=             -0.0230    Z=             -0.0171  Tot=              0.0588
 Quadrupole moment (field-independent basis, Debye-Ang):
   XX=            -84.5095   YY=            -86.5374   ZZ=            -83.7732
   XY=             -1.0355   XZ=              0.3984   YZ=              0.2434

 Normal termination of Gaussian 16 at Thu May  6 05:35:20 2021.
