 Gaussian 16, Revision A.03,
 Gaussian 16:  EM64L-G16RevA.03 25-Dec-2016

 -------------
 #p 6-31g* mp2
 -------------

 ------------------------------------------------------
 Input file generated by CHIRIPA (05-May-2021 14:53:14)
 ------------------------------------------------------
 Symbolic Z-matrix:
 Charge =  0 Multiplicity = 1

                         Standard orientation:
 ---------------------------------------------------------------------
 Center     Atomic      Atomic             Coordinates (Angstroms)
 Number     Number       Type             X           Y           Z
 ---------------------------------------------------------------------
      1          6           0        3.890950    0.364446    0.328903
      2          6           0        4.527870    0.450455   -1.058512
      3          6           0        5.545111    1.586234   -1.172616
      4          1           0        3.402534    1.320734    0.561081
      5          1           0        4.681382    0.226783    1.079676
      6          1           0        3.736358    0.586528   -1.806583
      7          1           0        5.014662   -0.506215   -1.287494
      8          1           0        6.354934    1.452316   -0.448148
      9          1           0        5.069367    2.551268   -0.970186
     10          1           0        5.988103    1.629477   -2.172491
     11          6           0        2.871803   -0.766149    0.458611
     12          6           0        2.234883   -0.852158    1.846026
     13          6           0        1.217641   -1.987937    1.960130
     14          1           0        2.081371   -0.628486   -0.292162
     15          1           0        3.360219   -1.722438    0.226432
     16          1           0        1.748091    0.104511    2.075008
     17          1           0        3.026395   -0.988232    2.594097
     18          1           0        1.693385   -2.952971    1.757700
     19          1           0        0.407819   -1.854020    1.235662
     20          1           0        0.774650   -2.031181    2.960005
     21          6           0       -1.933012   -2.026899   -1.353873
     22          6           0       -0.993389   -1.011059   -1.149666
     23          6           0       -1.374803    0.203022   -0.570807
     24          6           0       -2.710213    0.368038   -0.206475
     25          6           0       -3.669803   -0.625031   -0.396974
     26          6           0       -3.265870   -1.830988   -0.977539
     27          1           0       -1.627973   -2.966870   -1.804208
     28          1           0        0.042416   -1.160415   -1.440951
     29          1           0       -0.668044    1.006247   -0.401284
     30          1           0       -4.695084   -0.446739   -0.096258
     31          1           0       -3.997759   -2.618141   -1.134930
     32          7           0       -3.125920    1.649031    0.407240
     33          8           0       -4.308548    1.769584    0.719480
     34          8           0       -2.261251    2.508264    0.564409
 ---------------------------------------------------------------------

 SCF Done:  E(RHF) =  -669.534836391     A.U. after   15 cycles
 E2 =    -0.2093163527D+01 EUMP2 =    -0.67162799991725D+03

 The electronic state is 1-A.
 Alpha  occ. eigenvalues --  -20.60813 -20.60808 -15.85867 -11.31251 -11.27827
 Alpha  occ. eigenvalues --  -11.27813 -11.27556 -11.26830 -11.26807 -11.22102
 Alpha  occ. eigenvalues --  -11.22069 -11.21993 -11.21844 -11.21386 -11.21337
 Alpha  occ. eigenvalues --   -1.59888  -1.39441  -1.19431  -1.08949  -1.08813
 Alpha  occ. eigenvalues --   -1.04846  -1.03940  -0.96396  -0.95647  -0.87411
 Alpha  occ. eigenvalues --   -0.86232  -0.82490  -0.80012  -0.78797  -0.77521
 Alpha  occ. eigenvalues --   -0.72085  -0.71210  -0.70525  -0.65647  -0.65072
 Alpha  occ. eigenvalues --   -0.64813  -0.62215  -0.61307  -0.59759  -0.58020
 Alpha  occ. eigenvalues --   -0.55732  -0.55321  -0.53236  -0.53058  -0.52949
 Alpha  occ. eigenvalues --   -0.52730  -0.50331  -0.48849  -0.48839  -0.48313
 Alpha  occ. eigenvalues --   -0.47040  -0.46295  -0.46233  -0.44842  -0.44232
 Alpha  occ. eigenvalues --   -0.37390  -0.36378
 Alpha virt. eigenvalues --    0.04995   0.11154   0.16388   0.19608   0.22826
 Alpha virt. eigenvalues --    0.24059   0.24986   0.26447   0.27482   0.28371
 Alpha virt. eigenvalues --    0.29606   0.30413   0.31320   0.31559   0.31776

 Mulliken charges:
               1
     1  C   -0.298911
     2  C   -0.299382
     3  C   -0.476176
     4  H    0.152829
     5  H    0.152824
     6  H    0.147877
     7  H    0.151829
     8  H    0.156579
     9  H    0.157590
    10  H    0.161094
    11  C   -0.301205
    12  C   -0.300722
    13  C   -0.483758
    14  H    0.138029
    15  H    0.150523
    16  H    0.155976
    17  H    0.154832
    18  H    0.152031
    19  H    0.159533
    20  H    0.163637
    21  C   -0.171297
    22  C   -0.222863
    23  C   -0.172000
    24  C    0.159087
    25  C   -0.170634
    26  C   -0.218192
    27  H    0.226865
    28  H    0.230982
    29  H    0.275623
    30  H    0.275946
    31  H    0.223902
    32  N    0.488181
    33  O   -0.460135
    34  O   -0.460496
 Sum of Mulliken charges =  -0.00000

 Dipole moment (field-independent basis, Debye):
    X=              1.4882    Y=             -4.4717    Z=             -2.1191  Tot=              5.1673
 Quadrupole moment (field-independent basis, Debye-Ang):
   XX=            -97.7362   YY=            -98.3129   ZZ=            -94.4852
   XY=             13.9790   XZ=              5.8273   YZ=              0.1352

 Normal termination of Gaussian 16 at Wed May  5 15:35:16 2021.
