 Gaussian 16, Revision A.03,
 Gaussian 16:  EM64L-G16RevA.03 25-Dec-2016

 -------------
 #p 6-31g* mp2
 -------------

 ------------------------------------------------------
 Input file generated by CHIRIPA (05-May-2021 14:51:11)
 ------------------------------------------------------
 Symbolic Z-matrix:
 Charge =  0 Multiplicity = 1

                         Standard orientation:
 ---------------------------------------------------------------------
 Center     Atomic      Atomic             Coordinates (Angstroms)
 Number     Number       Type             X           Y           Z
 ---------------------------------------------------------------------
      1          6           0        3.626359   -0.281973    0.272972
      2          6           0        4.142294    0.337171   -1.026434
      3          6           0        5.587361    0.824417   -0.916124
      4          1           0        3.704500    0.458458    1.080809
      5          1           0        4.276900   -1.121572    0.554514
      6          1           0        3.490165    1.174481   -1.306177
      7          1           0        4.062738   -0.404757   -1.831313
      8          1           0        6.255046   -0.004756   -0.660647
      9          1           0        5.679220    1.583455   -0.132527
     10          1           0        5.935892    1.263374   -1.856179
     11          6           0        2.183135   -0.773805    0.178460
     12          6           0        1.667200   -1.392949    1.477866
     13          6           0        0.222133   -1.880196    1.367557
     14          1           0        1.532594    0.065793   -0.103082
     15          1           0        2.104994   -1.514236   -0.629377
     16          1           0        1.746756   -0.651021    2.282745
     17          1           0        2.319329   -2.230259    1.757609
     18          1           0        0.130274   -2.639233    0.583959
     19          1           0       -0.445552   -1.051023    1.112079
     20          1           0       -0.126398   -2.319152    2.307611
     21          6           0       -3.241501   -0.135489   -0.052634
     22          6           0       -3.212764   -1.147277   -1.198691
     23          6           0       -3.890302   -2.469406   -0.837151
     24          1           0       -2.749230   -0.572984    0.826692
     25          1           0       -4.285184    0.052865    0.234846
     26          1           0       -2.169511   -1.332620   -1.484845
     27          1           0       -3.704992   -0.707251   -2.075449
     28          1           0       -4.939630   -2.304641   -0.571891
     29          1           0       -3.395425   -2.933563    0.022067
     30          1           0       -3.858303   -3.178003   -1.670653
     31          6           0       -2.567993    1.191268   -0.398799
     32          6           0       -2.596729    2.203055    0.747258
     33          6           0       -1.919193    3.525184    0.385719
     34          1           0       -1.524310    1.002913   -0.686277
     35          1           0       -3.060264    1.628761   -1.278124
     36          1           0       -2.104503    1.763028    1.624017
     37          1           0       -3.639983    2.388398    1.033414
     38          1           0       -2.414069    3.989342   -0.473500
     39          1           0       -0.869864    3.360418    0.120460
     40          1           0       -1.951192    4.233782    1.219221
 ---------------------------------------------------------------------

 SCF Done:  E(RHF) =  -470.733221282     A.U. after   11 cycles
 E2 =    -0.1583574529D+01 EUMP2 =    -0.47231679581094D+03

 The electronic state is 1-A.
 Alpha  occ. eigenvalues --  -11.21679 -11.21640 -11.21628 -11.21534 -11.21476
 Alpha  occ. eigenvalues --  -11.21410 -11.21395 -11.21299 -11.21150 -11.21105
 Alpha  occ. eigenvalues --  -11.21098 -11.21004  -1.08500  -1.08411  -1.03594
 Alpha  occ. eigenvalues --   -1.03506  -0.96053  -0.95955  -0.87074  -0.86967
 Alpha  occ. eigenvalues --   -0.79664  -0.79568  -0.78307  -0.78226  -0.65248
 Alpha  occ. eigenvalues --   -0.64971  -0.60984  -0.60912  -0.59410  -0.59327
 Alpha  occ. eigenvalues --   -0.57653  -0.57566  -0.55499  -0.55100  -0.52738
 Alpha  occ. eigenvalues --   -0.52655  -0.52477  -0.52375  -0.50072  -0.49818
 Alpha  occ. eigenvalues --   -0.48003  -0.47864  -0.46761  -0.46566  -0.45959
 Alpha  occ. eigenvalues --   -0.45796  -0.45665  -0.45549  -0.43845  -0.43765
 Alpha virt. eigenvalues --    0.19683   0.22899   0.23740   0.24725   0.25746
 Alpha virt. eigenvalues --    0.26354   0.26860   0.27624   0.28275   0.29571
 Alpha virt. eigenvalues --    0.30817   0.31513   0.31728   0.31881   0.32254

 Mulliken charges:
               1
     1  C   -0.298359
     2  C   -0.299721
     3  C   -0.475762
     4  H    0.149839
     5  H    0.149849
     6  H    0.151947
     7  H    0.152072
     8  H    0.155247
     9  H    0.155287
    10  H    0.160457
    11  C   -0.299477
    12  C   -0.299580
    13  C   -0.483471
    14  H    0.149530
    15  H    0.149888
    16  H    0.152105
    17  H    0.152388
    18  H    0.155977
    19  H    0.162546
    20  H    0.160418
    21  C   -0.302813
    22  C   -0.299824
    23  C   -0.476485
    24  H    0.154098
    25  H    0.149849
    26  H    0.153177
    27  H    0.151473
    28  H    0.154785
    29  H    0.156650
    30  H    0.159763
    31  C   -0.301043
    32  C   -0.300002
    33  C   -0.475503
    34  H    0.150304
    35  H    0.150192
    36  H    0.151536
    37  H    0.152423
    38  H    0.155477
    39  H    0.154409
    40  H    0.160356
 Sum of Mulliken charges =  -0.00000

 Dipole moment (field-independent basis, Debye):
    X=              0.0200    Y=             -0.0137    Z=              0.0102  Tot=              0.0263
 Quadrupole moment (field-independent basis, Debye-Ang):
   XX=            -85.1225   YY=            -84.9747   ZZ=            -84.6014
   XY=             -1.5387   XZ=              0.3019   YZ=              0.2829

 Normal termination of Gaussian 16 at Wed May  5 21:29:55 2021.
