 Gaussian 16, Revision A.03,
 Gaussian 16:  EM64L-G16RevA.03 25-Dec-2016

 -------------
 #p 6-31g* mp2
 -------------

 ------------------------------------------------------
 Input file generated by CHIRIPA (05-May-2021 14:57:23)
 ------------------------------------------------------
 Symbolic Z-matrix:
 Charge =  0 Multiplicity = 1

                         Standard orientation:
 ---------------------------------------------------------------------
 Center     Atomic      Atomic             Coordinates (Angstroms)
 Number     Number       Type             X           Y           Z
 ---------------------------------------------------------------------
      1          6           0        1.911236   -1.354468    0.818301
      2          6           0        3.126443   -1.670397    1.434728
      3          6           0        4.316607   -1.076789    1.003816
      4          6           0        4.254670   -0.167479   -0.050988
      5          6           0        3.059551    0.167855   -0.685441
      6          6           0        1.881720   -0.437966   -0.237954
      7          1           0        0.991478   -1.820341    1.159482
      8          1           0        3.152374   -2.381811    2.255254
      9          1           0        5.271164   -1.303224    1.463127
     10          1           0        3.065404    0.880754   -1.501013
     11          1           0        0.939419   -0.190709   -0.718556
     12          7           0        5.508115    0.467412   -0.515949
     13          8           0        5.426782    1.265369   -1.447231
     14          8           0        6.548163    0.155062    0.059702
     15          6           0       -2.242107    1.828939    0.799381
     16          6           0       -2.074984    1.139442   -0.406100
     17          6           0       -3.069030    0.274277   -0.872911
     18          6           0       -4.222682    0.121608   -0.105404
     19          6           0       -4.418616    0.794530    1.099618
     20          6           0       -3.411329    1.654590    1.547075
     21          1           0       -1.464766    2.499037    1.154494
     22          1           0       -1.167994    1.272898   -0.988856
     23          1           0       -2.965612   -0.271898   -1.802651
     24          1           0       -5.333734    0.640990    1.658548
     25          1           0       -3.543841    2.188764    2.483634
     26          7           0       -5.282043   -0.791600   -0.589351
     27          8           0       -6.289139   -0.908790    0.105387
     28          8           0       -5.085215   -1.372891   -1.654243
 ---------------------------------------------------------------------

 SCF Done:  E(RHF) =  -868.337163784     A.U. after   16 cycles
 E2 =    -0.2599513584D+01 EUMP2 =    -0.87093667736820D+03

 The electronic state is 1-A.
 Alpha  occ. eigenvalues --  -20.61392 -20.61385 -20.61211 -20.61203 -15.86452
 Alpha  occ. eigenvalues --  -15.86268 -11.31939 -11.31708 -11.28589 -11.28514
 Alpha  occ. eigenvalues --  -11.28343 -11.28300 -11.28268 -11.28035 -11.27660
 Alpha  occ. eigenvalues --  -11.27508 -11.27393 -11.27268  -1.60466  -1.60285
 Alpha  occ. eigenvalues --   -1.40015  -1.39836  -1.20143  -1.19897  -1.09505
 Alpha  occ. eigenvalues --   -1.09268  -1.05576  -1.05324  -0.96312  -0.96088
 Alpha  occ. eigenvalues --   -0.86971  -0.86703  -0.83154  -0.82929  -0.78194
 Alpha  occ. eigenvalues --   -0.77963  -0.72664  -0.72483  -0.71795  -0.71611
 Alpha  occ. eigenvalues --   -0.71217  -0.70979  -0.65791  -0.65724  -0.65548
 Alpha  occ. eigenvalues --   -0.65234  -0.62971  -0.62611  -0.56038  -0.55783
 Alpha  occ. eigenvalues --   -0.53908  -0.53746  -0.53632  -0.53318  -0.49435
 Alpha  occ. eigenvalues --   -0.49413  -0.49247  -0.49234  -0.45393  -0.45225
 Alpha  occ. eigenvalues --   -0.38126  -0.37861  -0.37193  -0.36930
 Alpha virt. eigenvalues --    0.04369   0.04585   0.10315   0.10765   0.15731
 Alpha virt. eigenvalues --    0.16044   0.18930   0.21721   0.24720   0.27610
 Alpha virt. eigenvalues --    0.27829   0.28231   0.29582   0.31479   0.31810

 Mulliken charges:
               1
     1  C   -0.171621
     2  C   -0.218697
     3  C   -0.170119
     4  C    0.158832
     5  C   -0.171949
     6  C   -0.222207
     7  H    0.229271
     8  H    0.225711
     9  H    0.277346
    10  H    0.274470
    11  H    0.218162
    12  N    0.488088
    13  O   -0.460380
    14  O   -0.458752
    15  C   -0.170858
    16  C   -0.224524
    17  C   -0.172013
    18  C    0.158418
    19  C   -0.169617
    20  C   -0.219152
    21  H    0.229269
    22  H    0.219115
    23  H    0.276379
    24  H    0.278103
    25  H    0.226464
    26  N    0.488001
    27  O   -0.458307
    28  O   -0.459433
 Sum of Mulliken charges =  -0.00000

 Dipole moment (field-independent basis, Debye):
    X=             -0.7729    Y=              0.9506    Z=              3.5044  Tot=              3.7125
 Quadrupole moment (field-independent basis, Debye-Ang):
   XX=           -170.7904   YY=           -102.8115   ZZ=           -100.2258
   XY=            -24.4806   XZ=             -0.9701   YZ=             -1.2901

 Normal termination of Gaussian 16 at Thu May  6 11:16:14 2021.
