 Gaussian 16, Revision A.03,
 Gaussian 16:  EM64L-G16RevA.03 25-Dec-2016

 -------------
 #p 6-31g* mp2
 -------------

 ------------------------------------------------------
 Input file generated by CHIRIPA (05-May-2021 14:55:24)
 ------------------------------------------------------
 Symbolic Z-matrix:
 Charge =  0 Multiplicity = 1

                         Standard orientation:
 ---------------------------------------------------------------------
 Center     Atomic      Atomic             Coordinates (Angstroms)
 Number     Number       Type             X           Y           Z
 ---------------------------------------------------------------------
      1          6           0        3.556718   -0.418322   -1.722324
      2          6           0        2.994419   -1.607994   -1.247961
      3          6           0        2.155595   -1.600365   -0.129540
      4          6           0        1.899277   -0.379698    0.493005
      5          6           0        2.444424    0.822292    0.044314
      6          6           0        3.280414    0.790892   -1.075812
      7          1           0        4.207236   -0.433481   -2.591803
      8          1           0        3.207246   -2.548556   -1.748054
      9          1           0        1.706971   -2.506642    0.258810
     10          1           0        2.213779    1.744398    0.563873
     11          1           0        3.715708    1.716351   -1.441996
     12          7           0        1.012752   -0.359039    1.677930
     13          8           0        0.802544    0.729449    2.208629
     14          8           0        0.544889   -1.431727    2.053539
     15          6           0       -2.040609    0.907806   -0.105957
     16          6           0       -2.025148    2.343153   -0.632763
     17          6           0       -0.864028    3.165719   -0.073317
     18          1           0       -2.098142    0.927175    0.990975
     19          1           0       -1.089002    0.420929   -0.360496
     20          1           0       -2.977050    2.826740   -0.378514
     21          1           0       -1.967837    2.320365   -1.728579
     22          1           0        0.094828    2.708950   -0.338943
     23          1           0       -0.920118    3.218203    1.018792
     24          1           0       -0.872144    4.188439   -0.462980
     25          6           0       -3.195581    0.072938   -0.656194
     26          6           0       -3.211042   -1.362409   -0.129387
     27          6           0       -4.372162   -2.184975   -0.688835
     28          1           0       -4.147187    0.559815   -0.401655
     29          1           0       -3.138047    0.053569   -1.753126
     30          1           0       -3.268352   -1.339621    0.966428
     31          1           0       -2.259140   -1.845997   -0.383636
     32          1           0       -4.316072   -2.237459   -1.780943
     33          1           0       -5.331018   -1.728206   -0.423208
     34          1           0       -4.364046   -3.207695   -0.299170
 ---------------------------------------------------------------------

 SCF Done:  E(RHF) =  -669.535414983     A.U. after   15 cycles
 E2 =    -0.2094518668D+01 EUMP2 =    -0.67162993365095D+03

 The electronic state is 1-A.
 Alpha  occ. eigenvalues --  -20.60851 -20.60845 -15.85865 -11.31260 -11.27829
 Alpha  occ. eigenvalues --  -11.27801 -11.27566 -11.26846 -11.26835 -11.21135
 Alpha  occ. eigenvalues --  -11.20940 -11.20819 -11.20713 -11.20592 -11.20585
 Alpha  occ. eigenvalues --   -1.59899  -1.39454  -1.19437  -1.08824  -1.07855
 Alpha  occ. eigenvalues --   -1.04838  -1.02992  -0.95666  -0.95452  -0.86492
 Alpha  occ. eigenvalues --   -0.86223  -0.82488  -0.79063  -0.77725  -0.77486
 Alpha  occ. eigenvalues --   -0.72102  -0.71191  -0.70539  -0.65084  -0.64848
 Alpha  occ. eigenvalues --   -0.64487  -0.62201  -0.60395  -0.58816  -0.57060
 Alpha  occ. eigenvalues --   -0.55345  -0.54753  -0.53173  -0.52937  -0.52173
 Alpha  occ. eigenvalues --   -0.51859  -0.49406  -0.48867  -0.48855  -0.47388
 Alpha  occ. eigenvalues --   -0.46079  -0.45296  -0.45148  -0.44646  -0.43245
 Alpha  occ. eigenvalues --   -0.37389  -0.36419
 Alpha virt. eigenvalues --    0.04946   0.11114   0.16420   0.21212   0.23391
 Alpha virt. eigenvalues --    0.24749   0.26537   0.26994   0.27658   0.28165
 Alpha virt. eigenvalues --    0.29170   0.31078   0.31349   0.32207   0.32401

 Mulliken charges:
               1
     1  C   -0.170601
     2  C   -0.218205
     3  C   -0.172442
     4  C    0.156225
     5  C   -0.171572
     6  C   -0.219706
     7  H    0.225964
     8  H    0.223797
     9  H    0.276019
    10  H    0.278675
    11  H    0.224267
    12  N    0.492513
    13  O   -0.459213
    14  O   -0.459622
    15  C   -0.301038
    16  C   -0.299020
    17  C   -0.476781
    18  H    0.167176
    19  H    0.139409
    20  H    0.151741
    21  H    0.147022
    22  H    0.144965
    23  H    0.169307
    24  H    0.154289
    25  C   -0.298396
    26  C   -0.298730
    27  C   -0.475706
    28  H    0.148639
    29  H    0.144931
    30  H    0.160752
    31  H    0.149673
    32  H    0.151495
    33  H    0.154386
    34  H    0.159787
 Sum of Mulliken charges =  -0.00000

 Dipole moment (field-independent basis, Debye):
    X=              3.1837    Y=             -0.1179    Z=             -3.9185  Tot=              5.0502
 Quadrupole moment (field-independent basis, Debye-Ang):
   XX=            -83.8377   YY=            -90.5634   ZZ=            -99.0826
   XY=             -1.5324   XZ=             -7.8482   YZ=              2.2586

 Normal termination of Gaussian 16 at Thu May  6 15:59:46 2021.
