 Gaussian 16, Revision A.03,
 Gaussian 16:  EM64L-G16RevA.03 25-Dec-2016

 -------------
 #p 6-31g* mp2
 -------------

 ------------------------------------------------------
 Input file generated by CHIRIPA (05-May-2021 14:53:12)
 ------------------------------------------------------
 Symbolic Z-matrix:
 Charge =  0 Multiplicity = 1

                         Standard orientation:
 ---------------------------------------------------------------------
 Center     Atomic      Atomic             Coordinates (Angstroms)
 Number     Number       Type             X           Y           Z
 ---------------------------------------------------------------------
      1          6           0        5.424377   -0.089747    0.298662
      2          6           0        5.954587   -1.489541   -0.013491
      3          6           0        7.229390   -1.825152    0.761129
      4          1           0        6.202170    0.650379    0.065858
      5          1           0        5.230592   -0.010760    1.377367
      6          1           0        6.146006   -1.566313   -1.091490
      7          1           0        5.175373   -2.226406    0.219902
      8          1           0        7.048838   -1.776280    1.839838
      9          1           0        8.024986   -1.112436    0.520995
     10          1           0        7.591055   -2.830287    0.522880
     11          6           0        4.150321    0.260406   -0.468086
     12          6           0        3.620112    1.660200   -0.155932
     13          6           0        2.345309    1.995812   -0.930552
     14          1           0        4.344106    0.181420   -1.546790
     15          1           0        3.372529   -0.479719   -0.235282
     16          1           0        4.399325    2.397065   -0.389326
     17          1           0        3.428692    1.736972    0.922066
     18          1           0        1.549713    1.283096   -0.690418
     19          1           0        2.525861    1.946940   -2.009262
     20          1           0        1.983644    3.000946   -0.692303
     21          6           0       -1.547889    1.173443    0.215174
     22          6           0       -1.795857    0.317093   -0.862648
     23          6           0       -3.006968   -0.375108   -0.955472
     24          6           0       -3.952053   -0.186553    0.051776
     25          6           0       -3.734590    0.659636    1.138039
     26          6           0       -2.516340    1.341684    1.210322
     27          1           0       -0.604297    1.707218    0.279305
     28          1           0       -1.045578    0.184499   -1.636950
     29          1           0       -3.225049   -1.044252   -1.778943
     30          1           0       -4.501808    0.771414    1.894544
     31          1           0       -2.326502    2.006088    2.048520
     32          7           0       -5.237981   -0.913981   -0.035620
     33          8           0       -6.054306   -0.730642    0.864734
     34          8           0       -5.405217   -1.653704   -1.002822
 ---------------------------------------------------------------------

 SCF Done:  E(RHF) =  -669.535518279     A.U. after   15 cycles
 E2 =    -0.2091009499D+01 EUMP2 =    -0.67162652777738D+03

 The electronic state is 1-A.
 Alpha  occ. eigenvalues --  -20.60718 -20.60713 -15.85772 -11.31125 -11.27696
 Alpha  occ. eigenvalues --  -11.27693 -11.27376 -11.26698 -11.26685 -11.22602
 Alpha  occ. eigenvalues --  -11.22423 -11.22188 -11.22113 -11.21996 -11.21488
 Alpha  occ. eigenvalues --   -1.59794  -1.39348  -1.19294  -1.09189  -1.08687
 Alpha  occ. eigenvalues --   -1.04698  -1.04329  -0.96805  -0.95524  -0.87829
 Alpha  occ. eigenvalues --   -0.86093  -0.82361  -0.80406  -0.78952  -0.77413
 Alpha  occ. eigenvalues --   -0.71990  -0.71118  -0.70415  -0.65819  -0.64945
 Alpha  occ. eigenvalues --   -0.64707  -0.62056  -0.61722  -0.60194  -0.58380
 Alpha  occ. eigenvalues --   -0.56195  -0.55120  -0.53487  -0.53222  -0.53024
 Alpha  occ. eigenvalues --   -0.52783  -0.50728  -0.48749  -0.48747  -0.48708
 Alpha  occ. eigenvalues --   -0.47417  -0.46507  -0.46396  -0.44756  -0.44559
 Alpha  occ. eigenvalues --   -0.37266  -0.36307
 Alpha virt. eigenvalues --    0.05119   0.11331   0.16600   0.19952   0.22415
 Alpha virt. eigenvalues --    0.23782   0.25500   0.26195   0.26791   0.27478
 Alpha virt. eigenvalues --    0.29229   0.30414   0.30910   0.31132   0.31460

 Mulliken charges:
               1
     1  C   -0.298884
     2  C   -0.300290
     3  C   -0.476126
     4  H    0.151013
     5  H    0.150305
     6  H    0.152664
     7  H    0.152681
     8  H    0.155795
     9  H    0.155819
    10  H    0.161979
    11  C   -0.299391
    12  C   -0.299348
    13  C   -0.483299
    14  H    0.150961
    15  H    0.149544
    16  H    0.156416
    17  H    0.152424
    18  H    0.147913
    19  H    0.160755
    20  H    0.160854
    21  C   -0.175866
    22  C   -0.221255
    23  C   -0.170927
    24  C    0.158166
    25  C   -0.170823
    26  C   -0.219274
    27  H    0.233137
    28  H    0.224300
    29  H    0.275375
    30  H    0.275282
    31  H    0.223272
    32  N    0.488076
    33  O   -0.460626
    34  O   -0.460622
 Sum of Mulliken charges =  -0.00000

 Dipole moment (field-independent basis, Debye):
    X=              4.8024    Y=              2.5682    Z=              0.2964  Tot=              5.4540
 Quadrupole moment (field-independent basis, Debye-Ang):
   XX=           -130.4070   YY=            -95.4028   ZZ=            -90.8862
   XY=            -11.1424   XZ=             -3.3968   YZ=              2.0672

 Normal termination of Gaussian 16 at Thu May  6 02:31:08 2021.
