 Gaussian 16, Revision A.03,
 Gaussian 16:  EM64L-G16RevA.03 25-Dec-2016

 -------------
 #p 6-31g* mp2
 -------------

 ------------------------------------------------------
 Input file generated by CHIRIPA (05-May-2021 14:55:20)
 ------------------------------------------------------
 Symbolic Z-matrix:
 Charge =  0 Multiplicity = 1

                         Standard orientation:
 ---------------------------------------------------------------------
 Center     Atomic      Atomic             Coordinates (Angstroms)
 Number     Number       Type             X           Y           Z
 ---------------------------------------------------------------------
      1          6           0       -1.044949   -2.316334   -0.175439
      2          6           0       -0.656736   -1.007879   -0.481635
      3          6           0       -1.581354    0.039126   -0.423248
      4          6           0       -2.891783   -0.259501   -0.053264
      5          6           0       -3.309164   -1.552722    0.257642
      6          6           0       -2.367592   -2.584108    0.192574
      7          1           0       -0.320098   -3.123606   -0.223390
      8          1           0        0.369766   -0.796978   -0.767746
      9          1           0       -1.307809    1.061287   -0.655147
     10          1           0       -4.339598   -1.731931    0.539612
     11          1           0       -2.671913   -3.599307    0.430910
     12          7           0       -3.879610    0.840649    0.012084
     13          8           0       -5.028049    0.551363    0.340776
     14          8           0       -3.486724    1.971400   -0.266625
     15          6           0        3.467902    1.318754   -0.034303
     16          6           0        2.112046    1.939457    0.303880
     17          6           0        2.077335    3.449440    0.066094
     18          1           0        4.247066    1.804396    0.569021
     19          1           0        3.708624    1.531012   -1.085205
     20          1           0        1.873317    1.724908    1.353447
     21          1           0        1.335994    1.452149   -0.300181
     22          1           0        2.290285    3.679223   -0.982931
     23          1           0        2.830660    3.953531    0.680094
     24          1           0        1.098930    3.872540    0.314224
     25          6           0        3.518281   -0.190258    0.198231
     26          6           0        4.874136   -0.810961   -0.139953
     27          6           0        4.908848   -2.320944    0.097833
     28          1           0        3.277559   -0.402516    1.249132
     29          1           0        2.739117   -0.675900   -0.405094
     30          1           0        5.650189   -0.323653    0.464108
     31          1           0        5.112866   -0.596412   -1.189520
     32          1           0        4.155523   -2.825035   -0.516166
     33          1           0        4.695898   -2.550727    1.146859
     34          1           0        5.887253   -2.744044   -0.150297
 ---------------------------------------------------------------------

 SCF Done:  E(RHF) =  -669.534851592     A.U. after   15 cycles
 E2 =    -0.2092547424D+01 EUMP2 =    -0.67162739901591D+03

 The electronic state is 1-A.
 Alpha  occ. eigenvalues --  -20.60715 -20.60710 -15.85767 -11.31114 -11.27683
 Alpha  occ. eigenvalues --  -11.27662 -11.27413 -11.26699 -11.26637 -11.22399
 Alpha  occ. eigenvalues --  -11.22390 -11.22338 -11.22135 -11.21851 -11.21517
 Alpha  occ. eigenvalues --   -1.59791  -1.39345  -1.19282  -1.09253  -1.08680
 Alpha  occ. eigenvalues --   -1.04688  -1.04258  -0.96695  -0.95520  -0.87703
 Alpha  occ. eigenvalues --   -0.86086  -0.82367  -0.80339  -0.79115  -0.77390
 Alpha  occ. eigenvalues --   -0.71987  -0.71113  -0.70396  -0.65951  -0.64936
 Alpha  occ. eigenvalues --   -0.64667  -0.62101  -0.61602  -0.60050  -0.58313
 Alpha  occ. eigenvalues --   -0.55992  -0.55189  -0.53355  -0.53122  -0.53011
 Alpha  occ. eigenvalues --   -0.52778  -0.50636  -0.48751  -0.48747  -0.48640
 Alpha  occ. eigenvalues --   -0.47389  -0.46585  -0.46509  -0.44754  -0.44529
 Alpha  occ. eigenvalues --   -0.37263  -0.36271
 Alpha virt. eigenvalues --    0.05121   0.11352   0.16583   0.19270   0.22722
 Alpha virt. eigenvalues --    0.23140   0.24761   0.26221   0.26375   0.27831
 Alpha virt. eigenvalues --    0.29676   0.30724   0.31133   0.31294   0.32121

 Mulliken charges:
               1
     1  C   -0.173270
     2  C   -0.223981
     3  C   -0.174605
     4  C    0.159051
     5  C   -0.171283
     6  C   -0.218706
     7  H    0.225460
     8  H    0.233684
     9  H    0.276827
    10  H    0.275251
    11  H    0.223115
    12  N    0.488277
    13  O   -0.460737
    14  O   -0.460801
    15  C   -0.299121
    16  C   -0.302947
    17  C   -0.477662
    18  H    0.154262
    19  H    0.151104
    20  H    0.156787
    21  H    0.141933
    22  H    0.156406
    23  H    0.157962
    24  H    0.167241
    25  C   -0.301863
    26  C   -0.299646
    27  C   -0.475766
    28  H    0.152974
    29  H    0.139867
    30  H    0.155821
    31  H    0.153755
    32  H    0.150558
    33  H    0.156283
    34  H    0.163770
 Sum of Mulliken charges =  -0.00000

 Dipole moment (field-independent basis, Debye):
    X=              3.7048    Y=             -3.7464    Z=             -0.1389  Tot=              5.2707
 Quadrupole moment (field-independent basis, Debye-Ang):
   XX=           -111.8307   YY=            -91.6622   ZZ=            -94.2300
   XY=             13.5094   XZ=             -0.1758   YZ=             -0.4382

 Normal termination of Gaussian 16 at Thu May  6 10:49:59 2021.
