 Gaussian 16, Revision A.03,
 Gaussian 16:  EM64L-G16RevA.03 25-Dec-2016

 -------------
 #p 6-31g* mp2
 -------------

 ------------------------------------------------------
 Input file generated by CHIRIPA (05-May-2021 14:51:14)
 ------------------------------------------------------
 Symbolic Z-matrix:
 Charge =  0 Multiplicity = 1

                         Standard orientation:
 ---------------------------------------------------------------------
 Center     Atomic      Atomic             Coordinates (Angstroms)
 Number     Number       Type             X           Y           Z
 ---------------------------------------------------------------------
      1          6           0        2.608424   -0.247737    0.075641
      2          6           0        4.021618   -0.200459    0.657560
      3          6           0        4.519030    1.227045    0.886923
      4          1           0        2.590916    0.305132   -0.873556
      5          1           0        1.921885    0.276030    0.755146
      6          1           0        4.705047   -0.725357   -0.022162
      7          1           0        4.035808   -0.753667    1.605387
      8          1           0        3.860494    1.757391    1.582383
      9          1           0        4.533535    1.785861   -0.054414
     10          1           0        5.531153    1.237479    1.303284
     11          6           0        2.097195   -1.668014   -0.159278
     12          6           0        0.684001   -1.715291   -0.741198
     13          6           0        0.186589   -3.142796   -0.970561
     14          1           0        2.783734   -2.191780   -0.838783
     15          1           0        2.114703   -2.220882    0.789919
     16          1           0        0.669811   -1.162084   -1.689025
     17          1           0        0.000572   -1.190393   -0.061475
     18          1           0        0.172084   -3.701612   -0.029224
     19          1           0        0.845125   -3.673141   -1.666021
     20          1           0       -0.825535   -3.153230   -1.386922
     21          6           0       -1.779893    1.439515    0.194207
     22          6           0       -1.295819    2.213440   -1.032454
     23          6           0       -0.149401    3.172898   -0.711582
     24          1           0       -2.101395    2.152112    0.966080
     25          1           0       -0.937650    0.876602    0.619824
     26          1           0       -2.139045    2.773636   -1.456444
     27          1           0       -0.975612    1.498915   -1.801568
     28          1           0        0.709512    2.626011   -0.309360
     29          1           0       -0.460531    3.907974    0.037726
     30          1           0        0.181085    3.715773   -1.602609
     31          6           0       -2.925726    0.476235   -0.110570
     32          6           0       -3.409799   -0.297690    1.116091
     33          6           0       -4.556218   -1.257148    0.795220
     34          1           0       -3.767968    1.039149   -0.536187
     35          1           0       -2.604223   -0.236362   -0.882442
     36          1           0       -3.730007    0.416835    1.885206
     37          1           0       -2.566574   -0.857885    1.540081
     38          1           0       -4.245088   -1.992223    0.045911
     39          1           0       -5.415131   -0.710260    0.392997
     40          1           0       -4.886703   -1.800022    1.686246
 ---------------------------------------------------------------------

 SCF Done:  E(RHF) =  -470.733017304     A.U. after   11 cycles
 E2 =    -0.1584884492D+01 EUMP2 =    -0.47231790179668D+03

 The electronic state is 1-A.
 Alpha  occ. eigenvalues --  -11.21682 -11.21665 -11.21606 -11.21530 -11.21500
 Alpha  occ. eigenvalues --  -11.21440 -11.21363 -11.21297 -11.21161 -11.21107
 Alpha  occ. eigenvalues --  -11.21069 -11.20971  -1.08542  -1.08377  -1.03607
 Alpha  occ. eigenvalues --   -1.03489  -0.96059  -0.95935  -0.87075  -0.86949
 Alpha  occ. eigenvalues --   -0.79678  -0.79559  -0.78395  -0.78171  -0.65321
 Alpha  occ. eigenvalues --   -0.64893  -0.61016  -0.60874  -0.59426  -0.59308
 Alpha  occ. eigenvalues --   -0.57672  -0.57550  -0.55347  -0.55220  -0.52745
 Alpha  occ. eigenvalues --   -0.52633  -0.52492  -0.52353  -0.49995  -0.49886
 Alpha  occ. eigenvalues --   -0.47970  -0.47891  -0.46840  -0.46593  -0.46202
 Alpha  occ. eigenvalues --   -0.45879  -0.45653  -0.45148  -0.43864  -0.43742
 Alpha virt. eigenvalues --    0.19682   0.21910   0.23692   0.24440   0.24945
 Alpha virt. eigenvalues --    0.25908   0.27239   0.27697   0.28409   0.29742
 Alpha virt. eigenvalues --    0.30541   0.31428   0.31676   0.31890   0.32417

 Mulliken charges:
               1
     1  C   -0.303275
     2  C   -0.299561
     3  C   -0.476361
     4  H    0.151231
     5  H    0.152316
     6  H    0.152306
     7  H    0.152135
     8  H    0.155573
     9  H    0.155694
    10  H    0.160654
    11  C   -0.298090
    12  C   -0.308376
    13  C   -0.475731
    14  H    0.150017
    15  H    0.149762
    16  H    0.152454
    17  H    0.160202
    18  H    0.155476
    19  H    0.155688
    20  H    0.160013
    21  C   -0.302877
    22  C   -0.299847
    23  C   -0.480114
    24  H    0.149499
    25  H    0.153246
    26  H    0.151486
    27  H    0.153064
    28  H    0.160142
    29  H    0.154443
    30  H    0.159479
    31  C   -0.300255
    32  C   -0.300491
    33  C   -0.475566
    34  H    0.149868
    35  H    0.151616
    36  H    0.152042
    37  H    0.151508
    38  H    0.155176
    39  H    0.155252
    40  H    0.160200
 Sum of Mulliken charges =  -0.00000

 Dipole moment (field-independent basis, Debye):
    X=              0.0483    Y=             -0.0295    Z=              0.0013  Tot=              0.0566
 Quadrupole moment (field-independent basis, Debye-Ang):
   XX=            -85.0230   YY=            -85.8100   ZZ=            -83.8981
   XY=             -1.5743   XZ=             -0.6681   YZ=             -0.1177

 Normal termination of Gaussian 16 at Thu May  6 02:25:53 2021.
