 Gaussian 16, Revision A.03,
 Gaussian 16:  EM64L-G16RevA.03 25-Dec-2016

 -------------
 #p 6-31g* mp2
 -------------

 ------------------------------------------------------
 Input file generated by CHIRIPA (05-May-2021 14:51:08)
 ------------------------------------------------------
 Symbolic Z-matrix:
 Charge =  0 Multiplicity = 1

                         Standard orientation:
 ---------------------------------------------------------------------
 Center     Atomic      Atomic             Coordinates (Angstroms)
 Number     Number       Type             X           Y           Z
 ---------------------------------------------------------------------
      1          6           0       -2.674098    1.052058   -0.225174
      2          6           0       -1.779974    1.928483    0.652554
      3          6           0       -2.354815    3.328506    0.870006
      4          1           0       -2.820212    1.544867   -1.196120
      5          1           0       -3.667346    0.973716    0.238199
      6          1           0       -0.788288    2.004016    0.188366
      7          1           0       -1.635815    1.433439    1.621453
      8          1           0       -3.334876    3.271552    1.354607
      9          1           0       -2.482533    3.845371   -0.086624
     10          1           0       -1.699676    3.938073    1.500150
     11          6           0       -2.112847   -0.350585   -0.451706
     12          6           0       -3.006971   -1.227010   -1.329435
     13          6           0       -2.432130   -2.627033   -1.546886
     14          1           0       -1.119598   -0.272243   -0.915080
     15          1           0       -1.966733   -0.843394    0.519239
     16          1           0       -3.151130   -0.731966   -2.298334
     17          1           0       -3.998656   -1.302543   -0.865246
     18          1           0       -2.304411   -3.143898   -0.590257
     19          1           0       -1.452069   -2.570080   -2.031487
     20          1           0       -3.087268   -3.236600   -2.177031
     21          6           0        1.725376   -0.664524    0.534950
     22          6           0        1.727183   -1.263307    1.941876
     23          6           0        0.383646   -1.887280    2.320505
     24          1           0        0.934681    0.095230    0.467710
     25          1           0        1.467285   -1.449229   -0.189634
     26          1           0        1.986548   -0.478023    2.663453
     27          1           0        2.518091   -2.021589    2.005832
     28          1           0        0.121413   -2.689660    1.623353
     29          1           0       -0.413150   -1.137324    2.284710
     30          1           0        0.407260   -2.309266    3.330075
     31          6           0        3.061569   -0.036949    0.141930
     32          6           0        3.059761    0.561834   -1.264995
     33          6           0        4.403299    1.185807   -1.643624
     34          1           0        3.319659    0.747757    0.866514
     35          1           0        3.852264   -0.796703    0.209171
     36          1           0        2.268854    1.320115   -1.328952
     37          1           0        2.800397   -0.223450   -1.986572
     38          1           0        5.200095    0.435850   -1.607829
     39          1           0        4.665531    1.988187   -0.946472
     40          1           0        4.379685    1.607793   -2.653194
 ---------------------------------------------------------------------

 SCF Done:  E(RHF) =  -470.731936162     A.U. after   11 cycles
 E2 =    -0.1585489884D+01 EUMP2 =    -0.47231742604601D+03

 The electronic state is 1-A.
 Alpha  occ. eigenvalues --  -11.21693 -11.21629 -11.21563 -11.21548 -11.21382
 Alpha  occ. eigenvalues --  -11.21356 -11.21252 -11.21223 -11.21131 -11.21086
 Alpha  occ. eigenvalues --  -11.21050 -11.21029  -1.08479  -1.08350  -1.03545
 Alpha  occ. eigenvalues --   -1.03514  -0.95984  -0.95963  -0.87008  -0.86978
 Alpha  occ. eigenvalues --   -0.79656  -0.79587  -0.78583  -0.77860  -0.65094
 Alpha  occ. eigenvalues --   -0.65019  -0.60949  -0.60918  -0.59373  -0.59314
 Alpha  occ. eigenvalues --   -0.57617  -0.57573  -0.55369  -0.55160  -0.52705
 Alpha  occ. eigenvalues --   -0.52658  -0.52450  -0.52387  -0.49991  -0.49853
 Alpha  occ. eigenvalues --   -0.48074  -0.47887  -0.46723  -0.46666  -0.46435
 Alpha  occ. eigenvalues --   -0.45666  -0.45555  -0.44834  -0.43775  -0.43747
 Alpha virt. eigenvalues --    0.20755   0.22570   0.23185   0.23656   0.24807
 Alpha virt. eigenvalues --    0.25832   0.26738   0.27761   0.29272   0.29727
 Alpha virt. eigenvalues --    0.30933   0.31273   0.31615   0.31837   0.32296

 Mulliken charges:
               1
     1  C   -0.297742
     2  C   -0.304713
     3  C   -0.475372
     4  H    0.149382
     5  H    0.149261
     6  H    0.153467
     7  H    0.152564
     8  H    0.155650
     9  H    0.155601
    10  H    0.160174
    11  C   -0.307717
    12  C   -0.298968
    13  C   -0.476456
    14  H    0.154639
    15  H    0.156854
    16  H    0.151407
    17  H    0.151401
    18  H    0.155771
    19  H    0.154786
    20  H    0.160099
    21  C   -0.307405
    22  C   -0.298876
    23  C   -0.480755
    24  H    0.161214
    25  H    0.149174
    26  H    0.151466
    27  H    0.151567
    28  H    0.155931
    29  H    0.159313
    30  H    0.159669
    31  C   -0.297601
    32  C   -0.300160
    33  C   -0.475540
    34  H    0.149222
    35  H    0.149413
    36  H    0.150807
    37  H    0.151605
    38  H    0.155439
    39  H    0.155307
    40  H    0.160119
 Sum of Mulliken charges =  -0.00000

 Dipole moment (field-independent basis, Debye):
    X=             -0.0142    Y=              0.0093    Z=              0.0076  Tot=              0.0187
 Quadrupole moment (field-independent basis, Debye-Ang):
   XX=            -85.4615   YY=            -85.2478   ZZ=            -84.2673
   XY=             -0.2719   XZ=             -0.1415   YZ=              0.0295

 Normal termination of Gaussian 16 at Thu May  6 03:41:49 2021.
