 Gaussian 16, Revision A.03,
 Gaussian 16:  EM64L-G16RevA.03 25-Dec-2016

 -------------
 #p 6-31g* mp2
 -------------

 ------------------------------------------------------
 Input file generated by CHIRIPA (05-May-2021 14:57:27)
 ------------------------------------------------------
 Symbolic Z-matrix:
 Charge =  0 Multiplicity = 1

                         Standard orientation:
 ---------------------------------------------------------------------
 Center     Atomic      Atomic             Coordinates (Angstroms)
 Number     Number       Type             X           Y           Z
 ---------------------------------------------------------------------
      1          6           0        2.149314    1.464755    1.364163
      2          6           0        2.879118    2.054614    0.326872
      3          6           0        3.803197    1.304737   -0.406825
      4          6           0        3.973038   -0.038471   -0.074806
      5          6           0        3.261005   -0.654785    0.953035
      6          6           0        2.342246    0.114319    1.673388
      7          1           0        1.433533    2.054745    1.928934
      8          1           0        2.731354    3.103171    0.084510
      9          1           0        4.381502    1.736131   -1.214835
     10          1           0        3.430117   -1.702245    1.171312
     11          1           0        1.776866   -0.346421    2.478441
     12          7           0        4.948503   -0.842509   -0.844476
     13          8           0        5.079716   -2.024013   -0.532278
     14          8           0        5.563388   -0.275985   -1.745366
     15          6           0       -1.404432    0.027604    0.691895
     16          6           0       -2.196038   -1.065700    1.058729
     17          6           0       -3.531409   -1.143603    0.652204
     18          6           0       -4.045050   -0.105805   -0.123966
     19          6           0       -3.281804    0.996504   -0.505621
     20          6           0       -1.948882    1.053408   -0.087735
     21          1           0       -0.368035    0.079965    1.012105
     22          1           0       -1.775875   -1.863811    1.664144
     23          1           0       -4.166701   -1.978512    0.921927
     24          1           0       -3.728717    1.776737   -1.109709
     25          1           0       -1.336464    1.903687   -0.374119
     26          7           0       -5.457451   -0.177162   -0.560349
     27          8           0       -5.886267    0.750109   -1.243665
     28          8           0       -6.108932   -1.159013   -0.210807
 ---------------------------------------------------------------------

 SCF Done:  E(RHF) =  -868.336227769     A.U. after   16 cycles
 E2 =    -0.2601663804D+01 EUMP2 =    -0.87093789157277D+03

 The electronic state is 1-A.
 Alpha  occ. eigenvalues --  -20.61616 -20.61610 -20.61066 -20.61061 -15.86679
 Alpha  occ. eigenvalues --  -15.86124 -11.32310 -11.31562 -11.28942 -11.28883
 Alpha  occ. eigenvalues --  -11.28764 -11.28159 -11.28146 -11.28056 -11.27954
 Alpha  occ. eigenvalues --  -11.27829 -11.27202 -11.27183  -1.60685  -1.60140
 Alpha  occ. eigenvalues --   -1.40231  -1.39692  -1.20536  -1.19750  -1.09907
 Alpha  occ. eigenvalues --   -1.09131  -1.05970  -1.05172  -0.96679  -0.95952
 Alpha  occ. eigenvalues --   -0.87372  -0.86572  -0.83488  -0.82793  -0.78477
 Alpha  occ. eigenvalues --   -0.77823  -0.72895  -0.72340  -0.72011  -0.71689
 Alpha  occ. eigenvalues --   -0.71465  -0.70866  -0.66184  -0.65978  -0.65405
 Alpha  occ. eigenvalues --   -0.65194  -0.63287  -0.62525  -0.56485  -0.55886
 Alpha  occ. eigenvalues --   -0.54110  -0.54029  -0.53491  -0.53273  -0.49672
 Alpha  occ. eigenvalues --   -0.49629  -0.49107  -0.49090  -0.45577  -0.45081
 Alpha  occ. eigenvalues --   -0.38538  -0.37749  -0.37550  -0.36782
 Alpha virt. eigenvalues --    0.04027   0.04723   0.09865   0.10859   0.15386
 Alpha virt. eigenvalues --    0.16170   0.19415   0.21913   0.25324   0.26445
 Alpha virt. eigenvalues --    0.27521   0.29268   0.29814   0.30765   0.32267

 Mulliken charges:
               1
     1  C   -0.178195
     2  C   -0.218947
     3  C   -0.168467
     4  C    0.159829
     5  C   -0.169012
     6  C   -0.228644
     7  H    0.228458
     8  H    0.226948
     9  H    0.279987
    10  H    0.279067
    11  H    0.223511
    12  N    0.487988
    13  O   -0.457612
    14  O   -0.456851
    15  C   -0.176593
    16  C   -0.222241
    17  C   -0.169501
    18  C    0.158292
    19  C   -0.169693
    20  C   -0.223305
    21  H    0.232006
    22  H    0.221465
    23  H    0.276795
    24  H    0.276196
    25  H    0.219677
    26  N    0.487969
    27  O   -0.459774
    28  O   -0.459353
 Sum of Mulliken charges =  -0.00000

 Dipole moment (field-independent basis, Debye):
    X=              1.8663    Y=              3.0668    Z=              4.1091  Tot=              5.4565
 Quadrupole moment (field-independent basis, Debye-Ang):
   XX=           -171.7521   YY=            -98.2108   ZZ=           -104.1588
   XY=             11.5619   XZ=              3.0657   YZ=             -5.5773

 Normal termination of Gaussian 16 at Fri May  7 05:07:40 2021.
