 Gaussian 16, Revision A.03,
 Gaussian 16:  EM64L-G16RevA.03 25-Dec-2016

 -------------
 #p 6-31g* mp2
 -------------

 ------------------------------------------------------
 Input file generated by CHIRIPA (05-May-2021 14:53:15)
 ------------------------------------------------------
 Symbolic Z-matrix:
 Charge =  0 Multiplicity = 1

                         Standard orientation:
 ---------------------------------------------------------------------
 Center     Atomic      Atomic             Coordinates (Angstroms)
 Number     Number       Type             X           Y           Z
 ---------------------------------------------------------------------
      1          6           0       -3.982043   -0.269238   -0.405273
      2          6           0       -4.723867   -1.373755    0.348202
      3          6           0       -5.097497   -2.553643   -0.549605
      4          1           0       -4.608694    0.084027   -1.235608
      5          1           0       -3.072893   -0.689894   -0.856815
      6          1           0       -5.630630   -0.950830    0.799348
      7          1           0       -4.095457   -1.724300    1.176957
      8          1           0       -4.200808   -3.002304   -0.989210
      9          1           0       -5.744703   -2.224440   -1.368965
     10          1           0       -5.626920   -3.331558    0.009341
     11          6           0       -3.601773    0.917137    0.478830
     12          6           0       -2.859949    2.021654   -0.274645
     13          6           0       -2.486319    3.201542    0.623162
     14          1           0       -4.510923    1.337793    0.930372
     15          1           0       -2.975123    0.563871    1.309165
     16          1           0       -3.488360    2.372199   -1.103400
     17          1           0       -1.953187    1.598729   -0.725791
     18          1           0       -1.839113    2.872339    1.442522
     19          1           0       -3.383009    3.650203    1.062767
     20          1           0       -1.956896    3.979456    0.064216
     21          6           0        0.449100   -0.474577   -0.022378
     22          6           0        1.243858   -1.504267    0.492033
     23          6           0        2.637422   -1.392353    0.493627
     24          6           0        3.205408   -0.231673   -0.029347
     25          6           0        2.440563    0.811550   -0.548952
     26          6           0        1.048930    0.678013   -0.540316
     27          1           0       -0.632705   -0.569913   -0.019643
     28          1           0        0.780763   -2.400523    0.894912
     29          1           0        3.276517   -2.174223    0.885616
     30          1           0        2.931087    1.692969   -0.943798
     31          1           0        0.434207    1.479284   -0.940470
     32          7           0        4.679689   -0.101749   -0.033075
     33          8           0        5.155696    0.930955   -0.499527
     34          8           0        5.331308   -1.035079    0.430525
 ---------------------------------------------------------------------

 SCF Done:  E(RHF) =  -669.534956867     A.U. after   15 cycles
 E2 =    -0.2092645280D+01 EUMP2 =    -0.67162760214663D+03

 The electronic state is 1-A.
 Alpha  occ. eigenvalues --  -20.60742 -20.60737 -15.85795 -11.31160 -11.27729
 Alpha  occ. eigenvalues --  -11.27721 -11.27447 -11.26747 -11.26715 -11.22885
 Alpha  occ. eigenvalues --  -11.22623 -11.22580 -11.22536 -11.22085 -11.21914
 Alpha  occ. eigenvalues --   -1.59817  -1.39371  -1.19331  -1.09604  -1.08725
 Alpha  occ. eigenvalues --   -1.04742  -1.04598  -0.97028  -0.95565  -0.88034
 Alpha  occ. eigenvalues --   -0.86141  -0.82396  -0.80679  -0.79409  -0.77443
 Alpha  occ. eigenvalues --   -0.72014  -0.71140  -0.70499  -0.66293  -0.64982
 Alpha  occ. eigenvalues --   -0.64728  -0.62241  -0.61837  -0.60388  -0.58639
 Alpha  occ. eigenvalues --   -0.56380  -0.55169  -0.53688  -0.53429  -0.53062
 Alpha  occ. eigenvalues --   -0.52833  -0.50968  -0.48978  -0.48769  -0.48766
 Alpha  occ. eigenvalues --   -0.47723  -0.46915  -0.46877  -0.44875  -0.44776
 Alpha  occ. eigenvalues --   -0.37311  -0.36337
 Alpha virt. eigenvalues --    0.05082   0.11293   0.16544   0.18174   0.22242
 Alpha virt. eigenvalues --    0.23615   0.25075   0.25552   0.26278   0.27997
 Alpha virt. eigenvalues --    0.29559   0.30555   0.30902   0.31120   0.32104

 Mulliken charges:
               1
     1  C   -0.302421
     2  C   -0.300164
     3  C   -0.476155
     4  H    0.155382
     5  H    0.142480
     6  H    0.156094
     7  H    0.149914
     8  H    0.153945
     9  H    0.157919
    10  H    0.163488
    11  C   -0.301718
    12  C   -0.304355
    13  C   -0.477607
    14  H    0.156410
    15  H    0.148014
    16  H    0.157949
    17  H    0.141758
    18  H    0.157975
    19  H    0.160393
    20  H    0.161566
    21  C   -0.178791
    22  C   -0.220454
    23  C   -0.170731
    24  C    0.158485
    25  C   -0.170617
    26  C   -0.224918
    27  H    0.235808
    28  H    0.223459
    29  H    0.275465
    30  H    0.275706
    31  H    0.228677
    32  N    0.487911
    33  O   -0.460404
    34  O   -0.460463
 Sum of Mulliken charges =  -0.00000

 Dipole moment (field-independent basis, Debye):
    X=             -5.4862    Y=             -0.3829    Z=              0.0549  Tot=              5.4998
 Quadrupole moment (field-independent basis, Debye-Ang):
   XX=           -126.6023   YY=            -90.8156   ZZ=            -94.7719
   XY=             -1.5763   XZ=              0.3403   YZ=             -2.7262

 Normal termination of Gaussian 16 at Wed May  5 21:54:12 2021.
