 Gaussian 16, Revision A.03,
 Gaussian 16:  EM64L-G16RevA.03 25-Dec-2016

 -------------
 #p 6-31g* mp2
 -------------

 ------------------------------------------------------
 Input file generated by CHIRIPA (05-May-2021 14:57:22)
 ------------------------------------------------------
 Symbolic Z-matrix:
 Charge =  0 Multiplicity = 1

                         Standard orientation:
 ---------------------------------------------------------------------
 Center     Atomic      Atomic             Coordinates (Angstroms)
 Number     Number       Type             X           Y           Z
 ---------------------------------------------------------------------
      1          6           0        4.245086    1.601901   -0.189489
      2          6           0        3.766491    0.902791   -1.302464
      3          6           0        2.931816   -0.206765   -1.138901
      4          6           0        2.594246   -0.591364    0.157794
      5          6           0        3.054950    0.084604    1.286559
      6          6           0        3.888416    1.191301    1.099198
      7          1           0        4.893012    2.462720   -0.325792
      8          1           0        4.041840    1.219403   -2.304454
      9          1           0        2.547070   -0.766146   -1.982987
     10          1           0        2.763132   -0.254881    2.272972
     11          1           0        4.258607    1.732336    1.965388
     12          7           0        1.711253   -1.764487    0.343548
     13          8           0        1.428489   -2.083167    1.496425
     14          8           0        1.318646   -2.343088   -0.667253
     15          6           0       -3.332543   -2.049927   -0.275872
     16          6           0       -4.072737   -1.199492    0.552013
     17          6           0       -3.753257    0.158575    0.642195
     18          6           0       -2.682468    0.634677   -0.112805
     19          6           0       -1.926026   -0.187378   -0.946658
     20          6           0       -2.263434   -1.542052   -1.021251
     21          1           0       -3.587686   -3.103588   -0.339873
     22          1           0       -4.903540   -1.591150    1.132028
     23          1           0       -4.309554    0.839237    1.275166
     24          1           0       -1.103308    0.232191   -1.512798
     25          1           0       -1.686835   -2.200175   -1.665031
     26          7           0       -2.334758    2.070606   -0.025585
     27          8           0       -1.386774    2.465444   -0.700912
     28          8           0       -3.016791    2.774058    0.716455
 ---------------------------------------------------------------------

 SCF Done:  E(RHF) =  -868.340066864     A.U. after   16 cycles
 E2 =    -0.2599395144D+01 EUMP2 =    -0.87093946200814D+03

 The electronic state is 1-A.
 Alpha  occ. eigenvalues --  -20.61199 -20.61136 -20.60369 -20.60357 -15.86195
 Alpha  occ. eigenvalues --  -15.85405 -11.31259 -11.30502 -11.27824 -11.27761
 Alpha  occ. eigenvalues --  -11.27447 -11.27025 -11.26966 -11.26739 -11.26709
 Alpha  occ. eigenvalues --  -11.26627 -11.26016 -11.25816  -1.60229  -1.59445
 Alpha  occ. eigenvalues --   -1.39797  -1.39006  -1.19389  -1.18610  -1.08839
 Alpha  occ. eigenvalues --   -1.08050  -1.04753  -1.03957  -0.95731  -0.94945
 Alpha  occ. eigenvalues --   -0.86171  -0.85369  -0.82586  -0.81777  -0.77671
 Alpha  occ. eigenvalues --   -0.76870  -0.72438  -0.71638  -0.71529  -0.70760
 Alpha  occ. eigenvalues --   -0.70505  -0.69720  -0.65055  -0.64761  -0.64255
 Alpha  occ. eigenvalues --   -0.63933  -0.62122  -0.61311  -0.55259  -0.54461
 Alpha  occ. eigenvalues --   -0.53077  -0.52853  -0.52307  -0.52031  -0.49203
 Alpha  occ. eigenvalues --   -0.49150  -0.48403  -0.48360  -0.45268  -0.44472
 Alpha  occ. eigenvalues --   -0.37331  -0.36554  -0.36328  -0.35526
 Alpha virt. eigenvalues --    0.04826   0.05624   0.11295   0.12119   0.16387
 Alpha virt. eigenvalues --    0.17229   0.21387   0.22302   0.27203   0.27824
 Alpha virt. eigenvalues --    0.28647   0.29011   0.31117   0.31842   0.32440

 Mulliken charges:
               1
     1  C   -0.167912
     2  C   -0.215541
     3  C   -0.171927
     4  C    0.158774
     5  C   -0.169194
     6  C   -0.216543
     7  H    0.227617
     8  H    0.224380
     9  H    0.270758
    10  H    0.275544
    11  H    0.225140
    12  N    0.489795
    13  O   -0.456897
    14  O   -0.471808
    15  C   -0.169942
    16  C   -0.217541
    17  C   -0.172820
    18  C    0.158864
    19  C   -0.176941
    20  C   -0.209251
    21  H    0.226249
    22  H    0.221115
    23  H    0.272266
    24  H    0.269751
    25  H    0.235678
    26  N    0.488163
    27  O   -0.465218
    28  O   -0.462561
 Sum of Mulliken charges =  -0.00000

 Dipole moment (field-independent basis, Debye):
    X=              2.1238    Y=             -1.0184    Z=             -0.9079  Tot=              2.5243
 Quadrupole moment (field-independent basis, Debye-Ang):
   XX=            -80.1066   YY=           -117.2298   ZZ=            -98.3283
   XY=             22.5291   XZ=             -2.5339   YZ=              2.6770

 Normal termination of Gaussian 16 at Thu May  6 11:15:28 2021.
