 Gaussian 16, Revision A.03,
 Gaussian 16:  EM64L-G16RevA.03 25-Dec-2016

 -------------
 #p 6-31g* mp2
 -------------

 ------------------------------------------------------
 Input file generated by CHIRIPA (05-May-2021 14:57:27)
 ------------------------------------------------------
 Symbolic Z-matrix:
 Charge =  0 Multiplicity = 1

                         Standard orientation:
 ---------------------------------------------------------------------
 Center     Atomic      Atomic             Coordinates (Angstroms)
 Number     Number       Type             X           Y           Z
 ---------------------------------------------------------------------
      1          6           0       -1.365761   -1.410871    0.199586
      2          6           0       -1.338775   -0.152050   -0.409645
      3          6           0       -2.513890    0.590954   -0.556607
      4          6           0       -3.703744    0.042246   -0.080731
      5          6           0       -3.763051   -1.209127    0.530694
      6          6           0       -2.575679   -1.934468    0.666987
      7          1           0       -0.448142   -1.981194    0.309605
      8          1           0       -0.400581    0.257083   -0.773578
      9          1           0       -2.521607    1.567982   -1.024342
     10          1           0       -4.713510   -1.590623    0.883547
     11          1           0       -2.599635   -2.911824    1.140534
     12          7           0       -4.954273    0.819482   -0.230665
     13          8           0       -5.989684    0.313824    0.196968
     14          8           0       -4.875348    1.919620   -0.772979
     15          6           0        3.775817    2.537899    0.581387
     16          6           0        4.302411    2.011594   -0.602767
     17          6           0        4.154261    0.654477   -0.904156
     18          6           0        3.470748   -0.151202    0.005230
     19          6           0        2.934754    0.343449    1.193218
     20          6           0        3.094869    1.703618    1.474027
     21          1           0        3.895551    3.593325    0.807519
     22          1           0        4.831713    2.657145   -1.297856
     23          1           0        4.551930    0.220806   -1.813665
     24          1           0        2.412058   -0.324954    1.866601
     25          1           0        2.684861    2.109604    2.394415
     26          7           0        3.307575   -1.589536   -0.302943
     27          8           0        2.701229   -2.278331    0.514702
     28          8           0        3.789114   -2.000873   -1.356300
 ---------------------------------------------------------------------

 SCF Done:  E(RHF) =  -868.339901448     A.U. after   16 cycles
 E2 =    -0.2599039238D+01 EUMP2 =    -0.87093894068632D+03

 The electronic state is 1-A.
 Alpha  occ. eigenvalues --  -20.61969 -20.61902 -20.60591 -20.60582 -15.86957
 Alpha  occ. eigenvalues --  -15.85641 -11.32148 -11.30903 -11.28690 -11.28643
 Alpha  occ. eigenvalues --  -11.28325 -11.27613 -11.27596 -11.27501 -11.27461
 Alpha  occ. eigenvalues --  -11.27018 -11.26437 -11.26379  -1.60998  -1.59668
 Alpha  occ. eigenvalues --   -1.40556  -1.39225  -1.20285  -1.19059  -1.09702
 Alpha  occ. eigenvalues --   -1.08440  -1.05640  -1.04458  -0.96566  -0.95294
 Alpha  occ. eigenvalues --   -0.87042  -0.85842  -0.83396  -0.82141  -0.78480
 Alpha  occ. eigenvalues --   -0.77235  -0.73169  -0.72325  -0.71859  -0.71351
 Alpha  occ. eigenvalues --   -0.70993  -0.70056  -0.65919  -0.65612  -0.64696
 Alpha  occ. eigenvalues --   -0.64449  -0.62979  -0.61818  -0.56114  -0.54821
 Alpha  occ. eigenvalues --   -0.54000  -0.53707  -0.52786  -0.52532  -0.49945
 Alpha  occ. eigenvalues --   -0.49907  -0.48622  -0.48607  -0.45982  -0.44654
 Alpha  occ. eigenvalues --   -0.38246  -0.37253  -0.36981  -0.36083
 Alpha virt. eigenvalues --    0.03988   0.05312   0.10381   0.11587   0.15501
 Alpha virt. eigenvalues --    0.16838   0.20597   0.21811   0.26521   0.27270
 Alpha virt. eigenvalues --    0.27479   0.28757   0.30374   0.31139   0.32474

 Mulliken charges:
               1
     1  C   -0.179513
     2  C   -0.221889
     3  C   -0.171966
     4  C    0.157457
     5  C   -0.171304
     6  C   -0.219966
     7  H    0.244232
     8  H    0.220821
     9  H    0.272798
    10  H    0.274606
    11  H    0.225358
    12  N    0.488225
    13  O   -0.460990
    14  O   -0.462531
    15  C   -0.170376
    16  C   -0.218609
    17  C   -0.171456
    18  C    0.154508
    19  C   -0.174784
    20  C   -0.218516
    21  H    0.229772
    22  H    0.227100
    23  H    0.277681
    24  H    0.274983
    25  H    0.227573
    26  N    0.487624
    27  O   -0.466991
    28  O   -0.453849
 Sum of Mulliken charges =  -0.00000

 Dipole moment (field-independent basis, Debye):
    X=              5.3592    Y=              2.3581    Z=              1.6201  Tot=              6.0751
 Quadrupole moment (field-independent basis, Debye-Ang):
   XX=           -131.6594   YY=           -104.2023   ZZ=           -100.9651
   XY=             31.2816   XZ=             -2.5328   YZ=             -2.2402

 Normal termination of Gaussian 16 at Fri May  7 03:34:59 2021.
