 Gaussian 16, Revision A.03,
 Gaussian 16:  EM64L-G16RevA.03 25-Dec-2016

 -------------
 #p 6-31g* mp2
 -------------

 ------------------------------------------------------
 Input file generated by CHIRIPA (05-May-2021 14:55:22)
 ------------------------------------------------------
 Symbolic Z-matrix:
 Charge =  0 Multiplicity = 1

                         Standard orientation:
 ---------------------------------------------------------------------
 Center     Atomic      Atomic             Coordinates (Angstroms)
 Number     Number       Type             X           Y           Z
 ---------------------------------------------------------------------
      1          6           0       -0.578225    0.044275    0.833280
      2          6           0       -1.379232    1.188070    0.751793
      3          6           0       -2.717590    1.091134    0.359427
      4          6           0       -3.224597   -0.171089    0.054421
      5          6           0       -2.451935   -1.329171    0.126038
      6          6           0       -1.116184   -1.208487    0.520693
      7          1           0        0.460431    0.128801    1.138968
      8          1           0       -0.964126    2.162282    0.993956
      9          1           0       -3.360116    1.960306    0.287897
     10          1           0       -2.893972   -2.286606   -0.121632
     11          1           0       -0.496461   -2.098483    0.583092
     12          7           0       -4.640077   -0.286281   -0.362171
     13          8           0       -5.062911   -1.409873   -0.625589
     14          8           0       -5.299893    0.749205   -0.417390
     15          6           0        4.336001   -0.344563   -0.345849
     16          6           0        3.986523   -1.725858    0.209018
     17          6           0        5.010440   -2.794037   -0.176182
     18          1           0        4.411518   -0.404410   -1.440225
     19          1           0        5.329392   -0.050575    0.020401
     20          1           0        2.993496   -2.016555   -0.157054
     21          1           0        3.911640   -1.662675    1.302186
     22          1           0        6.003215   -2.530436    0.202650
     23          1           0        5.079854   -2.886326   -1.264880
     24          1           0        4.741102   -3.773651    0.230850
     25          6           0        3.321751    0.733949    0.030762
     26          6           0        3.671229    2.115242   -0.524104
     27          6           0        2.647311    3.183422   -0.138905
     28          1           0        2.328360    0.439961   -0.335488
     29          1           0        3.246234    0.793794    1.125139
     30          1           0        3.746112    2.052060   -1.617272
     31          1           0        4.664257    2.405939   -0.158033
     32          1           0        2.577898    3.275711    0.949794
     33          1           0        1.654537    2.919820   -0.517737
     34          1           0        2.916650    4.163036   -0.545937
 ---------------------------------------------------------------------

 SCF Done:  E(RHF) =  -669.535725323     A.U. after   15 cycles
 E2 =    -0.2092012269D+01 EUMP2 =    -0.67162773759183D+03

 The electronic state is 1-A.
 Alpha  occ. eigenvalues --  -20.60720 -20.60715 -15.85774 -11.31127 -11.27699
 Alpha  occ. eigenvalues --  -11.27693 -11.27349 -11.26695 -11.26679 -11.22608
 Alpha  occ. eigenvalues --  -11.22598 -11.22538 -11.22334 -11.22109 -11.21851
 Alpha  occ. eigenvalues --   -1.59796  -1.39350  -1.19295  -1.09468  -1.08682
 Alpha  occ. eigenvalues --   -1.04697  -1.04499  -0.96952  -0.95522  -0.87966
 Alpha  occ. eigenvalues --   -0.86088  -0.82363  -0.80578  -0.79339  -0.77412
 Alpha  occ. eigenvalues --   -0.71990  -0.71120  -0.70385  -0.66080  -0.64940
 Alpha  occ. eigenvalues --   -0.64692  -0.62055  -0.61872  -0.60317  -0.58589
 Alpha  occ. eigenvalues --   -0.56249  -0.55199  -0.53606  -0.53356  -0.53029
 Alpha  occ. eigenvalues --   -0.52776  -0.50881  -0.48886  -0.48747  -0.48746
 Alpha  occ. eigenvalues --   -0.47601  -0.46811  -0.46751  -0.44769  -0.44758
 Alpha  occ. eigenvalues --   -0.37246  -0.36308
 Alpha virt. eigenvalues --    0.05089   0.11284   0.16489   0.19943   0.22450
 Alpha virt. eigenvalues --    0.22932   0.25190   0.25560   0.26303   0.27856
 Alpha virt. eigenvalues --    0.29792   0.30247   0.30498   0.30948   0.31595

 Mulliken charges:
               1
     1  C   -0.175088
     2  C   -0.222861
     3  C   -0.170847
     4  C    0.158390
     5  C   -0.170721
     6  C   -0.221766
     7  H    0.235165
     8  H    0.225458
     9  H    0.275418
    10  H    0.275289
    11  H    0.223807
    12  N    0.488061
    13  O   -0.460662
    14  O   -0.460586
    15  C   -0.297645
    16  C   -0.301261
    17  C   -0.476028
    18  H    0.153650
    19  H    0.153149
    20  H    0.146746
    21  H    0.150971
    22  H    0.157825
    23  H    0.157817
    24  H    0.161719
    25  C   -0.307318
    26  C   -0.298823
    27  C   -0.480534
    28  H    0.149658
    29  H    0.146114
    30  H    0.156466
    31  H    0.155658
    32  H    0.152831
    33  H    0.153771
    34  H    0.166176
 Sum of Mulliken charges =  -0.00000

 Dipole moment (field-independent basis, Debye):
    X=              5.2621    Y=              0.4339    Z=              1.3854  Tot=              5.4587
 Quadrupole moment (field-independent basis, Debye-Ang):
   XX=           -126.6190   YY=            -90.3893   ZZ=            -94.7012
   XY=             -2.0865   XZ=             -4.2980   YZ=              0.2368

 Normal termination of Gaussian 16 at Wed May  5 20:40:15 2021.
