 Gaussian 16, Revision A.03,
 Gaussian 16:  EM64L-G16RevA.03 25-Dec-2016

 -------------
 #p 6-31g* mp2
 -------------

 ------------------------------------------------------
 Input file generated by CHIRIPA (05-May-2021 14:51:13)
 ------------------------------------------------------
 Symbolic Z-matrix:
 Charge =  0 Multiplicity = 1

                         Standard orientation:
 ---------------------------------------------------------------------
 Center     Atomic      Atomic             Coordinates (Angstroms)
 Number     Number       Type             X           Y           Z
 ---------------------------------------------------------------------
      1          6           0        3.087795   -0.232277    0.099159
      2          6           0        3.140057    0.268096   -1.344752
      3          6           0        4.503107    0.850704   -1.719527
      4          1           0        3.332624    0.596940    0.776952
      5          1           0        3.865809   -0.994567    0.244088
      6          1           0        2.361269    1.028220   -1.487291
      7          1           0        2.894887   -0.562362   -2.019177
      8          1           0        5.288815    0.096883   -1.605438
      9          1           0        4.752165    1.696501   -1.070530
     10          1           0        4.518209    1.202319   -2.755866
     11          6           0        1.731563   -0.817562    0.488779
     12          6           0        1.679301   -1.317935    1.932691
     13          6           0        0.316251   -1.900543    2.307466
     14          1           0        0.953549   -0.055273    0.343850
     15          1           0        1.486733   -1.646779   -0.189014
     16          1           0        1.924470   -0.487477    2.607115
     17          1           0        2.458088   -2.078059    2.075229
     18          1           0        0.067192   -2.746341    1.658469
     19          1           0       -0.469458   -1.146722    2.193377
     20          1           0        0.301148   -2.252158    3.343805
     21          6           0       -2.661068   -0.193689   -0.232027
     22          6           0       -2.822084   -0.898039   -1.579599
     23          6           0       -3.325724   -2.334850   -1.439189
     24          1           0       -1.964722   -0.768306    0.393964
     25          1           0       -3.626726   -0.195135    0.292278
     26          1           0       -1.856733   -0.894045   -2.101804
     27          1           0       -3.517979   -0.321577   -2.202526
     28          1           0       -4.300314   -2.354477   -0.940802
     29          1           0       -2.629629   -2.930197   -0.839507
     30          1           0       -3.433621   -2.819562   -2.414520
     31          6           0       -2.158290    1.243529   -0.355912
     32          6           0       -1.997274    1.947878    0.991661
     33          6           0       -1.493634    3.384690    0.851250
     34          1           0       -1.192631    1.244975   -0.880216
     35          1           0       -2.854635    1.818145   -0.981903
     36          1           0       -1.301378    1.371415    1.614588
     37          1           0       -2.962624    1.943883    1.513866
     38          1           0       -2.189728    3.980035    0.251570
     39          1           0       -0.519043    3.404315    0.352863
     40          1           0       -1.385736    3.869401    1.826582
 ---------------------------------------------------------------------

 SCF Done:  E(RHF) =  -470.732933798     A.U. after   11 cycles
 E2 =    -0.1584643743D+01 EUMP2 =    -0.47231757754154D+03

 The electronic state is 1-A.
 Alpha  occ. eigenvalues --  -11.21684 -11.21672 -11.21656 -11.21547 -11.21489
 Alpha  occ. eigenvalues --  -11.21426 -11.21385 -11.21274 -11.21141 -11.21125
 Alpha  occ. eigenvalues --  -11.21118 -11.21030  -1.08529  -1.08404  -1.03607
 Alpha  occ. eigenvalues --   -1.03528  -0.96058  -0.95972  -0.87080  -0.86985
 Alpha  occ. eigenvalues --   -0.79682  -0.79590  -0.78358  -0.78204  -0.65351
 Alpha  occ. eigenvalues --   -0.64876  -0.61048  -0.60881  -0.59422  -0.59341
 Alpha  occ. eigenvalues --   -0.57716  -0.57549  -0.55365  -0.55257  -0.52742
 Alpha  occ. eigenvalues --   -0.52683  -0.52523  -0.52373  -0.50070  -0.49863
 Alpha  occ. eigenvalues --   -0.48057  -0.47909  -0.46782  -0.46623  -0.46119
 Alpha  occ. eigenvalues --   -0.45823  -0.45646  -0.45275  -0.43858  -0.43770
 Alpha virt. eigenvalues --    0.19223   0.22749   0.23682   0.23761   0.25581
 Alpha virt. eigenvalues --    0.26286   0.26872   0.27656   0.29050   0.29992
 Alpha virt. eigenvalues --    0.30706   0.31242   0.31769   0.31814   0.32390

 Mulliken charges:
               1
     1  C   -0.298176
     2  C   -0.299909
     3  C   -0.475763
     4  H    0.149937
     5  H    0.150029
     6  H    0.151357
     7  H    0.152094
     8  H    0.155409
     9  H    0.155388
    10  H    0.160544
    11  C   -0.304623
    12  C   -0.299275
    13  C   -0.483716
    14  H    0.154976
    15  H    0.149597
    16  H    0.152066
    17  H    0.152468
    18  H    0.154892
    19  H    0.162639
    20  H    0.161261
    21  C   -0.306966
    22  C   -0.299250
    23  C   -0.475844
    24  H    0.159620
    25  H    0.148895
    26  H    0.152330
    27  H    0.151497
    28  H    0.155108
    29  H    0.155281
    30  H    0.159919
    31  C   -0.299814
    32  C   -0.304637
    33  C   -0.475452
    34  H    0.150405
    35  H    0.150065
    36  H    0.154462
    37  H    0.152614
    38  H    0.155780
    39  H    0.154418
    40  H    0.160375
 Sum of Mulliken charges =  -0.00000

 Dipole moment (field-independent basis, Debye):
    X=              0.0262    Y=             -0.0115    Z=              0.0203  Tot=              0.0351
 Quadrupole moment (field-independent basis, Debye-Ang):
   XX=            -84.7041   YY=            -85.1275   ZZ=            -84.8507
   XY=             -1.4339   XZ=              0.2826   YZ=              0.3722

 Normal termination of Gaussian 16 at Wed May  5 20:00:03 2021.
