 Gaussian 16, Revision A.03,
 Gaussian 16:  EM64L-G16RevA.03 25-Dec-2016

 -------------
 #p 6-31g* mp2
 -------------

 ------------------------------------------------------
 Input file generated by CHIRIPA (05-May-2021 14:57:23)
 ------------------------------------------------------
 Symbolic Z-matrix:
 Charge =  0 Multiplicity = 1

                         Standard orientation:
 ---------------------------------------------------------------------
 Center     Atomic      Atomic             Coordinates (Angstroms)
 Number     Number       Type             X           Y           Z
 ---------------------------------------------------------------------
      1          6           0        2.450119    1.435509    1.908628
      2          6           0        3.707549    1.742862    1.378606
      3          6           0        4.278701    0.934603    0.391158
      4          6           0        3.561426   -0.178276   -0.045082
      5          6           0        2.306771   -0.510800    0.463407
      6          6           0        1.754969    0.311641    1.450145
      7          1           0        2.013950    2.068892    2.675426
      8          1           0        4.249695    2.615039    1.732768
      9          1           0        5.250533    1.149339   -0.036450
     10          1           0        1.790386   -1.386913    0.090325
     11          1           0        0.778261    0.070514    1.859956
     12          7           0        4.155836   -1.041450   -1.090073
     13          8           0        3.503610   -2.016256   -1.457486
     14          8           0        5.262706   -0.726856   -1.521937
     15          6           0       -3.907006   -2.160615    1.032168
     16          6           0       -4.933587   -1.519203    0.331282
     17          6           0       -4.699217   -0.301767   -0.314834
     18          6           0       -3.420579    0.248377   -0.239223
     19          6           0       -2.377156   -0.366362    0.451177
     20          6           0       -2.634310   -1.583165    1.089778
     21          1           0       -4.097919   -3.106103    1.531168
     22          1           0       -5.922961   -1.965329    0.284857
     23          1           0       -5.475773    0.216246   -0.864417
     24          1           0       -1.401248    0.102902    0.479705
     25          1           0       -1.835146   -2.079045    1.633364
     26          7           0       -3.160402    1.536887   -0.919259
     27          8           0       -2.025183    2.000843   -0.837660
     28          8           0       -4.096621    2.058467   -1.520995
 ---------------------------------------------------------------------

 SCF Done:  E(RHF) =  -868.336994195     A.U. after   16 cycles
 E2 =    -0.2599883034D+01 EUMP2 =    -0.87093687722844D+03

 The electronic state is 1-A.
 Alpha  occ. eigenvalues --  -20.61180 -20.61169 -20.60831 -20.60822 -15.86234
 Alpha  occ. eigenvalues --  -15.85889 -11.31683 -11.31295 -11.28337 -11.28213
 Alpha  occ. eigenvalues --  -11.27983 -11.27979 -11.27865 -11.27640 -11.27350
 Alpha  occ. eigenvalues --  -11.27228 -11.27039 -11.26844  -1.60250  -1.59903
 Alpha  occ. eigenvalues --   -1.39802  -1.39456  -1.19858  -1.19489  -1.09225
 Alpha  occ. eigenvalues --   -1.08865  -1.05295  -1.04929  -0.96054  -0.95692
 Alpha  occ. eigenvalues --   -0.86676  -0.86317  -0.82901  -0.82549  -0.77955
 Alpha  occ. eigenvalues --   -0.77582  -0.72450  -0.72109  -0.71574  -0.71223
 Alpha  occ. eigenvalues --   -0.70966  -0.70585  -0.65519  -0.65326  -0.65156
 Alpha  occ. eigenvalues --   -0.64955  -0.62737  -0.62204  -0.55756  -0.55388
 Alpha  occ. eigenvalues --   -0.53589  -0.53443  -0.53182  -0.53006  -0.49215
 Alpha  occ. eigenvalues --   -0.49201  -0.48871  -0.48858  -0.45191  -0.44854
 Alpha  occ. eigenvalues --   -0.37811  -0.37427  -0.36894  -0.36517
 Alpha virt. eigenvalues --    0.04611   0.04974   0.10763   0.11092   0.16093
 Alpha virt. eigenvalues --    0.16317   0.18610   0.22128   0.24803   0.27553
 Alpha virt. eigenvalues --    0.28205   0.29408   0.30372   0.31295   0.32215

 Mulliken charges:
               1
     1  C   -0.167274
     2  C   -0.218007
     3  C   -0.168735
     4  C    0.159173
     5  C   -0.169034
     6  C   -0.217468
     7  H    0.228128
     8  H    0.225353
     9  H    0.276985
    10  H    0.271631
    11  H    0.213275
    12  N    0.488419
    13  O   -0.461407
    14  O   -0.459165
    15  C   -0.169968
    16  C   -0.218199
    17  C   -0.169530
    18  C    0.160124
    19  C   -0.177297
    20  C   -0.218917
    21  H    0.227778
    22  H    0.225810
    23  H    0.277499
    24  H    0.272968
    25  H    0.219161
    26  N    0.487758
    27  O   -0.460885
    28  O   -0.458177
 Sum of Mulliken charges =  -0.00000

 Dipole moment (field-independent basis, Debye):
    X=             -3.0236    Y=             -1.3918    Z=              6.0147  Tot=              6.8743
 Quadrupole moment (field-independent basis, Debye-Ang):
   XX=           -104.2989   YY=           -107.2728   ZZ=           -107.3038
   XY=             29.9483   XZ=              7.0023   YZ=              0.8608

 Normal termination of Gaussian 16 at Fri May  7 07:58:54 2021.
