 Gaussian 16, Revision A.03,
 Gaussian 16:  EM64L-G16RevA.03 25-Dec-2016

 -------------
 #p 6-31g* mp2
 -------------

 ------------------------------------------------------
 Input file generated by CHIRIPA (05-May-2021 14:57:25)
 ------------------------------------------------------
 Symbolic Z-matrix:
 Charge =  0 Multiplicity = 1

                         Standard orientation:
 ---------------------------------------------------------------------
 Center     Atomic      Atomic             Coordinates (Angstroms)
 Number     Number       Type             X           Y           Z
 ---------------------------------------------------------------------
      1          6           0        4.692649    2.077655    0.401532
      2          6           0        3.317915    2.109397    0.657692
      3          6           0        2.528807    0.976010    0.440226
      4          6           0        3.150111   -0.177419   -0.036085
      5          6           0        4.517320   -0.240393   -0.300784
      6          6           0        5.286916    0.904929   -0.076047
      7          1           0        5.298069    2.962733    0.573288
      8          1           0        2.853697    3.018765    1.028631
      9          1           0        1.462351    0.972922    0.630173
     10          1           0        4.951597   -1.161502   -0.670079
     11          1           0        6.354325    0.877378   -0.275862
     12          7           0        2.325046   -1.383602   -0.270155
     13          8           0        2.896459   -2.387443   -0.690187
     14          8           0        1.122569   -1.302328   -0.029155
     15          6           0       -2.314074   -2.261441    0.632493
     16          6           0       -2.969165   -1.484759    1.593815
     17          6           0       -3.511565   -0.242033    1.253251
     18          6           0       -3.380063    0.195187   -0.063880
     19          6           0       -2.733095   -0.555511   -1.044276
     20          6           0       -2.198334   -1.795161   -0.681169
     21          1           0       -1.895692   -3.225625    0.905808
     22          1           0       -3.060548   -1.844348    2.614790
     23          1           0       -4.023759    0.379658    1.977528
     24          1           0       -2.657777   -0.170402   -2.053947
     25          1           0       -1.690110   -2.396203   -1.429835
     26          7           0       -3.950235    1.509176   -0.436354
     27          8           0       -3.821063    1.871866   -1.603577
     28          8           0       -4.515511    2.151510    0.445976
 ---------------------------------------------------------------------

 SCF Done:  E(RHF) =  -868.339470414     A.U. after   16 cycles
 E2 =    -0.2599270112D+01 EUMP2 =    -0.87093874052567D+03

 The electronic state is 1-A.
 Alpha  occ. eigenvalues --  -20.61360 -20.61348 -20.60191 -20.60182 -15.86378
 Alpha  occ. eigenvalues --  -15.85230 -11.31519 -11.30286 -11.28072 -11.28039
 Alpha  occ. eigenvalues --  -11.27759 -11.27034 -11.26997 -11.26848 -11.26738
 Alpha  occ. eigenvalues --  -11.26373 -11.25796 -11.25602  -1.60436  -1.59275
 Alpha  occ. eigenvalues --   -1.39991  -1.38836  -1.19672  -1.18399  -1.09113
 Alpha  occ. eigenvalues --   -1.07826  -1.05035  -1.03755  -0.95986  -0.94727
 Alpha  occ. eigenvalues --   -0.86445  -0.85157  -0.82818  -0.81581  -0.77893
 Alpha  occ. eigenvalues --   -0.76689  -0.72625  -0.71742  -0.71455  -0.70774
 Alpha  occ. eigenvalues --   -0.70600  -0.69473  -0.65325  -0.65033  -0.64041
 Alpha  occ. eigenvalues --   -0.63741  -0.62381  -0.61127  -0.55547  -0.54207
 Alpha  occ. eigenvalues --   -0.53383  -0.53121  -0.52084  -0.51843  -0.49387
 Alpha  occ. eigenvalues --   -0.49362  -0.48228  -0.48180  -0.45447  -0.44312
 Alpha  occ. eigenvalues --   -0.37642  -0.36629  -0.36279  -0.35315
 Alpha virt. eigenvalues --    0.04594   0.05839   0.11027   0.12345   0.16132
 Alpha virt. eigenvalues --    0.17480   0.21210   0.22463   0.27140   0.28073
 Alpha virt. eigenvalues --    0.28338   0.29327   0.30792   0.32051   0.32287

 Mulliken charges:
               1
     1  C   -0.170026
     2  C   -0.218552
     3  C   -0.170966
     4  C    0.156939
     5  C   -0.170892
     6  C   -0.218660
     7  H    0.227380
     8  H    0.226675
     9  H    0.277471
    10  H    0.275155
    11  H    0.224330
    12  N    0.490838
    13  O   -0.461830
    14  O   -0.467082
    15  C   -0.162315
    16  C   -0.220618
    17  C   -0.175055
    18  C    0.155550
    19  C   -0.175863
    20  C   -0.200608
    21  H    0.228269
    22  H    0.219243
    23  H    0.270442
    24  H    0.271648
    25  H    0.228853
    26  N    0.487749
    27  O   -0.463426
    28  O   -0.464648
 Sum of Mulliken charges =  -0.00000

 Dipole moment (field-independent basis, Debye):
    X=              5.2985    Y=             -0.5593    Z=              2.0924  Tot=              5.7241
 Quadrupole moment (field-independent basis, Debye-Ang):
   XX=            -98.1937   YY=           -107.5072   ZZ=           -101.2646
   XY=             27.5862   XZ=             -4.9517   YZ=              2.0132

 Normal termination of Gaussian 16 at Thu May  6 06:43:23 2021.
