 Gaussian 16, Revision A.03,
 Gaussian 16:  EM64L-G16RevA.03 25-Dec-2016

 -------------
 #p 6-31g* mp2
 -------------

 ------------------------------------------------------
 Input file generated by CHIRIPA (05-May-2021 14:57:24)
 ------------------------------------------------------
 Symbolic Z-matrix:
 Charge =  0 Multiplicity = 1

                         Standard orientation:
 ---------------------------------------------------------------------
 Center     Atomic      Atomic             Coordinates (Angstroms)
 Number     Number       Type             X           Y           Z
 ---------------------------------------------------------------------
      1          6           0       -2.174963    2.023736    1.325285
      2          6           0       -1.892699    0.732948    1.784323
      3          6           0       -2.487208   -0.380337    1.182906
      4          6           0       -3.363080   -0.165286    0.119942
      5          6           0       -3.664431    1.108280   -0.360170
      6          6           0       -3.058371    2.206959    0.256388
      7          1           0       -1.708648    2.882889    1.798361
      8          1           0       -1.207030    0.587649    2.614257
      9          1           0       -2.286445   -1.390631    1.518194
     10          1           0       -4.352120    1.221447   -1.189444
     11          1           0       -3.279442    3.208247   -0.102213
     12          7           0       -3.998574   -1.336140   -0.524766
     13          8           0       -4.766690   -1.119938   -1.459588
     14          8           0       -3.716526   -2.447886   -0.083058
     15          6           0        5.567835   -0.823651    0.405154
     16          6           0        4.440668   -1.521981    0.850520
     17          6           0        3.156192   -1.090056    0.506846
     18          6           0        3.035070    0.049267   -0.287235
     19          6           0        4.138681    0.766484   -0.746506
     20          6           0        5.413516    0.316343   -0.390533
     21          1           0        6.561902   -1.166256    0.676905
     22          1           0        4.557496   -2.407640    1.468585
     23          1           0        2.266448   -1.611748    0.837918
     24          1           0        3.990422    1.645925   -1.361340
     25          1           0        6.287094    0.860659   -0.737848
     26          7           0        1.680356    0.516168   -0.657577
     27          8           0        1.600494    1.522808   -1.358246
     28          8           0        0.724046   -0.133354   -0.240169
 ---------------------------------------------------------------------

 SCF Done:  E(RHF) =  -868.337645268     A.U. after   16 cycles
 E2 =    -0.2600224216D+01 EUMP2 =    -0.87093786948324D+03

 The electronic state is 1-A.
 Alpha  occ. eigenvalues --  -20.61187 -20.61171 -20.59695 -20.59688 -15.86219
 Alpha  occ. eigenvalues --  -15.84739 -11.31552 -11.29839 -11.28121 -11.28106
 Alpha  occ. eigenvalues --  -11.27832 -11.27113 -11.27102 -11.26416 -11.26407
 Alpha  occ. eigenvalues --  -11.26151 -11.25423 -11.25411  -1.60253  -1.58769
 Alpha  occ. eigenvalues --   -1.39811  -1.38333  -1.19718  -1.17987  -1.09117
 Alpha  occ. eigenvalues --   -1.07458  -1.05113  -1.03389  -0.95960  -0.94342
 Alpha  occ. eigenvalues --   -0.86512  -0.84833  -0.82796  -0.81205  -0.77852
 Alpha  occ. eigenvalues --   -0.76272  -0.72453  -0.71581  -0.70982  -0.70820
 Alpha  occ. eigenvalues --   -0.70070  -0.69194  -0.65370  -0.65110  -0.63696
 Alpha  occ. eigenvalues --   -0.63476  -0.62462  -0.60800  -0.55607  -0.53974
 Alpha  occ. eigenvalues --   -0.53448  -0.53203  -0.51694  -0.51558  -0.49204
 Alpha  occ. eigenvalues --   -0.49142  -0.47738  -0.47711  -0.45226  -0.43799
 Alpha  occ. eigenvalues --   -0.37697  -0.36717  -0.35934  -0.34862
 Alpha virt. eigenvalues --    0.04662   0.06295   0.10937   0.12716   0.16175
 Alpha virt. eigenvalues --    0.17858   0.21093   0.22544   0.26990   0.27883
 Alpha virt. eigenvalues --    0.28484   0.29432   0.30698   0.32003   0.32239

 Mulliken charges:
               1
     1  C   -0.166991
     2  C   -0.203619
     3  C   -0.158685
     4  C    0.160112
     5  C   -0.170106
     6  C   -0.214805
     7  H    0.219853
     8  H    0.214555
     9  H    0.268860
    10  H    0.271398
    11  H    0.219051
    12  N    0.488431
    13  O   -0.463964
    14  O   -0.464868
    15  C   -0.170631
    16  C   -0.218352
    17  C   -0.171577
    18  C    0.157799
    19  C   -0.171134
    20  C   -0.218409
    21  H    0.226842
    22  H    0.224648
    23  H    0.274208
    24  H    0.275665
    25  H    0.224398
    26  N    0.489160
    27  O   -0.460667
    28  O   -0.461171
 Sum of Mulliken charges =  -0.00000

 Dipole moment (field-independent basis, Debye):
    X=              7.3200    Y=              2.4932    Z=              3.5342  Tot=              8.5023
 Quadrupole moment (field-independent basis, Debye-Ang):
   XX=            -90.6722   YY=           -102.6420   ZZ=           -103.0720
   XY=            -19.2689   XZ=             -4.1050   YZ=             -3.9633

 Normal termination of Gaussian 16 at Thu May  6 19:40:13 2021.
