 Gaussian 16, Revision A.03,
 Gaussian 16:  EM64L-G16RevA.03 25-Dec-2016

 -------------
 #p 6-31g* mp2
 -------------

 ------------------------------------------------------
 Input file generated by CHIRIPA (05-May-2021 14:51:12)
 ------------------------------------------------------
 Symbolic Z-matrix:
 Charge =  0 Multiplicity = 1

                         Standard orientation:
 ---------------------------------------------------------------------
 Center     Atomic      Atomic             Coordinates (Angstroms)
 Number     Number       Type             X           Y           Z
 ---------------------------------------------------------------------
      1          6           0        2.761513    0.745880   -0.094006
      2          6           0        3.944559    1.383809    0.634989
      3          6           0        3.777967    2.891670    0.825767
      4          1           0        2.638229    1.229343   -1.072785
      5          1           0        1.840653    0.945351    0.471347
      6          1           0        4.863103    1.182013    0.069153
      7          1           0        4.065160    0.898641    1.612068
      8          1           0        2.877672    3.108969    1.409592
      9          1           0        3.680149    3.393952   -0.142089
     10          1           0        4.634939    3.327244    1.348963
     11          6           0        2.913361   -0.761224   -0.292270
     12          6           0        1.730315   -1.399153   -1.021264
     13          6           0        1.896907   -2.907014   -1.212043
     14          1           0        3.834221   -0.960695   -0.857622
     15          1           0        3.036645   -1.244687    0.686510
     16          1           0        1.609714   -0.913985   -1.998343
     17          1           0        0.811770   -1.197357   -0.455429
     18          1           0        1.994724   -3.409296   -0.244187
     19          1           0        2.797202   -3.124313   -1.795868
     20          1           0        1.039934   -3.342588   -1.735238
     21          6           0       -2.445813   -0.640656    0.094478
     22          6           0       -2.523875   -1.584834    1.294654
     23          6           0       -1.735419   -2.877494    1.082140
     24          1           0       -2.823102   -1.159552   -0.797343
     25          1           0       -1.392578   -0.400064   -0.106037
     26          1           0       -3.576740   -1.822474    1.493704
     27          1           0       -2.146536   -1.063567    2.183760
     28          1           0       -0.677293   -2.658752    0.905721
     29          1           0       -2.115622   -3.421971    0.211744
     30          1           0       -1.804874   -3.537764    1.952243
     31          6           0       -3.229060    0.656000    0.291797
     32          6           0       -3.150998    1.600179   -0.908378
     33          6           0       -3.939455    2.892837   -0.695864
     34          1           0       -4.282295    0.415409    0.492313
     35          1           0       -2.851772    1.174895    1.183618
     36          1           0       -3.528338    1.078911   -1.797484
     37          1           0       -2.098134    1.837817   -1.107428
     38          1           0       -3.559251    3.437315    0.174531
     39          1           0       -4.997581    2.674096   -0.519445
     40          1           0       -3.869999    3.553108   -1.565967
 ---------------------------------------------------------------------

 SCF Done:  E(RHF) =  -470.732816101     A.U. after   11 cycles
 E2 =    -0.1583841236D+01 EUMP2 =    -0.47231665733679D+03

 The electronic state is 1-A.
 Alpha  occ. eigenvalues --  -11.21638 -11.21613 -11.21590 -11.21589 -11.21446
 Alpha  occ. eigenvalues --  -11.21399 -11.21382 -11.21338 -11.21104 -11.21062
 Alpha  occ. eigenvalues --  -11.21060 -11.21059  -1.08479  -1.08420  -1.03584
 Alpha  occ. eigenvalues --   -1.03503  -0.96020  -0.95960  -0.87037  -0.86975
 Alpha  occ. eigenvalues --   -0.79670  -0.79556  -0.78375  -0.78153  -0.65253
 Alpha  occ. eigenvalues --   -0.64942  -0.61160  -0.60754  -0.59427  -0.59282
 Alpha  occ. eigenvalues --   -0.57646  -0.57552  -0.55392  -0.55174  -0.52691
 Alpha  occ. eigenvalues --   -0.52672  -0.52459  -0.52366  -0.49993  -0.49878
 Alpha  occ. eigenvalues --   -0.48087  -0.47836  -0.46895  -0.46512  -0.46107
 Alpha  occ. eigenvalues --   -0.45783  -0.45758  -0.45153  -0.43806  -0.43780
 Alpha virt. eigenvalues --    0.20597   0.23109   0.23510   0.24799   0.25318
 Alpha virt. eigenvalues --    0.26715   0.27088   0.27401   0.28926   0.29536
 Alpha virt. eigenvalues --    0.30417   0.31352   0.31556   0.31925   0.32097

 Mulliken charges:
               1
     1  C   -0.298471
     2  C   -0.299647
     3  C   -0.475729
     4  H    0.149843
     5  H    0.148318
     6  H    0.152241
     7  H    0.152029
     8  H    0.154987
     9  H    0.155273
    10  H    0.160442
    11  C   -0.297508
    12  C   -0.311829
    13  C   -0.475473
    14  H    0.149864
    15  H    0.149284
    16  H    0.152237
    17  H    0.162134
    18  H    0.155205
    19  H    0.155174
    20  H    0.161495
    21  C   -0.305854
    22  C   -0.299588
    23  C   -0.481281
    24  H    0.149642
    25  H    0.156526
    26  H    0.152116
    27  H    0.151116
    28  H    0.161405
    29  H    0.155265
    30  H    0.160135
    31  C   -0.297503
    32  C   -0.299857
    33  C   -0.475688
    34  H    0.149545
    35  H    0.149204
    36  H    0.151926
    37  H    0.152505
    38  H    0.155129
    39  H    0.155112
    40  H    0.160276
 Sum of Mulliken charges =  -0.00000

 Dipole moment (field-independent basis, Debye):
    X=              0.0125    Y=             -0.0098    Z=             -0.0190  Tot=              0.0248
 Quadrupole moment (field-independent basis, Debye-Ang):
   XX=            -84.1784   YY=            -86.7104   ZZ=            -83.8593
   XY=              0.9427   XZ=             -0.0589   YZ=             -0.1827

 Normal termination of Gaussian 16 at Thu May  6 02:19:23 2021.
