 Gaussian 16, Revision A.03,
 Gaussian 16:  EM64L-G16RevA.03 25-Dec-2016

 -------------
 #p 6-31g* mp2
 -------------

 ------------------------------------------------------
 Input file generated by CHIRIPA (05-May-2021 14:55:25)
 ------------------------------------------------------
 Symbolic Z-matrix:
 Charge =  0 Multiplicity = 1

                         Standard orientation:
 ---------------------------------------------------------------------
 Center     Atomic      Atomic             Coordinates (Angstroms)
 Number     Number       Type             X           Y           Z
 ---------------------------------------------------------------------
      1          6           0        0.649982   -0.532214   -0.099722
      2          6           0        1.146695    0.775370   -0.095229
      3          6           0        2.524031    1.011534   -0.053738
      4          6           0        3.379885   -0.088227   -0.017281
      5          6           0        2.915677   -1.402681   -0.020688
      6          6           0        1.534499   -1.615157   -0.062503
      7          1           0       -0.421458   -0.706471   -0.132079
      8          1           0        0.462118    1.618322   -0.124076
      9          1           0        2.935641    2.013520   -0.049316
     10          1           0        3.622863   -2.222708    0.008677
     11          1           0        1.151582   -2.631724   -0.065894
     12          7           0        4.840042    0.149250    0.026815
     13          8           0        5.573141   -0.836753    0.058420
     14          8           0        5.223766    1.316893    0.028937
     15          6           0       -4.165621    0.859077   -0.246467
     16          6           0       -3.372800    1.968549    0.445264
     17          6           0       -3.678543    3.355226   -0.121695
     18          1           0       -3.943113    0.874175   -1.322203
     19          1           0       -5.239655    1.068467   -0.146469
     20          1           0       -2.300608    1.756403    0.345185
     21          1           0       -3.597074    1.950685    1.519506
     22          1           0       -4.741305    3.592230   -0.007825
     23          1           0       -3.437473    3.396844   -1.188819
     24          1           0       -3.101018    4.133285    0.387177
     25          6           0       -3.870816   -0.533019    0.309311
     26          6           0       -4.663637   -1.642492   -0.382420
     27          6           0       -4.357894   -3.029168    0.184539
     28          1           0       -2.796781   -0.742409    0.209313
     29          1           0       -4.093323   -0.548116    1.385047
     30          1           0       -4.439363   -1.624627   -1.456662
     31          1           0       -5.735828   -1.430346   -0.282341
     32          1           0       -4.598963   -3.070787    1.251662
     33          1           0       -3.295131   -3.266172    0.070669
     34          1           0       -4.935418   -3.807227   -0.324333
 ---------------------------------------------------------------------

 SCF Done:  E(RHF) =  -669.535371243     A.U. after   15 cycles
 E2 =    -0.2091794925D+01 EUMP2 =    -0.67162716616821D+03

 The electronic state is 1-A.
 Alpha  occ. eigenvalues --  -20.60735 -20.60730 -15.85789 -11.31151 -11.27723
 Alpha  occ. eigenvalues --  -11.27720 -11.27446 -11.26736 -11.26725 -11.22733
 Alpha  occ. eigenvalues --  -11.22609 -11.22544 -11.22421 -11.21988 -11.21972
 Alpha  occ. eigenvalues --   -1.59811  -1.39364  -1.19324  -1.09512  -1.08719
 Alpha  occ. eigenvalues --   -1.04729  -1.04535  -0.96972  -0.95557  -0.87982
 Alpha  occ. eigenvalues --   -0.86127  -0.82392  -0.80599  -0.79342  -0.77436
 Alpha  occ. eigenvalues --   -0.72007  -0.71134  -0.70460  -0.66160  -0.64976
 Alpha  occ. eigenvalues --   -0.64727  -0.62114  -0.61902  -0.60335  -0.58589
 Alpha  occ. eigenvalues --   -0.56303  -0.55225  -0.53633  -0.53380  -0.53057
 Alpha  occ. eigenvalues --   -0.52824  -0.50911  -0.48915  -0.48762  -0.48758
 Alpha  occ. eigenvalues --   -0.47644  -0.46865  -0.46783  -0.44808  -0.44771
 Alpha  occ. eigenvalues --   -0.37302  -0.36334
 Alpha virt. eigenvalues --    0.05100   0.11313   0.16586   0.17911   0.22376
 Alpha virt. eigenvalues --    0.22966   0.24850   0.26078   0.26242   0.27127
 Alpha virt. eigenvalues --    0.29440   0.30726   0.30920   0.31227   0.31576

 Mulliken charges:
               1
     1  C   -0.178376
     2  C   -0.225786
     3  C   -0.170748
     4  C    0.158456
     5  C   -0.170666
     6  C   -0.221974
     7  H    0.238673
     8  H    0.227044
     9  H    0.275702
    10  H    0.275513
    11  H    0.223793
    12  N    0.487892
    13  O   -0.460500
    14  O   -0.460497
    15  C   -0.299165
    16  C   -0.301233
    17  C   -0.476840
    18  H    0.150713
    19  H    0.154706
    20  H    0.141714
    21  H    0.156518
    22  H    0.159374
    23  H    0.156203
    24  H    0.162136
    25  C   -0.304389
    26  C   -0.300312
    27  C   -0.475046
    28  H    0.141780
    29  H    0.154484
    30  H    0.153073
    31  H    0.156236
    32  H    0.157850
    33  H    0.149406
    34  H    0.164265
 Sum of Mulliken charges =  -0.00000

 Dipole moment (field-independent basis, Debye):
    X=             -5.4593    Y=             -0.8025    Z=             -0.1378  Tot=              5.5197
 Quadrupole moment (field-independent basis, Debye-Ang):
   XX=           -127.9665   YY=            -90.4511   ZZ=            -95.2317
   XY=             -3.3650   XZ=             -1.0572   YZ=              0.3625

 Normal termination of Gaussian 16 at Thu May  6 12:45:04 2021.
