 Gaussian 16, Revision A.03,
 Gaussian 16:  EM64L-G16RevA.03 25-Dec-2016

 -------------
 #p 6-31g* mp2
 -------------

 ------------------------------------------------------
 Input file generated by CHIRIPA (05-May-2021 14:55:19)
 ------------------------------------------------------
 Symbolic Z-matrix:
 Charge =  0 Multiplicity = 1

                         Standard orientation:
 ---------------------------------------------------------------------
 Center     Atomic      Atomic             Coordinates (Angstroms)
 Number     Number       Type             X           Y           Z
 ---------------------------------------------------------------------
      1          6           0        3.813111    0.495664   -1.572361
      2          6           0        2.992114   -0.627454   -1.717596
      3          6           0        2.103755   -0.993649   -0.702082
      4          6           0        2.062235   -0.210607    0.450485
      5          6           0        2.867362    0.913956    0.624893
      6          6           0        3.748229    1.261434   -0.403641
      7          1           0        4.500300    0.772863   -2.366293
      8          1           0        3.040364   -1.224019   -2.624143
      9          1           0        1.456827   -1.858210   -0.788306
     10          1           0        2.796729    1.489067    1.540140
     11          1           0        4.384637    2.134177   -0.288102
     12          7           0        1.125735   -0.588374    1.532455
     13          8           0        1.108182    0.118013    2.538112
     14          8           0        0.426992   -1.583701    1.354359
     15          6           0       -2.977821    0.832436    0.039950
     16          6           0       -2.673095    2.101425   -0.756790
     17          6           0       -2.959413    3.378648    0.033474
     18          1           0       -4.031958    0.845495    0.349095
     19          1           0       -2.381389    0.835187    0.962802
     20          1           0       -3.268893    2.095613   -1.678530
     21          1           0       -1.619610    2.085251   -1.064237
     22          1           0       -2.354443    3.411215    0.945368
     23          1           0       -4.013098    3.421636    0.327585
     24          1           0       -2.734633    4.273700   -0.554926
     25          6           0       -2.696628   -0.452668   -0.736688
     26          6           0       -3.001355   -1.721657    0.060051
     27          6           0       -2.715037   -2.998880   -0.730211
     28          1           0       -3.293061   -0.455419   -1.659540
     29          1           0       -1.642491   -0.465727   -1.045833
     30          1           0       -4.054840   -1.705485    0.367499
     31          1           0       -2.405556   -1.715846    0.981792
     32          1           0       -1.661352   -3.041869   -1.024322
     33          1           0       -3.320006   -3.031448   -1.642107
     34          1           0       -2.939817   -3.893933   -0.141812
 ---------------------------------------------------------------------

 SCF Done:  E(RHF) =  -669.536560659     A.U. after   15 cycles
 E2 =    -0.2092409821D+01 EUMP2 =    -0.67162897048035D+03

 The electronic state is 1-A.
 Alpha  occ. eigenvalues --  -20.61065 -20.61053 -15.86078 -11.31363 -11.27917
 Alpha  occ. eigenvalues --  -11.27909 -11.27638 -11.26911 -11.26901 -11.21146
 Alpha  occ. eigenvalues --  -11.20681 -11.20660 -11.20619 -11.20436 -11.20265
 Alpha  occ. eigenvalues --   -1.60113  -1.39670  -1.19521  -1.08933  -1.07692
 Alpha  occ. eigenvalues --   -1.04909  -1.02802  -0.95782  -0.95299  -0.86323
 Alpha  occ. eigenvalues --   -0.86311  -0.82616  -0.78886  -0.77676  -0.77484
 Alpha  occ. eigenvalues --   -0.72307  -0.71431  -0.70626  -0.65183  -0.64910
 Alpha  occ. eigenvalues --   -0.64294  -0.62257  -0.60171  -0.58679  -0.56900
 Alpha  occ. eigenvalues --   -0.55413  -0.54588  -0.53242  -0.53000  -0.52013
 Alpha  occ. eigenvalues --   -0.51729  -0.49273  -0.49066  -0.49053  -0.47217
 Alpha  occ. eigenvalues --   -0.45913  -0.45214  -0.44979  -0.44761  -0.43070
 Alpha  occ. eigenvalues --   -0.37492  -0.36505
 Alpha virt. eigenvalues --    0.04814   0.11092   0.16295   0.20776   0.23205
 Alpha virt. eigenvalues --    0.24366   0.26431   0.27414   0.28093   0.28270
 Alpha virt. eigenvalues --    0.28993   0.30519   0.31486   0.32461   0.32530

 Mulliken charges:
               1
     1  C   -0.170354
     2  C   -0.218616
     3  C   -0.172006
     4  C    0.157823
     5  C   -0.170624
     6  C   -0.218461
     7  H    0.226388
     8  H    0.224502
     9  H    0.277181
    10  H    0.275939
    11  H    0.224165
    12  N    0.489293
    13  O   -0.458807
    14  O   -0.460905
    15  C   -0.301635
    16  C   -0.298327
    17  C   -0.475789
    18  H    0.148641
    19  H    0.158671
    20  H    0.149460
    21  H    0.147444
    22  H    0.157620
    23  H    0.155195
    24  H    0.156553
    25  C   -0.295650
    26  C   -0.305868
    27  C   -0.473036
    28  H    0.143903
    29  H    0.142946
    30  H    0.146190
    31  H    0.178765
    32  H    0.150781
    33  H    0.148386
    34  H    0.160231
 Sum of Mulliken charges =  -0.00000

 Dipole moment (field-independent basis, Debye):
    X=              3.5109    Y=              1.2980    Z=             -3.5816  Tot=              5.1807
 Quadrupole moment (field-independent basis, Debye-Ang):
   XX=            -80.6955   YY=            -94.0084   ZZ=            -97.3346
   XY=              3.7641   XZ=             -5.8442   YZ=              3.2478

 Normal termination of Gaussian 16 at Thu May  6 07:42:08 2021.
