 Gaussian 16, Revision A.03,
 Gaussian 16:  EM64L-G16RevA.03 25-Dec-2016

 -------------
 #p 6-31g* mp2
 -------------

 ------------------------------------------------------
 Input file generated by CHIRIPA (05-May-2021 14:55:22)
 ------------------------------------------------------
 Symbolic Z-matrix:
 Charge =  0 Multiplicity = 1

                         Standard orientation:
 ---------------------------------------------------------------------
 Center     Atomic      Atomic             Coordinates (Angstroms)
 Number     Number       Type             X           Y           Z
 ---------------------------------------------------------------------
      1          6           0       -1.548935    1.573417    1.561982
      2          6           0       -1.872648    0.335358    2.126732
      3          6           0       -2.628723   -0.596393    1.409278
      4          6           0       -3.046482   -0.255550    0.123745
      5          6           0       -2.740093    0.969701   -0.466319
      6          6           0       -1.982925    1.886086    0.269538
      7          1           0       -0.961174    2.291255    2.126466
      8          1           0       -1.536960    0.089823    3.130261
      9          1           0       -2.893567   -1.562142    1.822319
     10          1           0       -3.088988    1.185885   -1.468793
     11          1           0       -1.733018    2.846815   -0.171587
     12          7           0       -3.847482   -1.233819   -0.645532
     13          8           0       -4.203485   -0.909409   -1.776309
     14          8           0       -4.104136   -2.306472   -0.103148
     15          6           0        4.031426   -0.579500   -0.270022
     16          6           0        5.468729   -0.585550    0.251618
     17          6           0        6.056940   -1.993612    0.347355
     18          1           0        3.405861   -1.195633    0.390276
     19          1           0        4.005850   -1.056621   -1.259516
     20          1           0        5.491809   -0.107319    1.239231
     21          1           0        6.090906    0.030824   -0.409891
     22          1           0        6.063084   -2.476181   -0.635340
     23          1           0        5.460583   -2.615109    1.023150
     24          1           0        7.084964   -1.974601    0.722411
     25          6           0        3.429610    0.820958   -0.371338
     26          6           0        1.992307    0.827007   -0.892979
     27          6           0        1.404095    2.235069   -0.988716
     28          1           0        3.455186    1.298078    0.618155
     29          1           0        4.055175    1.437091   -1.031637
     30          1           0        1.370130    0.210633   -0.231470
     31          1           0        1.969227    0.348776   -1.880591
     32          1           0        2.000452    2.856566   -1.664511
     33          1           0        1.397952    2.717638   -0.006021
     34          1           0        0.376072    2.216057   -1.363771
 ---------------------------------------------------------------------

 SCF Done:  E(RHF) =  -669.534812428     A.U. after   15 cycles
 E2 =    -0.2092486716D+01 EUMP2 =    -0.67162729914453D+03

 The electronic state is 1-A.
 Alpha  occ. eigenvalues --  -20.60785 -20.60780 -15.85839 -11.31222 -11.27780
 Alpha  occ. eigenvalues --  -11.27769 -11.27528 -11.26826 -11.26782 -11.22008
 Alpha  occ. eigenvalues --  -11.21879 -11.21784 -11.21703 -11.21672 -11.21289
 Alpha  occ. eigenvalues --   -1.59860  -1.39413  -1.19396  -1.08819  -1.08760
 Alpha  occ. eigenvalues --   -1.04809  -1.03905  -0.96385  -0.95616  -0.87420
 Alpha  occ. eigenvalues --   -0.86187  -0.82453  -0.79973  -0.78587  -0.77496
 Alpha  occ. eigenvalues --   -0.72057  -0.71183  -0.70497  -0.65429  -0.65046
 Alpha  occ. eigenvalues --   -0.64825  -0.62179  -0.61308  -0.59758  -0.57990
 Alpha  occ. eigenvalues --   -0.55697  -0.55297  -0.53394  -0.53002  -0.52847
 Alpha  occ. eigenvalues --   -0.52604  -0.50323  -0.48817  -0.48811  -0.48287
 Alpha  occ. eigenvalues --   -0.46993  -0.46134  -0.46053  -0.44815  -0.44169
 Alpha  occ. eigenvalues --   -0.37347  -0.36356
 Alpha virt. eigenvalues --    0.05011   0.11230   0.16410   0.20680   0.22634
 Alpha virt. eigenvalues --    0.24104   0.26154   0.26434   0.26833   0.27648
 Alpha virt. eigenvalues --    0.28822   0.29991   0.31221   0.31624   0.32429

 Mulliken charges:
               1
     1  C   -0.171049
     2  C   -0.219307
     3  C   -0.171233
     4  C    0.159200
     5  C   -0.173167
     6  C   -0.214146
     7  H    0.225799
     8  H    0.223482
     9  H    0.275653
    10  H    0.275619
    11  H    0.225648
    12  N    0.488080
    13  O   -0.460268
    14  O   -0.460344
    15  C   -0.298524
    16  C   -0.299750
    17  C   -0.475859
    18  H    0.149527
    19  H    0.151662
    20  H    0.150663
    21  H    0.152463
    22  H    0.156478
    23  H    0.155238
    24  H    0.160732
    25  C   -0.298291
    26  C   -0.300765
    27  C   -0.474887
    28  H    0.146360
    29  H    0.150466
    30  H    0.155021
    31  H    0.155281
    32  H    0.156437
    33  H    0.145798
    34  H    0.157981
 Sum of Mulliken charges =  -0.00000

 Dipole moment (field-independent basis, Debye):
    X=              2.8449    Y=              3.3883    Z=              2.6907  Tot=              5.1782
 Quadrupole moment (field-independent basis, Debye-Ang):
   XX=           -112.8796   YY=            -95.9507   ZZ=            -90.4769
   XY=            -11.1336   XZ=             -8.2905   YZ=             -3.0071

 Normal termination of Gaussian 16 at Thu May  6 15:52:16 2021.
