 Gaussian 16, Revision A.03,
 Gaussian 16:  EM64L-G16RevA.03 25-Dec-2016

 -------------
 #p 6-31g* mp2
 -------------

 ------------------------------------------------------
 Input file generated by CHIRIPA (05-May-2021 14:51:08)
 ------------------------------------------------------
 Symbolic Z-matrix:
 Charge =  0 Multiplicity = 1

                         Standard orientation:
 ---------------------------------------------------------------------
 Center     Atomic      Atomic             Coordinates (Angstroms)
 Number     Number       Type             X           Y           Z
 ---------------------------------------------------------------------
      1          6           0       -3.004433   -0.735464    0.637919
      2          6           0       -1.675396   -1.447981    0.385008
      3          6           0       -1.461040   -2.645499    1.311181
      4          1           0       -3.041520   -0.402798    1.684295
      5          1           0       -3.827183   -1.452204    0.508454
      6          1           0       -0.855475   -0.729774    0.513557
      7          1           0       -1.641388   -1.778821   -0.660939
      8          1           0       -2.258827   -3.383303    1.177833
      9          1           0       -1.468448   -2.328296    2.359002
     10          1           0       -0.504981   -3.140081    1.113191
     11          6           0       -3.233164    0.463860   -0.280249
     12          6           0       -4.562201    1.176378   -0.027338
     13          6           0       -4.776556    2.373895   -0.953511
     14          1           0       -2.410413    1.180600   -0.150784
     15          1           0       -3.196077    0.131194   -1.326625
     16          1           0       -4.596208    1.507217    1.018609
     17          1           0       -5.382121    0.458170   -0.155887
     18          1           0       -4.769148    2.056692   -2.001332
     19          1           0       -3.978770    3.111700   -0.820163
     20          1           0       -5.732615    2.868477   -0.755521
     21          6           0        3.073980   -0.413755   -0.707427
     22          6           0        2.387689   -1.684240   -0.204574
     23          6           0        2.305632   -2.774438   -1.273465
     24          1           0        2.529200   -0.031836   -1.581668
     25          1           0        4.085746   -0.664854   -1.054811
     26          1           0        1.378017   -1.430580    0.143042
     27          1           0        2.934054   -2.063073    0.668688
     28          1           0        3.307235   -3.056094   -1.614143
     29          1           0        1.742357   -2.420007   -2.142777
     30          1           0        1.811465   -3.673676   -0.892637
     31          6           0        3.163616    0.685360    0.349757
     32          6           0        3.849908    1.955843   -0.153096
     33          6           0        3.931964    3.046042    0.915795
     34          1           0        2.151851    0.936458    0.697141
     35          1           0        3.708396    0.303440    1.223999
     36          1           0        3.303543    2.334676   -1.026358
     37          1           0        4.859579    1.702183   -0.500712
     38          1           0        4.495238    2.691611    1.785106
     39          1           0        2.930361    3.327697    1.256473
     40          1           0        4.426132    3.945279    0.534966
 ---------------------------------------------------------------------

 SCF Done:  E(RHF) =  -470.733037903     A.U. after   11 cycles
 E2 =    -0.1583410143D+01 EUMP2 =    -0.47231644804608D+03

 The electronic state is 1-A.
 Alpha  occ. eigenvalues --  -11.21654 -11.21635 -11.21605 -11.21514 -11.21449
 Alpha  occ. eigenvalues --  -11.21400 -11.21389 -11.21331 -11.21101 -11.21089
 Alpha  occ. eigenvalues --  -11.21080 -11.21055  -1.08484  -1.08408  -1.03602
 Alpha  occ. eigenvalues --   -1.03486  -0.96032  -0.95953  -0.87031  -0.86984
 Alpha  occ. eigenvalues --   -0.79689  -0.79540  -0.78343  -0.78180  -0.65166
 Alpha  occ. eigenvalues --   -0.65002  -0.61069  -0.60861  -0.59534  -0.59199
 Alpha  occ. eigenvalues --   -0.57757  -0.57424  -0.55303  -0.55247  -0.52740
 Alpha  occ. eigenvalues --   -0.52633  -0.52449  -0.52374  -0.49980  -0.49891
 Alpha  occ. eigenvalues --   -0.48036  -0.47845  -0.46850  -0.46489  -0.45969
 Alpha  occ. eigenvalues --   -0.45792  -0.45748  -0.45397  -0.43826  -0.43767
 Alpha virt. eigenvalues --    0.20855   0.23092   0.23219   0.24891   0.25476
 Alpha virt. eigenvalues --    0.26662   0.26727   0.27328   0.28258   0.29075
 Alpha virt. eigenvalues --    0.30287   0.31116   0.31516   0.31767   0.32406

 Mulliken charges:
               1
     1  C   -0.297607
     2  C   -0.303036
     3  C   -0.479041
     4  H    0.149830
     5  H    0.149808
     6  H    0.152915
     7  H    0.152639
     8  H    0.155545
     9  H    0.155379
    10  H    0.163785
    11  C   -0.298339
    12  C   -0.299683
    13  C   -0.475734
    14  H    0.149056
    15  H    0.149673
    16  H    0.152056
    17  H    0.152102
    18  H    0.155209
    19  H    0.155116
    20  H    0.160424
    21  C   -0.297673
    22  C   -0.310284
    23  C   -0.476105
    24  H    0.149621
    25  H    0.149353
    26  H    0.164301
    27  H    0.151278
    28  H    0.155129
    29  H    0.155232
    30  H    0.160039
    31  C   -0.298511
    32  C   -0.299663
    33  C   -0.475659
    34  H    0.148525
    35  H    0.149789
    36  H    0.152018
    37  H    0.152109
    38  H    0.155208
    39  H    0.154885
    40  H    0.160311
 Sum of Mulliken charges =  -0.00000

 Dipole moment (field-independent basis, Debye):
    X=             -0.0289    Y=             -0.0071    Z=              0.0035  Tot=              0.0300
 Quadrupole moment (field-independent basis, Debye-Ang):
   XX=            -83.8831   YY=            -85.8771   ZZ=            -85.0203
   XY=              0.1399   XZ=              0.3368   YZ=              0.2328

 Normal termination of Gaussian 16 at Wed May  5 21:18:59 2021.
