 Gaussian 16, Revision A.03,
 Gaussian 16:  EM64L-G16RevA.03 25-Dec-2016

 -------------
 #p 6-31g* mp2
 -------------

 ------------------------------------------------------
 Input file generated by CHIRIPA (05-May-2021 14:57:26)
 ------------------------------------------------------
 Symbolic Z-matrix:
 Charge =  0 Multiplicity = 1

                         Standard orientation:
 ---------------------------------------------------------------------
 Center     Atomic      Atomic             Coordinates (Angstroms)
 Number     Number       Type             X           Y           Z
 ---------------------------------------------------------------------
      1          6           0       -5.174288    1.345642    0.208133
      2          6           0       -4.598986    1.092710   -1.041496
      3          6           0       -3.460645    0.288287   -1.149351
      4          6           0       -2.921324   -0.249469    0.018228
      5          6           0       -3.471438   -0.015900    1.277637
      6          6           0       -4.609673    0.791507    1.361678
      7          1           0       -6.058537    1.971696    0.282668
      8          1           0       -5.035326    1.521732   -1.939044
      9          1           0       -2.994907    0.076210   -2.104091
     10          1           0       -3.013844   -0.457547    2.154548
     11          1           0       -5.054325    0.986233    2.333486
     12          7           0       -1.716270   -1.102655   -0.083347
     13          8           0       -1.260231   -1.564619    0.960327
     14          8           0       -1.250604   -1.293263   -1.204713
     15          6           0        2.379527   -2.298320   -0.187417
     16          6           0        2.188482   -1.437106   -1.272928
     17          6           0        2.594800   -0.101411   -1.199634
     18          6           0        3.191511    0.341570   -0.020231
     19          6           0        3.395582   -0.491982    1.078329
     20          6           0        2.981407   -1.823845    0.982685
     21          1           0        2.060837   -3.334431   -0.253034
     22          1           0        1.721328   -1.802838   -2.182902
     23          1           0        2.459012    0.586924   -2.024968
     24          1           0        3.864146   -0.098412    1.972179
     25          1           0        3.131044   -2.490410    1.827283
     26          7           0        3.625822    1.753583    0.069193
     27          8           0        4.149092    2.119373    1.119441
     28          8           0        3.434740    2.467790   -0.912660
 ---------------------------------------------------------------------

 SCF Done:  E(RHF) =  -868.339640158     A.U. after   16 cycles
 E2 =    -0.2599752772D+01 EUMP2 =    -0.87093939293066D+03

 The electronic state is 1-A.
 Alpha  occ. eigenvalues --  -20.61392 -20.61370 -20.59831 -20.59826 -15.86407
 Alpha  occ. eigenvalues --  -15.84870 -11.31548 -11.29873 -11.28097 -11.28083
 Alpha  occ. eigenvalues --  -11.27785 -11.27054 -11.27043 -11.26407 -11.26335
 Alpha  occ. eigenvalues --  -11.25959 -11.25354 -11.25201  -1.60436  -1.58915
 Alpha  occ. eigenvalues --   -1.40002  -1.38479  -1.19697  -1.17977  -1.09134
 Alpha  occ. eigenvalues --   -1.07418  -1.05068  -1.03329  -0.96011  -0.94331
 Alpha  occ. eigenvalues --   -0.86478  -0.84738  -0.82857  -0.81191  -0.77927
 Alpha  occ. eigenvalues --   -0.76301  -0.72659  -0.71734  -0.71101  -0.70806
 Alpha  occ. eigenvalues --   -0.70235  -0.69075  -0.65358  -0.65072  -0.63627
 Alpha  occ. eigenvalues --   -0.63325  -0.62422  -0.60711  -0.55579  -0.53805
 Alpha  occ. eigenvalues --   -0.53406  -0.53160  -0.51707  -0.51432  -0.49403
 Alpha  occ. eigenvalues --   -0.49333  -0.47873  -0.47818  -0.45458  -0.43968
 Alpha  occ. eigenvalues --   -0.37662  -0.36658  -0.35832  -0.34868
 Alpha virt. eigenvalues --    0.04594   0.06219   0.11000   0.12792   0.16139
 Alpha virt. eigenvalues --    0.17865   0.21152   0.22827   0.27069   0.28006
 Alpha virt. eigenvalues --    0.28694   0.29667   0.30734   0.32183   0.32399

 Mulliken charges:
               1
     1  C   -0.169770
     2  C   -0.218124
     3  C   -0.170109
     4  C    0.158676
     5  C   -0.170073
     6  C   -0.218231
     7  H    0.227344
     8  H    0.224811
     9  H    0.274080
    10  H    0.275526
    11  H    0.224914
    12  N    0.490474
    13  O   -0.460103
    14  O   -0.467345
    15  C   -0.159687
    16  C   -0.200411
    17  C   -0.177159
    18  C    0.156450
    19  C   -0.174002
    20  C   -0.215839
    21  H    0.225509
    22  H    0.226604
    23  H    0.269638
    24  H    0.269758
    25  H    0.218911
    26  N    0.488120
    27  O   -0.464824
    28  O   -0.465139
 Sum of Mulliken charges =  -0.00000

 Dipole moment (field-independent basis, Debye):
    X=             -6.2288    Y=             -2.1979    Z=              0.0017  Tot=              6.6052
 Quadrupole moment (field-independent basis, Debye-Ang):
   XX=            -91.3463   YY=           -110.8510   ZZ=            -95.6775
   XY=            -25.6486   XZ=             -0.7200   YZ=             -1.4755

 Normal termination of Gaussian 16 at Thu May  6 22:55:54 2021.
