 Gaussian 16, Revision A.03,
 Gaussian 16:  EM64L-G16RevA.03 25-Dec-2016

 -------------
 #p 6-31g* mp2
 -------------

 ------------------------------------------------------
 Input file generated by CHIRIPA (05-May-2021 14:55:22)
 ------------------------------------------------------
 Symbolic Z-matrix:
 Charge =  0 Multiplicity = 1

                         Standard orientation:
 ---------------------------------------------------------------------
 Center     Atomic      Atomic             Coordinates (Angstroms)
 Number     Number       Type             X           Y           Z
 ---------------------------------------------------------------------
      1          6           0        1.654051   -2.587239    0.930629
      2          6           0        1.127443   -1.490018    1.620057
      3          6           0        1.377878   -0.187333    1.178648
      4          6           0        2.162578   -0.017662    0.039022
      5          6           0        2.701377   -1.090526   -0.669461
      6          6           0        2.437956   -2.384348   -0.209919
      7          1           0        1.454463   -3.595754    1.280570
      8          1           0        0.518312   -1.644582    2.506124
      9          1           0        0.982659    0.680032    1.693330
     10          1           0        3.305006   -0.904801   -1.549551
     11          1           0        2.848233   -3.234585   -0.747334
     12          7           0        2.434577    1.356741   -0.437876
     13          8           0        3.128924    1.479503   -1.444578
     14          8           0        1.948272    2.285213    0.204063
     15          6           0       -2.594688   -0.333722   -0.540810
     16          6           0       -3.527160   -1.470799   -0.121836
     17          6           0       -3.282859   -2.757057   -0.911551
     18          1           0       -2.725417   -0.137332   -1.613791
     19          1           0       -1.552548   -0.655157   -0.406581
     20          1           0       -4.567249   -1.146818   -0.255510
     21          1           0       -3.394334   -1.664375    0.950312
     22          1           0       -2.255239   -3.106975   -0.769585
     23          1           0       -3.434818   -2.586476   -1.982258
     24          1           0       -3.960198   -3.556713   -0.595922
     25          6           0       -2.826751    0.958824    0.239701
     26          6           0       -1.894279    2.095899   -0.179274
     27          6           0       -2.138580    3.382158    0.610441
     28          1           0       -3.868892    1.280258    0.105470
     29          1           0       -2.696022    0.762434    1.312680
     30          1           0       -2.027105    2.289476   -1.251422
     31          1           0       -0.854190    1.771920   -0.045601
     32          1           0       -1.986621    3.211578    1.681148
     33          1           0       -3.166200    3.732076    0.468475
     34          1           0       -1.461241    4.181815    0.294813
 ---------------------------------------------------------------------

 SCF Done:  E(RHF) =  -669.536094629     A.U. after   15 cycles
 E2 =    -0.2093547936D+01 EUMP2 =    -0.67162964256482D+03

 The electronic state is 1-A.
 Alpha  occ. eigenvalues --  -20.60974 -20.60965 -15.85988 -11.31345 -11.27920
 Alpha  occ. eigenvalues --  -11.27893 -11.27646 -11.26935 -11.26906 -11.21760
 Alpha  occ. eigenvalues --  -11.21342 -11.21316 -11.21245 -11.21089 -11.20535
 Alpha  occ. eigenvalues --   -1.60023  -1.39580  -1.19518  -1.08911  -1.08336
 Alpha  occ. eigenvalues --   -1.04917  -1.03382  -0.95843  -0.95748  -0.86869
 Alpha  occ. eigenvalues --   -0.86313  -0.82581  -0.79472  -0.78129  -0.77619
 Alpha  occ. eigenvalues --   -0.72215  -0.71335  -0.70618  -0.65173  -0.65027
 Alpha  occ. eigenvalues --   -0.64881  -0.62267  -0.60784  -0.59230  -0.57419
 Alpha  occ. eigenvalues --   -0.55412  -0.55166  -0.53248  -0.53002  -0.52513
 Alpha  occ. eigenvalues --   -0.52267  -0.49828  -0.48998  -0.48971  -0.47776
 Alpha  occ. eigenvalues --   -0.46546  -0.45738  -0.45647  -0.44734  -0.43631
 Alpha  occ. eigenvalues --   -0.37484  -0.36483
 Alpha virt. eigenvalues --    0.04868   0.11039   0.16336   0.20757   0.22947
 Alpha virt. eigenvalues --    0.24066   0.26333   0.27236   0.27758   0.28043
 Alpha virt. eigenvalues --    0.28495   0.30489   0.31439   0.31764   0.32254

 Mulliken charges:
               1
     1  C   -0.171193
     2  C   -0.218718
     3  C   -0.172177
     4  C    0.159791
     5  C   -0.170447
     6  C   -0.218160
     7  H    0.226639
     8  H    0.224561
     9  H    0.276837
    10  H    0.276190
    11  H    0.224337
    12  N    0.488407
    13  O   -0.458248
    14  O   -0.458637
    15  C   -0.302072
    16  C   -0.298123
    17  C   -0.475338
    18  H    0.151033
    19  H    0.150719
    20  H    0.153254
    21  H    0.146756
    22  H    0.151438
    23  H    0.156993
    24  H    0.159028
    25  C   -0.297231
    26  C   -0.306757
    27  C   -0.474011
    28  H    0.149425
    29  H    0.141802
    30  H    0.152877
    31  H    0.159763
    32  H    0.149570
    33  H    0.151493
    34  H    0.170196
 Sum of Mulliken charges =  -0.00000

 Dipole moment (field-independent basis, Debye):
    X=             -0.7285    Y=             -4.7619    Z=              1.6030  Tot=              5.0770
 Quadrupole moment (field-independent basis, Debye-Ang):
   XX=            -97.8651   YY=            -95.0725   ZZ=            -91.8490
   XY=            -11.9283   XZ=              1.9349   YZ=              0.5158

 Normal termination of Gaussian 16 at Thu May  6 15:54:35 2021.
