 Gaussian 16, Revision A.03,
 Gaussian 16:  EM64L-G16RevA.03 25-Dec-2016

 -------------
 #p 6-31g* mp2
 -------------

 ------------------------------------------------------
 Input file generated by CHIRIPA (05-May-2021 14:57:22)
 ------------------------------------------------------
 Symbolic Z-matrix:
 Charge =  0 Multiplicity = 1

                         Standard orientation:
 ---------------------------------------------------------------------
 Center     Atomic      Atomic             Coordinates (Angstroms)
 Number     Number       Type             X           Y           Z
 ---------------------------------------------------------------------
      1          6           0       -4.088056    2.321507   -0.228069
      2          6           0       -2.828877    1.739199   -0.406698
      3          6           0       -2.662276    0.356490   -0.284594
      4          6           0       -3.781484   -0.417396    0.018330
      5          6           0       -5.048936    0.133131    0.202108
      6          6           0       -5.192120    1.518031    0.075229
      7          1           0       -4.208380    3.396479   -0.324776
      8          1           0       -1.969671    2.360725   -0.642311
      9          1           0       -1.698846   -0.120467   -0.417761
     10          1           0       -5.886723   -0.512397    0.436256
     11          1           0       -6.171208    1.967517    0.214491
     12          7           0       -3.617506   -1.882368    0.150123
     13          8           0       -4.619328   -2.542247    0.417611
     14          8           0       -2.490263   -2.342995   -0.016561
     15          6           0        2.254236    2.160254    0.116086
     16          6           0        1.763964    0.908024   -0.268716
     17          6           0        2.616033   -0.198403   -0.334661
     18          6           0        3.958771   -0.015884   -0.007505
     19          6           0        4.477270    1.218920    0.379416
     20          6           0        3.606940    2.311439    0.438356
     21          1           0        1.585235    3.014351    0.164594
     22          1           0        0.713899    0.787661   -0.519556
     23          1           0        2.262978   -1.179154   -0.629445
     24          1           0        5.528895    1.307824    0.623548
     25          1           0        3.990468    3.282753    0.737525
     26          7           0        4.870484   -1.179847   -0.073610
     27          8           0        6.049329   -0.992808    0.219612
     28          8           0        4.388977   -2.257158   -0.417394
 ---------------------------------------------------------------------

 SCF Done:  E(RHF) =  -868.336104406     A.U. after   16 cycles
 E2 =    -0.2599992199D+01 EUMP2 =    -0.87093609660505D+03

 The electronic state is 1-A.
 Alpha  occ. eigenvalues --  -20.61325 -20.61315 -20.60829 -20.60813 -15.86383
 Alpha  occ. eigenvalues --  -15.85885 -11.31900 -11.31400 -11.28604 -11.28424
 Alpha  occ. eigenvalues --  -11.28234 -11.28007 -11.27999 -11.27889 -11.27629
 Alpha  occ. eigenvalues --  -11.27454 -11.27195 -11.27062  -1.60392  -1.59897
 Alpha  occ. eigenvalues --   -1.39944  -1.39445  -1.20084  -1.19620  -1.09440
 Alpha  occ. eigenvalues --   -1.09007  -1.05533  -1.05052  -0.96257  -0.95801
 Alpha  occ. eigenvalues --   -0.86914  -0.86464  -0.83104  -0.82634  -0.78143
 Alpha  occ. eigenvalues --   -0.77630  -0.72597  -0.72101  -0.71717  -0.71223
 Alpha  occ. eigenvalues --   -0.71199  -0.70760  -0.65752  -0.65557  -0.65285
 Alpha  occ. eigenvalues --   -0.65121  -0.62945  -0.62333  -0.56000  -0.55611
 Alpha  occ. eigenvalues --   -0.53818  -0.53657  -0.53364  -0.53151  -0.49365
 Alpha  occ. eigenvalues --   -0.49345  -0.48878  -0.48841  -0.45317  -0.44816
 Alpha  occ. eigenvalues --   -0.38042  -0.37637  -0.37129  -0.36644
 Alpha virt. eigenvalues --    0.04438   0.04917   0.10530   0.10993   0.15897
 Alpha virt. eigenvalues --    0.16337   0.17358   0.22163   0.24375   0.25780
 Alpha virt. eigenvalues --    0.27969   0.29299   0.30521   0.30847   0.32788

 Mulliken charges:
               1
     1  C   -0.170196
     2  C   -0.217899
     3  C   -0.175868
     4  C    0.161831
     5  C   -0.169234
     6  C   -0.218132
     7  H    0.226939
     8  H    0.215040
     9  H    0.272294
    10  H    0.278403
    11  H    0.226316
    12  N    0.488181
    13  O   -0.457009
    14  O   -0.460477
    15  C   -0.171156
    16  C   -0.220018
    17  C   -0.170391
    18  C    0.158759
    19  C   -0.169857
    20  C   -0.218372
    21  H    0.220259
    22  H    0.216876
    23  H    0.282238
    24  H    0.276942
    25  H    0.223751
    26  N    0.487896
    27  O   -0.460367
    28  O   -0.456749
 Sum of Mulliken charges =  -0.00000

 Dipole moment (field-independent basis, Debye):
    X=             -3.8826    Y=              9.1118    Z=             -0.1785  Tot=              9.9061
 Quadrupole moment (field-independent basis, Debye-Ang):
   XX=           -116.3754   YY=           -108.4666   ZZ=           -105.9216
   XY=             -0.1986   XZ=              2.7722   YZ=              1.2075

 Normal termination of Gaussian 16 at Fri May  7 07:54:17 2021.
