 Gaussian 16, Revision A.03,
 Gaussian 16:  EM64L-G16RevA.03 25-Dec-2016

 -------------
 #p 6-31g* mp2
 -------------

 ------------------------------------------------------
 Input file generated by CHIRIPA (05-May-2021 14:53:13)
 ------------------------------------------------------
 Symbolic Z-matrix:
 Charge =  0 Multiplicity = 1

                         Standard orientation:
 ---------------------------------------------------------------------
 Center     Atomic      Atomic             Coordinates (Angstroms)
 Number     Number       Type             X           Y           Z
 ---------------------------------------------------------------------
      1          6           0        3.860638   -0.246238    0.070102
      2          6           0        3.947067    0.894900   -0.943958
      3          6           0        5.376967    1.158321   -1.417022
      4          1           0        4.496458   -0.009385    0.934149
      5          1           0        4.272970   -1.159742   -0.380329
      6          1           0        3.533425    1.805646   -0.492231
      7          1           0        3.310817    0.655390   -1.805606
      8          1           0        5.796209    0.265489   -1.892088
      9          1           0        6.020082    1.422281   -0.571251
     10          1           0        5.415630    1.977894   -2.141359
     11          6           0        2.437520   -0.521569    0.552447
     12          6           0        2.351091   -1.662708    1.566507
     13          6           0        0.921191   -1.926129    2.039571
     14          1           0        2.025188    0.391934    1.002878
     15          1           0        1.801700   -0.758423   -0.311600
     16          1           0        2.987341   -1.423197    2.428155
     17          1           0        2.764733   -2.573454    1.114780
     18          1           0        0.278076   -2.190089    1.193800
     19          1           0        0.501949   -1.033297    2.514637
     20          1           0        0.882528   -2.745702    2.763908
     21          6           0       -2.921909   -1.879940   -1.426802
     22          6           0       -1.618254   -1.376048   -1.371166
     23          6           0       -1.350789   -0.169218   -0.718042
     24          6           0       -2.415584    0.510666   -0.128755
     25          6           0       -3.725216    0.034558   -0.167146
     26          6           0       -3.969383   -1.174272   -0.825676
     27          1           0       -3.120634   -2.818211   -1.936264
     28          1           0       -0.802813   -1.921935   -1.837117
     29          1           0       -0.351042    0.243759   -0.659933
     30          1           0       -4.517454    0.601324    0.306723
     31          1           0       -4.982816   -1.563202   -0.867308
     32          7           0       -2.144761    1.789342    0.565538
     33          8           0       -3.100268    2.369240    1.076777
     34          8           0       -0.982115    2.187458    0.585340
 ---------------------------------------------------------------------

 SCF Done:  E(RHF) =  -669.535446703     A.U. after   15 cycles
 E2 =    -0.2093026858D+01 EUMP2 =    -0.67162847356129D+03

 The electronic state is 1-A.
 Alpha  occ. eigenvalues --  -20.60774 -20.60769 -15.85821 -11.31137 -11.27744
 Alpha  occ. eigenvalues --  -11.27677 -11.27496 -11.26746 -11.26736 -11.21757
 Alpha  occ. eigenvalues --  -11.21624 -11.21612 -11.21477 -11.21137 -11.21067
 Alpha  occ. eigenvalues --   -1.59844  -1.39398  -1.19335  -1.08738  -1.08568
 Alpha  occ. eigenvalues --   -1.04741  -1.03611  -0.96071  -0.95575  -0.87087
 Alpha  occ. eigenvalues --   -0.86136  -0.82415  -0.79684  -0.78448  -0.77420
 Alpha  occ. eigenvalues --   -0.72042  -0.71163  -0.70449  -0.65226  -0.64971
 Alpha  occ. eigenvalues --   -0.64744  -0.62104  -0.60997  -0.59433  -0.57692
 Alpha  occ. eigenvalues --   -0.55382  -0.55238  -0.53111  -0.52885  -0.52726
 Alpha  occ. eigenvalues --   -0.52417  -0.50007  -0.48798  -0.48797  -0.47981
 Alpha  occ. eigenvalues --   -0.46708  -0.45945  -0.45807  -0.44801  -0.43889
 Alpha  occ. eigenvalues --   -0.37320  -0.36292
 Alpha virt. eigenvalues --    0.05048   0.11281   0.16439   0.20285   0.23014
 Alpha virt. eigenvalues --    0.24211   0.25295   0.26554   0.27713   0.28080
 Alpha virt. eigenvalues --    0.29734   0.30358   0.31638   0.31693   0.31991

 Mulliken charges:
               1
     1  C   -0.297350
     2  C   -0.300932
     3  C   -0.475799
     4  H    0.152652
     5  H    0.147349
     6  H    0.159918
     7  H    0.146790
     8  H    0.153509
     9  H    0.156485
    10  H    0.161486
    11  C   -0.305565
    12  C   -0.299033
    13  C   -0.480253
    14  H    0.166532
    15  H    0.134357
    16  H    0.155236
    17  H    0.149201
    18  H    0.151581
    19  H    0.161841
    20  H    0.160149
    21  C   -0.170426
    22  C   -0.222696
    23  C   -0.172528
    24  C    0.157327
    25  C   -0.170061
    26  C   -0.219167
    27  H    0.225577
    28  H    0.223012
    29  H    0.285632
    30  H    0.275480
    31  H    0.223353
    32  N    0.488198
    33  O   -0.460341
    34  O   -0.461513
 Sum of Mulliken charges =  -0.00000

 Dipole moment (field-independent basis, Debye):
    X=             -0.9059    Y=             -4.3659    Z=             -2.3323  Tot=              5.0320
 Quadrupole moment (field-independent basis, Debye-Ang):
   XX=            -86.0671   YY=            -99.8261   ZZ=            -94.1401
   XY=             10.2340   XZ=              5.6757   YZ=              0.1965

 Normal termination of Gaussian 16 at Thu May  6 13:43:25 2021.
