 Gaussian 16, Revision A.03,
 Gaussian 16:  EM64L-G16RevA.03 25-Dec-2016

 -------------
 #p 6-31g* mp2
 -------------

 ------------------------------------------------------
 Input file generated by CHIRIPA (05-May-2021 14:53:15)
 ------------------------------------------------------
 Symbolic Z-matrix:
 Charge =  0 Multiplicity = 1

                         Standard orientation:
 ---------------------------------------------------------------------
 Center     Atomic      Atomic             Coordinates (Angstroms)
 Number     Number       Type             X           Y           Z
 ---------------------------------------------------------------------
      1          6           0        3.516500    0.803365   -0.435025
      2          6           0        3.413449    2.024446    0.479484
      3          6           0        2.482720    3.102576   -0.076549
      4          1           0        3.872710    1.122863   -1.423955
      5          1           0        2.513332    0.381012   -0.585580
      6          1           0        4.416694    2.443548    0.629385
      7          1           0        3.057627    1.701976    1.466408
      8          1           0        1.470725    2.706647   -0.209615
      9          1           0        2.837514    3.452432   -1.051394
     10          1           0        2.423767    3.966343    0.592996
     11          6           0        4.443362   -0.283170    0.107282
     12          6           0        4.546413   -1.504251   -0.807228
     13          6           0        5.477142   -2.582381   -0.251195
     14          1           0        5.446530    0.139183    0.257836
     15          1           0        4.087153   -0.602668    1.096211
     16          1           0        4.902236   -1.181781   -1.794152
     17          1           0        3.543169   -1.923353   -0.957129
     18          1           0        5.122349   -2.932237    0.723650
     19          1           0        6.489138   -2.186452   -0.118129
     20          1           0        5.536095   -3.446149   -0.920740
     21          6           0       -0.725222   -0.194362    0.953806
     22          6           0       -1.482462   -1.368885    1.013828
     23          6           0       -2.804406   -1.385397    0.559140
     24          6           0       -3.339807   -0.204055    0.048192
     25          6           0       -2.610909    0.981973   -0.024841
     26          6           0       -1.290865    0.975256    0.435576
     27          1           0        0.300959   -0.190558    1.309244
     28          1           0       -1.045782   -2.278708    1.415794
     29          1           0       -3.413190   -2.280712    0.593932
     30          1           0       -3.073661    1.873316   -0.430782
     31          1           0       -0.705145    1.888869    0.387738
     32          7           0       -4.738284   -0.209240   -0.436199
     33          8           0       -5.186801    0.844705   -0.881922
     34          8           0       -5.359415   -1.267151   -0.360970
 ---------------------------------------------------------------------

 SCF Done:  E(RHF) =  -669.535472850     A.U. after   15 cycles
 E2 =    -0.2091620885D+01 EUMP2 =    -0.67162709373553D+03

 The electronic state is 1-A.
 Alpha  occ. eigenvalues --  -20.60766 -20.60761 -15.85820 -11.31198 -11.27767
 Alpha  occ. eigenvalues --  -11.27758 -11.27516 -11.26788 -11.26764 -11.22671
 Alpha  occ. eigenvalues --  -11.22365 -11.22337 -11.22236 -11.22216 -11.21704
 Alpha  occ. eigenvalues --   -1.59841  -1.39394  -1.19370  -1.09360  -1.08765
 Alpha  occ. eigenvalues --   -1.04775  -1.04434  -0.96885  -0.95597  -0.87901
 Alpha  occ. eigenvalues --   -0.86175  -0.82428  -0.80497  -0.79143  -0.77474
 Alpha  occ. eigenvalues --   -0.72038  -0.71164  -0.70487  -0.66030  -0.65022
 Alpha  occ. eigenvalues --   -0.64793  -0.62203  -0.61766  -0.60245  -0.58474
 Alpha  occ. eigenvalues --   -0.56225  -0.55259  -0.53562  -0.53328  -0.53102
 Alpha  occ. eigenvalues --   -0.52843  -0.50818  -0.48832  -0.48792  -0.48762
 Alpha  occ. eigenvalues --   -0.47541  -0.46679  -0.46617  -0.44797  -0.44682
 Alpha  occ. eigenvalues --   -0.37350  -0.36373
 Alpha virt. eigenvalues --    0.05045   0.11214   0.16475   0.18203   0.22441
 Alpha virt. eigenvalues --    0.23799   0.25013   0.25412   0.26724   0.28233
 Alpha virt. eigenvalues --    0.29175   0.30597   0.30831   0.31579   0.31714

 Mulliken charges:
               1
     1  C   -0.301247
     2  C   -0.300969
     3  C   -0.480065
     4  H    0.154520
     5  H    0.146092
     6  H    0.157530
     7  H    0.147220
     8  H    0.147597
     9  H    0.161754
    10  H    0.164003
    11  C   -0.298469
    12  C   -0.300071
    13  C   -0.476034
    14  H    0.152899
    15  H    0.145637
    16  H    0.154785
    17  H    0.150698
    18  H    0.154089
    19  H    0.156980
    20  H    0.162714
    21  C   -0.174768
    22  C   -0.218705
    23  C   -0.170964
    24  C    0.158979
    25  C   -0.171668
    26  C   -0.224684
    27  H    0.227540
    28  H    0.223433
    29  H    0.275660
    30  H    0.276264
    31  H    0.231934
    32  N    0.487957
    33  O   -0.460221
    34  O   -0.460419
 Sum of Mulliken charges =  -0.00000

 Dipole moment (field-independent basis, Debye):
    X=              5.1372    Y=              0.0464    Z=              1.6338  Tot=              5.3909
 Quadrupole moment (field-independent basis, Debye-Ang):
   XX=           -127.0568   YY=            -90.3379   ZZ=            -94.9475
   XY=              0.4599   XZ=             -6.4350   YZ=             -1.7407

 Normal termination of Gaussian 16 at Wed May  5 20:17:09 2021.
