 Gaussian 16, Revision A.03,
 Gaussian 16:  EM64L-G16RevA.03 25-Dec-2016

 -------------
 #p 6-31g* mp2
 -------------

 ------------------------------------------------------
 Input file generated by CHIRIPA (05-May-2021 14:51:12)
 ------------------------------------------------------
 Symbolic Z-matrix:
 Charge =  0 Multiplicity = 1

                         Standard orientation:
 ---------------------------------------------------------------------
 Center     Atomic      Atomic             Coordinates (Angstroms)
 Number     Number       Type             X           Y           Z
 ---------------------------------------------------------------------
      1          6           0        3.296867   -0.271081   -0.810650
      2          6           0        3.093225   -1.693155   -0.286990
      3          6           0        3.261964   -2.753715   -1.375353
      4          1           0        2.583037   -0.080857   -1.623796
      5          1           0        4.300547   -0.189985   -1.250473
      6          1           0        2.090739   -1.771159    0.152957
      7          1           0        3.807494   -1.879950    0.525133
      8          1           0        4.266255   -2.704821   -1.808491
      9          1           0        2.539746   -2.595411   -2.182782
     10          1           0        3.112125   -3.762899   -0.979178
     11          6           0        3.131429    0.800330    0.265657
     12          6           0        3.335071    2.222404   -0.258003
     13          6           0        3.166332    3.282963    0.830360
     14          1           0        2.127749    0.719234    0.705480
     15          1           0        3.845259    0.610105    1.078803
     16          1           0        2.620801    2.409199   -1.070126
     17          1           0        4.337557    2.300408   -0.697950
     18          1           0        3.888550    3.124660    1.637789
     19          1           0        2.162040    3.234069    1.263499
     20          1           0        3.316171    4.292148    0.434185
     21          6           0       -2.541716   -0.269040    0.634777
     22          6           0       -2.125815   -1.656601    1.124356
     23          6           0       -0.778471   -1.649166    1.847131
     24          1           0       -1.765940    0.123624   -0.036737
     25          1           0       -2.588540    0.416007    1.492630
     26          1           0       -2.081133   -2.339162    0.266026
     27          1           0       -2.902762   -2.046089    1.794631
     28          1           0       -0.813659   -0.990452    2.720892
     29          1           0        0.012638   -1.285191    1.183601
     30          1           0       -0.500545   -2.651163    2.188625
     31          6           0       -3.886581   -0.260208   -0.089784
     32          6           0       -4.302481    1.127353   -0.579363
     33          6           0       -5.649824    1.119917   -1.302138
     34          1           0       -3.839756   -0.945256   -0.947637
     35          1           0       -4.662356   -0.652873    0.581729
     36          1           0       -3.525535    1.516840   -1.249639
     37          1           0       -4.347163    1.809913    0.278967
     38          1           0       -6.440933    0.755942   -0.638609
     39          1           0       -5.614636    0.461204   -2.175899
     40          1           0       -5.927750    2.121914   -1.643633
 ---------------------------------------------------------------------

 SCF Done:  E(RHF) =  -470.733266047     A.U. after   11 cycles
 E2 =    -0.1582838573D+01 EUMP2 =    -0.47231610462013D+03

 The electronic state is 1-A.
 Alpha  occ. eigenvalues --  -11.21651 -11.21637 -11.21593 -11.21560 -11.21455
 Alpha  occ. eigenvalues --  -11.21396 -11.21394 -11.21337 -11.21115 -11.21098
 Alpha  occ. eigenvalues --  -11.21061 -11.21055  -1.08478  -1.08420  -1.03578
 Alpha  occ. eigenvalues --   -1.03512  -0.96026  -0.95966  -0.87049  -0.86977
 Alpha  occ. eigenvalues --   -0.79666  -0.79554  -0.78308  -0.78214  -0.65167
 Alpha  occ. eigenvalues --   -0.65010  -0.61064  -0.60836  -0.59390  -0.59334
 Alpha  occ. eigenvalues --   -0.57634  -0.57574  -0.55332  -0.55249  -0.52720
 Alpha  occ. eigenvalues --   -0.52663  -0.52454  -0.52386  -0.50061  -0.49857
 Alpha  occ. eigenvalues --   -0.48015  -0.47859  -0.46813  -0.46509  -0.45931
 Alpha  occ. eigenvalues --   -0.45775  -0.45749  -0.45453  -0.43828  -0.43770
 Alpha virt. eigenvalues --    0.20825   0.23156   0.23947   0.24557   0.25521
 Alpha virt. eigenvalues --    0.26860   0.27064   0.27562   0.27974   0.29236
 Alpha virt. eigenvalues --    0.30928   0.31648   0.31743   0.31869   0.31965

 Mulliken charges:
               1
     1  C   -0.297725
     2  C   -0.307933
     3  C   -0.475085
     4  H    0.148700
     5  H    0.149624
     6  H    0.159968
     7  H    0.152168
     8  H    0.155133
     9  H    0.154559
    10  H    0.160294
    11  C   -0.300892
    12  C   -0.299509
    13  C   -0.475765
    14  H    0.151534
    15  H    0.149954
    16  H    0.151655
    17  H    0.151971
    18  H    0.155198
    19  H    0.155498
    20  H    0.160149
    21  C   -0.298394
    22  C   -0.299483
    23  C   -0.483903
    24  H    0.148896
    25  H    0.149690
    26  H    0.152049
    27  H    0.152337
    28  H    0.155756
    29  H    0.162250
    30  H    0.160845
    31  C   -0.298334
    32  C   -0.299688
    33  C   -0.475741
    34  H    0.149616
    35  H    0.149886
    36  H    0.151816
    37  H    0.152024
    38  H    0.155276
    39  H    0.155233
    40  H    0.160376
 Sum of Mulliken charges =  -0.00000

 Dipole moment (field-independent basis, Debye):
    X=             -0.0189    Y=             -0.0069    Z=              0.0228  Tot=              0.0304
 Quadrupole moment (field-independent basis, Debye-Ang):
   XX=            -84.4457   YY=            -85.5658   ZZ=            -84.6945
   XY=              0.0904   XZ=             -0.6348   YZ=             -0.3953

 Normal termination of Gaussian 16 at Wed May  5 21:31:24 2021.
