 Gaussian 16, Revision A.03,
 Gaussian 16:  EM64L-G16RevA.03 25-Dec-2016

 -------------
 #p 6-31g* mp2
 -------------

 ------------------------------------------------------
 Input file generated by CHIRIPA (05-May-2021 14:55:21)
 ------------------------------------------------------
 Symbolic Z-matrix:
 Charge =  0 Multiplicity = 1

                         Standard orientation:
 ---------------------------------------------------------------------
 Center     Atomic      Atomic             Coordinates (Angstroms)
 Number     Number       Type             X           Y           Z
 ---------------------------------------------------------------------
      1          6           0       -3.442885   -1.038195   -1.825669
      2          6           0       -4.155077   -0.300454   -0.874331
      3          6           0       -3.520641    0.171350    0.278681
      4          6           0       -2.166873   -0.114258    0.449067
      5          6           0       -1.430129   -0.846641   -0.480510
      6          6           0       -2.085078   -1.308457   -1.626073
      7          1           0       -3.943698   -1.400824   -2.718463
      8          1           0       -5.209656   -0.089054   -1.026706
      9          1           0       -4.048023    0.744818    1.031290
     10          1           0       -0.379799   -1.041452   -0.300863
     11          1           0       -1.529467   -1.881151   -2.363205
     12          7           0       -1.484366    0.379933    1.665767
     13          8           0       -0.290913    0.114869    1.792447
     14          8           0       -2.155793    1.022987    2.469698
     15          6           0        3.170302   -0.235332    0.214340
     16          6           0        3.435122   -1.641542   -0.324572
     17          6           0        3.940225   -2.602002    0.752543
     18          1           0        4.094491    0.160944    0.656818
     19          1           0        2.434504   -0.294680    1.028265
     20          1           0        4.169167   -1.579398   -1.138165
     21          1           0        2.510246   -2.034441   -0.765991
     22          1           0        3.207840   -2.693629    1.561133
     23          1           0        4.876188   -2.236001    1.186845
     24          1           0        4.123049   -3.601395    0.345543
     25          6           0        2.664856    0.736340   -0.850603
     26          6           0        2.400035    2.142550   -0.311690
     27          6           0        1.894932    3.103011   -1.388807
     28          1           0        3.400654    0.795689   -1.664528
     29          1           0        1.740667    0.340065   -1.293081
     30          1           0        3.324911    2.535450    0.129727
     31          1           0        1.665990    2.080407    0.501901
     32          1           0        0.958969    2.737010   -1.823108
     33          1           0        2.627317    3.194638   -2.197397
     34          1           0        1.712108    4.102404   -0.981806
 ---------------------------------------------------------------------

 SCF Done:  E(RHF) =  -669.536355337     A.U. after   15 cycles
 E2 =    -0.2092898629D+01 EUMP2 =    -0.67162925396587D+03

 The electronic state is 1-A.
 Alpha  occ. eigenvalues --  -20.61052 -20.61038 -15.86071 -11.31338 -11.27893
 Alpha  occ. eigenvalues --  -11.27887 -11.27620 -11.26893 -11.26883 -11.21377
 Alpha  occ. eigenvalues --  -11.21005 -11.20892 -11.20758 -11.20677 -11.20652
 Alpha  occ. eigenvalues --   -1.60100  -1.39659  -1.19502  -1.08915  -1.07948
 Alpha  occ. eigenvalues --   -1.04890  -1.03100  -0.95772  -0.95548  -0.86574
 Alpha  occ. eigenvalues --   -0.86293  -0.82608  -0.79157  -0.77769  -0.77646
 Alpha  occ. eigenvalues --   -0.72308  -0.71407  -0.70611  -0.65174  -0.64945
 Alpha  occ. eigenvalues --   -0.64515  -0.62222  -0.60504  -0.58923  -0.57159
 Alpha  occ. eigenvalues --   -0.55399  -0.54838  -0.53223  -0.52977  -0.52275
 Alpha  occ. eigenvalues --   -0.51974  -0.49509  -0.49062  -0.49045  -0.47484
 Alpha  occ. eigenvalues --   -0.46195  -0.45368  -0.45309  -0.44805  -0.43332
 Alpha  occ. eigenvalues --   -0.37475  -0.36483
 Alpha virt. eigenvalues --    0.04817   0.11117   0.16316   0.19518   0.22890
 Alpha virt. eigenvalues --    0.24604   0.25806   0.27461   0.28004   0.28343
 Alpha virt. eigenvalues --    0.29716   0.31272   0.31561   0.32182   0.32281

 Mulliken charges:
               1
     1  C   -0.170278
     2  C   -0.218588
     3  C   -0.170330
     4  C    0.157323
     5  C   -0.174788
     6  C   -0.219873
     7  H    0.226344
     8  H    0.224071
     9  H    0.275883
    10  H    0.282158
    11  H    0.224594
    12  N    0.493978
    13  O   -0.467352
    14  O   -0.457767
    15  C   -0.311804
    16  C   -0.297318
    17  C   -0.476105
    18  H    0.148916
    19  H    0.177899
    20  H    0.149947
    21  H    0.139126
    22  H    0.159956
    23  H    0.156305
    24  H    0.156721
    25  C   -0.294191
    26  C   -0.306623
    27  C   -0.475347
    28  H    0.145918
    29  H    0.136748
    30  H    0.150968
    31  H    0.170114
    32  H    0.150608
    33  H    0.152060
    34  H    0.160724
 Sum of Mulliken charges =  -0.00000

 Dipole moment (field-independent basis, Debye):
    X=             -2.5741    Y=             -1.6918    Z=             -4.0144  Tot=              5.0600
 Quadrupole moment (field-independent basis, Debye-Ang):
   XX=            -80.0272   YY=            -95.0985   ZZ=            -99.2046
   XY=              2.7663   XZ=              7.0640   YZ=              1.2104

 Normal termination of Gaussian 16 at Wed May  5 22:13:12 2021.
