 Gaussian 16, Revision A.03,
 Gaussian 16:  EM64L-G16RevA.03 25-Dec-2016

 -------------
 #p 6-31g* mp2
 -------------

 ------------------------------------------------------
 Input file generated by CHIRIPA (05-May-2021 14:53:17)
 ------------------------------------------------------
 Symbolic Z-matrix:
 Charge =  0 Multiplicity = 1

                         Standard orientation:
 ---------------------------------------------------------------------
 Center     Atomic      Atomic             Coordinates (Angstroms)
 Number     Number       Type             X           Y           Z
 ---------------------------------------------------------------------
      1          6           0        4.030296   -0.473085   -0.132814
      2          6           0        4.596443    0.851398    0.380225
      3          6           0        6.064130    0.745616    0.795552
      4          1           0        4.137473   -1.237636    0.648800
      5          1           0        4.630613   -0.813809   -0.987753
      6          1           0        3.994392    1.190219    1.233073
      7          1           0        4.487731    1.612932   -0.402631
      8          1           0        6.682481    0.431231   -0.051446
      9          1           0        6.186338    0.006116    1.593552
     10          1           0        6.448541    1.703702    1.159090
     11          6           0        2.563986   -0.383370   -0.551877
     12          6           0        1.997840   -1.707853   -1.064916
     13          6           0        0.530152   -1.602072   -1.480243
     14          1           0        1.963670   -0.042646    0.303062
     15          1           0        2.456809    0.381181   -1.333491
     16          1           0        2.106551   -2.469388   -0.282060
     17          1           0        2.599891   -2.046674   -1.917765
     18          1           0        0.407944   -0.862571   -2.278243
     19          1           0       -0.088198   -1.287686   -0.633245
     20          1           0        0.145742   -2.560158   -1.843781
     21          6           0       -3.066079   -2.039891    0.965781
     22          6           0       -3.826399   -1.435058   -0.040506
     23          6           0       -3.563675   -0.119949   -0.435487
     24          6           0       -2.528502    0.564106    0.199946
     25          6           0       -1.753278   -0.011020    1.205704
     26          6           0       -2.033764   -1.327198    1.584583
     27          1           0       -3.277069   -3.061915    1.266358
     28          1           0       -4.628724   -1.986139   -0.522824
     29          1           0       -4.136673    0.372544   -1.211724
     30          1           0       -0.959964    0.563684    1.668078
     31          1           0       -1.441653   -1.794376    2.366371
     32          7           0       -2.240965    1.956919   -0.209680
     33          8           0       -1.323502    2.538162    0.365694
     34          8           0       -2.938502    2.440989   -1.098362
 ---------------------------------------------------------------------

 SCF Done:  E(RHF) =  -669.534570555     A.U. after   15 cycles
 E2 =    -0.2093219598D+01 EUMP2 =    -0.67162779015321D+03

 The electronic state is 1-A.
 Alpha  occ. eigenvalues --  -20.60790 -20.60784 -15.85844 -11.31232 -11.27816
 Alpha  occ. eigenvalues --  -11.27803 -11.27563 -11.26840 -11.26830 -11.21592
 Alpha  occ. eigenvalues --  -11.21448 -11.21332 -11.21273 -11.20956 -11.20903
 Alpha  occ. eigenvalues --   -1.59863  -1.39416  -1.19433  -1.08807  -1.08354
 Alpha  occ. eigenvalues --   -1.04848  -1.03443  -0.95896  -0.95637  -0.86912
 Alpha  occ. eigenvalues --   -0.86228  -0.82473  -0.79509  -0.78158  -0.77514
 Alpha  occ. eigenvalues --   -0.72063  -0.71187  -0.70528  -0.65080  -0.65000
 Alpha  occ. eigenvalues --   -0.64831  -0.62183  -0.60873  -0.59265  -0.57528
 Alpha  occ. eigenvalues --   -0.55336  -0.55301  -0.53328  -0.52923  -0.52570
 Alpha  occ. eigenvalues --   -0.52144  -0.49773  -0.48824  -0.48816  -0.47798
 Alpha  occ. eigenvalues --   -0.46532  -0.45692  -0.45636  -0.44810  -0.43704
 Alpha  occ. eigenvalues --   -0.37395  -0.36364
 Alpha virt. eigenvalues --    0.05000   0.11155   0.16479   0.21049   0.22940
 Alpha virt. eigenvalues --    0.24384   0.25957   0.27214   0.27653   0.28047
 Alpha virt. eigenvalues --    0.28772   0.30831   0.31572   0.31898   0.32041

 Mulliken charges:
               1
     1  C   -0.298324
     2  C   -0.299586
     3  C   -0.475749
     4  H    0.146530
     5  H    0.149718
     6  H    0.152220
     7  H    0.155255
     8  H    0.154944
     9  H    0.153408
    10  H    0.161169
    11  C   -0.297426
    12  C   -0.298924
    13  C   -0.483529
    14  H    0.145431
    15  H    0.155284
    16  H    0.146616
    17  H    0.152105
    18  H    0.157061
    19  H    0.162948
    20  H    0.155697
    21  C   -0.169452
    22  C   -0.217316
    23  C   -0.170632
    24  C    0.165458
    25  C   -0.179963
    26  C   -0.216449
    27  H    0.226043
    28  H    0.223908
    29  H    0.276008
    30  H    0.276263
    31  H    0.223942
    32  N    0.488138
    33  O   -0.460366
    34  O   -0.460432
 Sum of Mulliken charges =  -0.00000

 Dipole moment (field-independent basis, Debye):
    X=             -1.1198    Y=             -4.8204    Z=              1.4322  Tot=              5.1518
 Quadrupole moment (field-independent basis, Debye-Ang):
   XX=            -88.1426   YY=           -101.0900   ZZ=            -91.6101
   XY=             12.5776   XZ=             -1.7293   YZ=             -0.4565

 Normal termination of Gaussian 16 at Thu May  6 13:58:14 2021.
