 Gaussian 16, Revision A.03,
 Gaussian 16:  EM64L-G16RevA.03 25-Dec-2016

 -------------
 #p 6-31g* mp2
 -------------

 ------------------------------------------------------
 Input file generated by CHIRIPA (05-May-2021 14:57:23)
 ------------------------------------------------------
 Symbolic Z-matrix:
 Charge =  0 Multiplicity = 1

                         Standard orientation:
 ---------------------------------------------------------------------
 Center     Atomic      Atomic             Coordinates (Angstroms)
 Number     Number       Type             X           Y           Z
 ---------------------------------------------------------------------
      1          6           0       -3.514772    2.664462   -0.018289
      2          6           0       -3.018805    1.978472    1.095243
      3          6           0       -2.888661    0.586690    1.071747
      4          6           0       -3.265676   -0.090447   -0.086974
      5          6           0       -3.763144    0.564570   -1.212483
      6          6           0       -3.884707    1.956569   -1.166574
      7          1           0       -3.612538    3.745716    0.008668
      8          1           0       -2.730728    2.525627    1.988372
      9          1           0       -2.507631    0.030515    1.919629
     10          1           0       -4.042087   -0.008299   -2.088513
     11          1           0       -4.270189    2.486687   -2.032844
     12          7           0       -3.132441   -1.563979   -0.123712
     13          8           0       -3.471537   -2.137372   -1.156606
     14          8           0       -2.691438   -2.117640    0.881084
     15          6           0        1.286419   -1.372176    1.015385
     16          6           0        1.770762   -1.693553   -0.256876
     17          6           0        2.878903   -1.024236   -0.784688
     18          6           0        3.481105   -0.034487   -0.009421
     19          6           0        3.022053    0.308415    1.261397
     20          6           0        1.912507   -0.373977    1.769132
     21          1           0        0.425042   -1.897196    1.417604
     22          1           0        1.286530   -2.468324   -0.844494
     23          1           0        3.274610   -1.253000   -1.766778
     24          1           0        3.525795    1.085405    1.823490
     25          1           0        1.538534   -0.122292    2.757487
     26          7           0        4.654989    0.681010   -0.557566
     27          8           0        5.167769    1.549047    0.145431
     28          8           0        5.040070    0.360231   -1.679818
 ---------------------------------------------------------------------

 SCF Done:  E(RHF) =  -868.339752169     A.U. after   16 cycles
 E2 =    -0.2598855878D+01 EUMP2 =    -0.87093860804683D+03

 The electronic state is 1-A.
 Alpha  occ. eigenvalues --  -20.61784 -20.61717 -20.60595 -20.60586 -15.86777
 Alpha  occ. eigenvalues --  -15.85644 -11.31888 -11.30905 -11.28473 -11.28395
 Alpha  occ. eigenvalues --  -11.28090 -11.27514 -11.27444 -11.27392 -11.27345
 Alpha  occ. eigenvalues --  -11.27029 -11.26476 -11.26337  -1.60814  -1.59672
 Alpha  occ. eigenvalues --   -1.40378  -1.39228  -1.20030  -1.19060  -1.09466
 Alpha  occ. eigenvalues --   -1.08444  -1.05400  -1.04457  -0.96348  -0.95297
 Alpha  occ. eigenvalues --   -0.86809  -0.85841  -0.83194  -0.82143  -0.78280
 Alpha  occ. eigenvalues --   -0.77235  -0.73005  -0.72128  -0.71861  -0.71135
 Alpha  occ. eigenvalues --   -0.70997  -0.70062  -0.65688  -0.65399  -0.64697
 Alpha  occ. eigenvalues --   -0.64442  -0.62762  -0.61810  -0.55891  -0.54825
 Alpha  occ. eigenvalues --   -0.53731  -0.53491  -0.52789  -0.52530  -0.49775
 Alpha  occ. eigenvalues --   -0.49730  -0.48625  -0.48610  -0.45830  -0.44658
 Alpha  occ. eigenvalues --   -0.37980  -0.37061  -0.36922  -0.36082
 Alpha virt. eigenvalues --    0.04208   0.05306   0.10662   0.11578   0.15741
 Alpha virt. eigenvalues --    0.16835   0.20600   0.21931   0.26495   0.27322
 Alpha virt. eigenvalues --    0.27745   0.28930   0.30535   0.31322   0.32443

 Mulliken charges:
               1
     1  C   -0.169342
     2  C   -0.217473
     3  C   -0.170183
     4  C    0.158625
     5  C   -0.170268
     6  C   -0.217955
     7  H    0.228775
     8  H    0.224343
     9  H    0.269787
    10  H    0.276747
    11  H    0.226396
    12  N    0.488574
    13  O   -0.455887
    14  O   -0.469557
    15  C   -0.178864
    16  C   -0.221683
    17  C   -0.171537
    18  C    0.157473
    19  C   -0.171789
    20  C   -0.221031
    21  H    0.243344
    22  H    0.230013
    23  H    0.274992
    24  H    0.272909
    25  H    0.218891
    26  N    0.488155
    27  O   -0.462538
    28  O   -0.460918
 Sum of Mulliken charges =  -0.00000

 Dipole moment (field-independent basis, Debye):
    X=             -4.9179    Y=              2.6959    Z=              1.9129  Tot=              5.9256
 Quadrupole moment (field-independent basis, Debye-Ang):
   XX=           -131.5166   YY=           -104.7235   ZZ=            -97.3632
   XY=            -26.1882   XZ=              8.9020   YZ=              2.2089

 Normal termination of Gaussian 16 at Fri May  7 00:16:24 2021.
