 Gaussian 16, Revision A.03,
 Gaussian 16:  EM64L-G16RevA.03 25-Dec-2016

 -------------
 #p 6-31g* mp2
 -------------

 ------------------------------------------------------
 Input file generated by CHIRIPA (05-May-2021 14:51:14)
 ------------------------------------------------------
 Symbolic Z-matrix:
 Charge =  0 Multiplicity = 1

                         Standard orientation:
 ---------------------------------------------------------------------
 Center     Atomic      Atomic             Coordinates (Angstroms)
 Number     Number       Type             X           Y           Z
 ---------------------------------------------------------------------
      1          6           0        2.317056   -1.303517    0.550736
      2          6           0        0.790765   -1.275804    0.463250
      3          6           0        0.131058   -2.379039    1.291171
      4          1           0        2.679599   -2.284001    0.212864
      5          1           0        2.618942   -1.204128    1.602583
      6          1           0        0.491882   -1.373825   -0.588261
      7          1           0        0.431825   -0.295204    0.801188
      8          1           0        0.400430   -2.281082    2.347790
      9          1           0        0.460829   -3.365832    0.950446
     10          1           0       -0.960030   -2.340711    1.214256
     11          6           0        2.991017   -0.206618   -0.271649
     12          6           0        4.517308   -0.234331   -0.184163
     13          6           0        5.177015    0.868905   -1.012084
     14          1           0        2.689131   -0.306006   -1.323496
     15          1           0        2.628474    0.773867    0.066223
     16          1           0        4.876248   -1.214931   -0.522101
     17          1           0        4.816191   -0.136310    0.867348
     18          1           0        4.847244    1.855697   -0.671359
     19          1           0        4.907643    0.770948   -2.068703
     20          1           0        6.268104    0.830577   -0.935169
     21          6           0       -2.515927    1.338041    0.334270
     22          6           0       -1.372977    2.240516   -0.131766
     23          6           0       -1.108684    3.402241    0.826535
     24          1           0       -3.428518    1.939824    0.443723
     25          1           0       -2.279399    0.944536    1.332571
     26          1           0       -1.610960    2.631101   -1.129475
     27          1           0       -0.463047    1.636478   -0.240306
     28          1           0       -0.846224    3.028713    1.821619
     29          1           0       -2.000658    4.028987    0.927397
     30          1           0       -0.287818    4.034575    0.474127
     31          6           0       -2.792147    0.172094   -0.613357
     32          6           0       -3.935096   -0.730382   -0.147321
     33          6           0       -4.199389   -1.892107   -1.105621
     34          1           0       -3.028673    0.565598   -1.611657
     35          1           0       -1.879555   -0.429689   -0.722809
     36          1           0       -4.845026   -0.126344   -0.038782
     37          1           0       -3.697113   -1.120966    0.850389
     38          1           0       -3.307415   -2.518852   -1.206484
     39          1           0       -4.461849   -1.518579   -2.100706
     40          1           0       -5.020255   -2.524440   -0.753214
 ---------------------------------------------------------------------

 SCF Done:  E(RHF) =  -470.732550455     A.U. after   11 cycles
 E2 =    -0.1584861206D+01 EUMP2 =    -0.47231741166142D+03

 The electronic state is 1-A.
 Alpha  occ. eigenvalues --  -11.21699 -11.21647 -11.21577 -11.21525 -11.21477
 Alpha  occ. eigenvalues --  -11.21417 -11.21347 -11.21262 -11.21183 -11.21100
 Alpha  occ. eigenvalues --  -11.21063 -11.21060  -1.08534  -1.08368  -1.03613
 Alpha  occ. eigenvalues --   -1.03503  -0.96063  -0.95944  -0.87075  -0.86965
 Alpha  occ. eigenvalues --   -0.79714  -0.79562  -0.78440  -0.78081  -0.65236
 Alpha  occ. eigenvalues --   -0.64989  -0.61135  -0.60799  -0.59411  -0.59316
 Alpha  occ. eigenvalues --   -0.57703  -0.57525  -0.55340  -0.55228  -0.52753
 Alpha  occ. eigenvalues --   -0.52654  -0.52480  -0.52374  -0.50051  -0.49857
 Alpha  occ. eigenvalues --   -0.48105  -0.47867  -0.46841  -0.46512  -0.46186
 Alpha  occ. eigenvalues --   -0.45749  -0.45691  -0.45200  -0.43851  -0.43742
 Alpha virt. eigenvalues --    0.19724   0.22286   0.23395   0.24924   0.25653
 Alpha virt. eigenvalues --    0.26494   0.26713   0.27766   0.28156   0.29655
 Alpha virt. eigenvalues --    0.30242   0.31063   0.31637   0.31879   0.32534

 Mulliken charges:
               1
     1  C   -0.297620
     2  C   -0.307486
     3  C   -0.479334
     4  H    0.149970
     5  H    0.149619
     6  H    0.152464
     7  H    0.159096
     8  H    0.155750
     9  H    0.155894
    10  H    0.162825
    11  C   -0.299721
    12  C   -0.299670
    13  C   -0.475782
    14  H    0.149849
    15  H    0.150399
    16  H    0.152170
    17  H    0.152066
    18  H    0.155359
    19  H    0.155333
    20  H    0.160417
    21  C   -0.298293
    22  C   -0.306129
    23  C   -0.475737
    24  H    0.149673
    25  H    0.148976
    26  H    0.151982
    27  H    0.157874
    28  H    0.154215
    29  H    0.155414
    30  H    0.159947
    31  C   -0.306645
    32  C   -0.300493
    33  C   -0.476192
    34  H    0.149039
    35  H    0.160208
    36  H    0.151955
    37  H    0.151941
    38  H    0.155145
    39  H    0.155258
    40  H    0.160264
 Sum of Mulliken charges =  -0.00000

 Dipole moment (field-independent basis, Debye):
    X=              0.0551    Y=             -0.0258    Z=             -0.0086  Tot=              0.0615
 Quadrupole moment (field-independent basis, Debye-Ang):
   XX=            -84.8862   YY=            -85.4683   ZZ=            -84.5186
   XY=             -1.1452   XZ=              0.4830   YZ=              0.0730

 Normal termination of Gaussian 16 at Wed May  5 23:15:35 2021.
