 Gaussian 16, Revision A.03,
 Gaussian 16:  EM64L-G16RevA.03 25-Dec-2016

 -------------
 #p 6-31g* mp2
 -------------

 ------------------------------------------------------
 Input file generated by CHIRIPA (05-May-2021 14:57:23)
 ------------------------------------------------------
 Symbolic Z-matrix:
 Charge =  0 Multiplicity = 1

                         Standard orientation:
 ---------------------------------------------------------------------
 Center     Atomic      Atomic             Coordinates (Angstroms)
 Number     Number       Type             X           Y           Z
 ---------------------------------------------------------------------
      1          6           0       -1.526193   -0.661554   -0.152143
      2          6           0       -2.466783   -1.637352    0.193732
      3          6           0       -3.824159   -1.314862    0.283602
      4          6           0       -4.207646   -0.000846    0.019802
      5          6           0       -3.294500    0.993680   -0.327143
      6          6           0       -1.942320    0.648538   -0.411021
      7          1           0       -0.473769   -0.920871   -0.219629
      8          1           0       -2.146491   -2.655596    0.395323
      9          1           0       -4.573497   -2.050603    0.549302
     10          1           0       -3.644102    2.000200   -0.522374
     11          1           0       -1.214064    1.408420   -0.679849
     12          7           0       -5.641889    0.352551    0.111772
     13          8           0       -5.954143    1.517390   -0.125470
     14          8           0       -6.426636   -0.541988    0.419357
     15          6           0        4.058340    2.574019    0.178317
     16          6           0        2.866993    1.939715   -0.188937
     17          6           0        2.807181    0.546860   -0.293450
     18          6           0        3.962847   -0.184044   -0.022333
     19          6           0        5.164690    0.418730    0.345809
     20          6           0        5.201370    1.812843    0.444049
     21          1           0        4.095818    3.656511    0.257068
     22          1           0        1.977744    2.528314   -0.395897
     23          1           0        1.898006    0.030041   -0.575790
     24          1           0        6.034729   -0.194789    0.545918
     25          1           0        6.127961    2.302750    0.729470
     26          7           0        3.911771   -1.659264   -0.129655
     27          8           0        4.943767   -2.280586    0.114433
     28          8           0        2.840708   -2.166285   -0.455829
 ---------------------------------------------------------------------

 SCF Done:  E(RHF) =  -868.337594396     A.U. after   16 cycles
 E2 =    -0.2599613134D+01 EUMP2 =    -0.87093720752983D+03

 The electronic state is 1-A.
 Alpha  occ. eigenvalues --  -20.61733 -20.61689 -20.60831 -20.60820 -15.86762
 Alpha  occ. eigenvalues --  -15.85884 -11.32108 -11.31263 -11.28795 -11.28596
 Alpha  occ. eigenvalues --  -11.28345 -11.27901 -11.27796 -11.27730 -11.27591
 Alpha  occ. eigenvalues --  -11.27584 -11.26984 -11.26760  -1.60776  -1.59903
 Alpha  occ. eigenvalues --   -1.40337  -1.39457  -1.20263  -1.19445  -1.09646
 Alpha  occ. eigenvalues --   -1.08836  -1.05679  -1.04859  -0.96497  -0.95666
 Alpha  occ. eigenvalues --   -0.87072  -0.86259  -0.83342  -0.82504  -0.78414
 Alpha  occ. eigenvalues --   -0.77549  -0.72986  -0.72102  -0.72091  -0.71391
 Alpha  occ. eigenvalues --   -0.71227  -0.70534  -0.65921  -0.65684  -0.65104
 Alpha  occ. eigenvalues --   -0.64886  -0.63050  -0.62208  -0.56149  -0.55350
 Alpha  occ. eigenvalues --   -0.53977  -0.53756  -0.53176  -0.52959  -0.49753
 Alpha  occ. eigenvalues --   -0.49718  -0.48862  -0.48855  -0.45746  -0.44859
 Alpha  occ. eigenvalues --   -0.38202  -0.37421  -0.37266  -0.36460
 Alpha virt. eigenvalues --    0.04144   0.05002   0.10377   0.11191   0.15670
 Alpha virt. eigenvalues --    0.16490   0.17509   0.22182   0.24747   0.24987
 Alpha virt. eigenvalues --    0.27722   0.28951   0.30561   0.31360   0.33255

 Mulliken charges:
               1
     1  C   -0.177828
     2  C   -0.219448
     3  C   -0.170293
     4  C    0.158289
     5  C   -0.170478
     6  C   -0.219271
     7  H    0.237058
     8  H    0.230549
     9  H    0.276837
    10  H    0.274385
    11  H    0.211973
    12  N    0.488084
    13  O   -0.461348
    14  O   -0.459303
    15  C   -0.169656
    16  C   -0.219595
    17  C   -0.174023
    18  C    0.158542
    19  C   -0.169067
    20  C   -0.218006
    21  H    0.229036
    22  H    0.220754
    23  H    0.272311
    24  H    0.278263
    25  H    0.227052
    26  N    0.488524
    27  O   -0.454934
    28  O   -0.468409
 Sum of Mulliken charges =  -0.00000

 Dipole moment (field-independent basis, Debye):
    X=              5.4992    Y=              3.8727    Z=              0.1507  Tot=              6.7277
 Quadrupole moment (field-independent basis, Debye-Ang):
   XX=           -139.7856   YY=           -102.4597   ZZ=           -105.9007
   XY=             27.5797   XZ=              4.2750   YZ=             -1.6362

 Normal termination of Gaussian 16 at Fri May  7 00:15:30 2021.
