 Gaussian 16, Revision A.03,
 Gaussian 16:  EM64L-G16RevA.03 25-Dec-2016

 -------------
 #p 6-31g* mp2
 -------------

 ------------------------------------------------------
 Input file generated by CHIRIPA (05-May-2021 14:51:08)
 ------------------------------------------------------
 Symbolic Z-matrix:
 Charge =  0 Multiplicity = 1

                         Standard orientation:
 ---------------------------------------------------------------------
 Center     Atomic      Atomic             Coordinates (Angstroms)
 Number     Number       Type             X           Y           Z
 ---------------------------------------------------------------------
      1          6           0       -2.135278   -1.335445   -0.166866
      2          6           0       -1.306125   -1.996820    0.934531
      3          6           0       -0.484043   -3.181109    0.425184
      4          1           0       -2.804857   -2.083831   -0.612428
      5          1           0       -1.464313   -0.999107   -0.969411
      6          1           0       -1.978315   -2.330573    1.735396
      7          1           0       -0.638577   -1.246726    1.377652
      8          1           0        0.209414   -2.859940   -0.358760
      9          1           0       -1.137935   -3.949945    0.001017
     10          1           0        0.100988   -3.638984    1.228893
     11          6           0       -2.962576   -0.149874    0.326824
     12          6           0       -3.791729    0.511501   -0.774572
     13          6           0       -4.613811    1.695790   -0.265226
     14          1           0       -3.633540   -0.486212    1.129369
     15          1           0       -2.292996    0.598512    0.772386
     16          1           0       -4.459276   -0.238593   -1.217694
     17          1           0       -3.119539    0.845254   -1.575438
     18          1           0       -3.959919    2.464626    0.158941
     19          1           0       -5.307268    1.374621    0.518718
     20          1           0       -5.198842    2.153665   -1.068935
     21          6           0        2.630936    0.137385   -0.538617
     22          6           0        3.231051   -1.080027    0.165480
     23          6           0        3.388911   -2.282895   -0.765103
     24          1           0        1.652514   -0.134713   -0.957664
     25          1           0        3.269845    0.412123   -1.389328
     26          1           0        2.591940   -1.351542    1.015440
     27          1           0        4.208073   -0.804946    0.583064
     28          1           0        4.043816   -2.035452   -1.606811
     29          1           0        2.418501   -2.585154   -1.171977
     30          1           0        3.819597   -3.141943   -0.241266
     31          6           0        2.466918    1.347935    0.378659
     32          6           0        1.866802    2.565346   -0.325438
     33          6           0        1.708943    3.768214    0.605145
     34          1           0        1.828009    1.073196    1.229370
     35          1           0        3.445340    1.620032    0.797705
     36          1           0        0.889781    2.290266   -0.743022
     37          1           0        2.505914    2.836861   -1.175398
     38          1           0        2.679352    4.070472    1.012020
     39          1           0        1.054037    3.520771    1.446853
     40          1           0        1.278256    4.627262    0.081308
 ---------------------------------------------------------------------

 SCF Done:  E(RHF) =  -470.733224665     A.U. after   11 cycles
 E2 =    -0.1583781934D+01 EUMP2 =    -0.47231700659939D+03

 The electronic state is 1-A.
 Alpha  occ. eigenvalues --  -11.21671 -11.21659 -11.21643 -11.21610 -11.21471
 Alpha  occ. eigenvalues --  -11.21459 -11.21410 -11.21399 -11.21118 -11.21103
 Alpha  occ. eigenvalues --  -11.21099 -11.21050  -1.08506  -1.08457  -1.03611
 Alpha  occ. eigenvalues --   -1.03531  -0.96062  -0.95977  -0.87078  -0.86994
 Alpha  occ. eigenvalues --   -0.79669  -0.79599  -0.78329  -0.78261  -0.65332
 Alpha  occ. eigenvalues --   -0.64919  -0.61238  -0.60712  -0.59422  -0.59351
 Alpha  occ. eigenvalues --   -0.57689  -0.57578  -0.55553  -0.55079  -0.52723
 Alpha  occ. eigenvalues --   -0.52689  -0.52517  -0.52375  -0.50154  -0.49756
 Alpha  occ. eigenvalues --   -0.48035  -0.47869  -0.46795  -0.46541  -0.45960
 Alpha  occ. eigenvalues --   -0.45873  -0.45733  -0.45570  -0.43837  -0.43819
 Alpha virt. eigenvalues --    0.18656   0.22585   0.23826   0.25017   0.25235
 Alpha virt. eigenvalues --    0.25937   0.26845   0.28442   0.28756   0.29434
 Alpha virt. eigenvalues --    0.30408   0.31296   0.31730   0.31982   0.32128

 Mulliken charges:
               1
     1  C   -0.299431
     2  C   -0.300843
     3  C   -0.480939
     4  H    0.150193
     5  H    0.149631
     6  H    0.152379
     7  H    0.152154
     8  H    0.160565
     9  H    0.155413
    10  H    0.160668
    11  C   -0.298342
    12  C   -0.299705
    13  C   -0.475786
    14  H    0.149852
    15  H    0.149296
    16  H    0.152132
    17  H    0.151882
    18  H    0.155340
    19  H    0.155260
    20  H    0.160456
    21  C   -0.299896
    22  C   -0.301384
    23  C   -0.478615
    24  H    0.149767
    25  H    0.149916
    26  H    0.154123
    27  H    0.152155
    28  H    0.154894
    29  H    0.158430
    30  H    0.160600
    31  C   -0.298827
    32  C   -0.299666
    33  C   -0.475749
    34  H    0.149490
    35  H    0.150122
    36  H    0.151253
    37  H    0.152267
    38  H    0.155476
    39  H    0.155023
    40  H    0.160444
 Sum of Mulliken charges =  -0.00000

 Dipole moment (field-independent basis, Debye):
    X=              0.0000    Y=             -0.0134    Z=              0.0031  Tot=              0.0138
 Quadrupole moment (field-independent basis, Debye-Ang):
   XX=            -83.6264   YY=            -85.8717   ZZ=            -85.0452
   XY=              1.5600   XZ=             -0.1439   YZ=             -0.9298

 Normal termination of Gaussian 16 at Thu May  6 08:27:14 2021.
