 Gaussian 16, Revision A.03,
 Gaussian 16:  EM64L-G16RevA.03 25-Dec-2016

 -------------
 #p 6-31g* mp2
 -------------

 ------------------------------------------------------
 Input file generated by CHIRIPA (05-May-2021 14:51:10)
 ------------------------------------------------------
 Symbolic Z-matrix:
 Charge =  0 Multiplicity = 1

                         Standard orientation:
 ---------------------------------------------------------------------
 Center     Atomic      Atomic             Coordinates (Angstroms)
 Number     Number       Type             X           Y           Z
 ---------------------------------------------------------------------
      1          6           0        3.789385    0.252003    0.384868
      2          6           0        3.952949   -1.157343   -0.185199
      3          6           0        5.066843   -1.947517    0.502304
      4          1           0        4.740104    0.793480    0.285470
      5          1           0        3.580285    0.182576    1.461368
      6          1           0        4.160309   -1.085327   -1.260574
      7          1           0        3.001675   -1.695463   -0.084606
      8          1           0        4.862762   -2.048952    1.573127
      9          1           0        6.027978   -1.435349    0.390477
     10          1           0        5.166448   -2.952000    0.079277
     11          6           0        2.679649    1.054353   -0.292220
     12          6           0        2.516084    2.463698    0.277847
     13          6           0        1.402190    3.253872   -0.409655
     14          1           0        2.888749    1.123779   -1.368720
     15          1           0        1.728929    0.512876   -0.192821
     16          1           0        3.467359    3.001819    0.177254
     17          1           0        2.308725    2.391683    1.353222
     18          1           0        0.441055    2.741705   -0.297828
     19          1           0        1.606272    3.355308   -1.480479
     20          1           0        1.302586    4.258356    0.013371
     21          6           0       -2.495745   -0.638147   -0.239772
     22          6           0       -1.818652   -2.006454   -0.154515
     23          6           0       -0.340973   -1.960137   -0.544534
     24          1           0       -2.397084   -0.250419   -1.262943
     25          1           0       -1.964851    0.067300    0.414362
     26          1           0       -2.351508   -2.709459   -0.807556
     27          1           0       -1.919103   -2.391054    0.868523
     28          1           0        0.210017   -1.280436    0.113506
     29          1           0       -0.224844   -1.600651   -1.572097
     30          1           0        0.123379   -2.948878   -0.476499
     31          6           0       -3.973289   -0.668208    0.147124
     32          6           0       -4.650382    0.700097    0.061867
     33          6           0       -6.128061    0.653781    0.451886
     34          1           0       -4.504183   -1.373656   -0.507009
     35          1           0       -4.071949   -1.055936    1.170294
     36          1           0       -4.549930    1.084698   -0.961172
     37          1           0       -4.117525    1.403104    0.714908
     38          1           0       -6.244189    0.294295    1.479448
     39          1           0       -6.679051   -0.025919   -0.206155
     40          1           0       -6.592413    1.642521    0.383851
 ---------------------------------------------------------------------

 SCF Done:  E(RHF) =  -470.733106726     A.U. after   11 cycles
 E2 =    -0.1583225793D+01 EUMP2 =    -0.47231633251845D+03

 The electronic state is 1-A.
 Alpha  occ. eigenvalues --  -11.21660 -11.21626 -11.21554 -11.21501 -11.21458
 Alpha  occ. eigenvalues --  -11.21394 -11.21327 -11.21257 -11.21134 -11.21089
 Alpha  occ. eigenvalues --  -11.21033 -11.21012  -1.08480  -1.08363  -1.03577
 Alpha  occ. eigenvalues --   -1.03468  -0.96035  -0.95917  -0.87051  -0.86936
 Alpha  occ. eigenvalues --   -0.79654  -0.79528  -0.78322  -0.78135  -0.65150
 Alpha  occ. eigenvalues --   -0.64975  -0.60973  -0.60871  -0.59406  -0.59276
 Alpha  occ. eigenvalues --   -0.57693  -0.57488  -0.55380  -0.55160  -0.52736
 Alpha  occ. eigenvalues --   -0.52628  -0.52490  -0.52300  -0.50008  -0.49844
 Alpha  occ. eigenvalues --   -0.48024  -0.47836  -0.46731  -0.46564  -0.45987
 Alpha  occ. eigenvalues --   -0.45772  -0.45682  -0.45302  -0.43825  -0.43717
 Alpha virt. eigenvalues --    0.21100   0.22994   0.24010   0.24331   0.25528
 Alpha virt. eigenvalues --    0.26628   0.27087   0.27168   0.28137   0.29636
 Alpha virt. eigenvalues --    0.30513   0.31582   0.31657   0.31924   0.32062

 Mulliken charges:
               1
     1  C   -0.297688
     2  C   -0.304027
     3  C   -0.475535
     4  H    0.149368
     5  H    0.148494
     6  H    0.151596
     7  H    0.157656
     8  H    0.154772
     9  H    0.154900
    10  H    0.159973
    11  C   -0.305817
    12  C   -0.299095
    13  C   -0.475979
    14  H    0.149231
    15  H    0.157411
    16  H    0.151771
    17  H    0.151102
    18  H    0.155496
    19  H    0.155150
    20  H    0.159944
    21  C   -0.298703
    22  C   -0.300229
    23  C   -0.480648
    24  H    0.150234
    25  H    0.148699
    26  H    0.152329
    27  H    0.151934
    28  H    0.159507
    29  H    0.156740
    30  H    0.160681
    31  C   -0.298285
    32  C   -0.299731
    33  C   -0.475749
    34  H    0.149783
    35  H    0.149699
    36  H    0.152194
    37  H    0.151972
    38  H    0.155179
    39  H    0.155230
    40  H    0.160436
 Sum of Mulliken charges =  -0.00000

 Dipole moment (field-independent basis, Debye):
    X=             -0.0521    Y=             -0.0303    Z=             -0.0242  Tot=              0.0649
 Quadrupole moment (field-independent basis, Debye-Ang):
   XX=            -86.1708   YY=            -85.1796   ZZ=            -83.5656
   XY=              0.9460   XZ=             -0.2777   YZ=              0.1918

 Normal termination of Gaussian 16 at Thu May  6 00:35:39 2021.
