 Gaussian 16, Revision A.03,
 Gaussian 16:  EM64L-G16RevA.03 25-Dec-2016

 -------------
 #p 6-31g* mp2
 -------------

 ------------------------------------------------------
 Input file generated by CHIRIPA (05-May-2021 14:53:14)
 ------------------------------------------------------
 Symbolic Z-matrix:
 Charge =  0 Multiplicity = 1

                         Standard orientation:
 ---------------------------------------------------------------------
 Center     Atomic      Atomic             Coordinates (Angstroms)
 Number     Number       Type             X           Y           Z
 ---------------------------------------------------------------------
      1          6           0        4.381304    0.351830    0.128624
      2          6           0        4.915808    0.528173   -1.293063
      3          6           0        5.943352    1.655078   -1.402757
      4          1           0        3.929643    1.295681    0.463428
      5          1           0        5.222128    0.149883    0.806583
      6          1           0        4.074077    0.728356   -1.968364
      7          1           0        5.366078   -0.416264   -1.624593
      8          1           0        6.801644    1.458483   -0.752152
      9          1           0        5.502301    2.609606   -1.097876
     10          1           0        6.312224    1.763694   -2.427450
     11          6           0        3.353109   -0.770996    0.254347
     12          6           0        2.818605   -0.947339    1.676034
     13          6           0        1.791061   -2.074244    1.785728
     14          1           0        2.512286   -0.569049   -0.423612
     15          1           0        3.804770   -1.714846   -0.080457
     16          1           0        2.368335   -0.002902    2.007563
     17          1           0        3.660336   -1.147522    2.351334
     18          1           0        2.232112   -3.028772    1.480847
     19          1           0        0.932770   -1.877648    1.135123
     20          1           0        1.422189   -2.182859    2.810421
     21          6           0       -2.902798   -2.132396   -1.188669
     22          6           0       -1.811906   -1.632032   -0.470260
     23          6           0       -1.866405   -0.361133    0.109736
     24          6           0       -3.032707    0.385718   -0.049144
     25          6           0       -4.136190   -0.085080   -0.759049
     26          6           0       -4.059419   -1.358687   -1.330520
     27          1           0       -2.851811   -3.120713   -1.635912
     28          1           0       -0.912370   -2.230683   -0.358473
     29          1           0       -1.036521    0.050697    0.671078
     30          1           0       -5.019316    0.535089   -0.853380
     31          1           0       -4.908156   -1.744712   -1.887903
     32          7           0       -3.102193    1.732595    0.560359
     33          8           0       -4.141168    2.370814    0.405944
     34          8           0       -2.116364    2.124555    1.180961
 ---------------------------------------------------------------------

 SCF Done:  E(RHF) =  -669.535387502     A.U. after   15 cycles
 E2 =    -0.2091375147D+01 EUMP2 =    -0.67162676264885D+03

 The electronic state is 1-A.
 Alpha  occ. eigenvalues --  -20.60761 -20.60756 -15.85814 -11.31169 -11.27737
 Alpha  occ. eigenvalues --  -11.27728 -11.27473 -11.26752 -11.26719 -11.22103
 Alpha  occ. eigenvalues --  -11.21911 -11.21833 -11.21790 -11.21612 -11.21170
 Alpha  occ. eigenvalues --   -1.59836  -1.39390  -1.19339  -1.08798  -1.08735
 Alpha  occ. eigenvalues --   -1.04746  -1.03923  -0.96395  -0.95573  -0.87415
 Alpha  occ. eigenvalues --   -0.86140  -0.82413  -0.79991  -0.78582  -0.77459
 Alpha  occ. eigenvalues --   -0.72033  -0.71159  -0.70452  -0.65440  -0.64992
 Alpha  occ. eigenvalues --   -0.64756  -0.62189  -0.61256  -0.59758  -0.57981
 Alpha  occ. eigenvalues --   -0.55719  -0.55222  -0.53099  -0.53058  -0.52959
 Alpha  occ. eigenvalues --   -0.52690  -0.50337  -0.48791  -0.48788  -0.48298
 Alpha  occ. eigenvalues --   -0.47012  -0.46131  -0.46029  -0.44798  -0.44155
 Alpha  occ. eigenvalues --   -0.37319  -0.36343
 Alpha virt. eigenvalues --    0.05075   0.11310   0.16562   0.19291   0.22725
 Alpha virt. eigenvalues --    0.23789   0.25443   0.26547   0.27411   0.28179
 Alpha virt. eigenvalues --    0.29156   0.29897   0.31322   0.31498   0.32409

 Mulliken charges:
               1
     1  C   -0.299258
     2  C   -0.299996
     3  C   -0.476167
     4  H    0.153823
     5  H    0.150571
     6  H    0.152310
     7  H    0.151020
     8  H    0.155402
     9  H    0.157418
    10  H    0.160681
    11  C   -0.298158
    12  C   -0.301867
    13  C   -0.480368
    14  H    0.145468
    15  H    0.149213
    16  H    0.157704
    17  H    0.155723
    18  H    0.156880
    19  H    0.144293
    20  H    0.166423
    21  C   -0.170727
    22  C   -0.222999
    23  C   -0.173337
    24  C    0.158813
    25  C   -0.170939
    26  C   -0.218627
    27  H    0.225905
    28  H    0.228784
    29  H    0.276166
    30  H    0.275500
    31  H    0.223373
    32  N    0.488292
    33  O   -0.460464
    34  O   -0.460857
 Sum of Mulliken charges =  -0.00000

 Dipole moment (field-independent basis, Debye):
    X=              0.3967    Y=             -4.7065    Z=             -2.0894  Tot=              5.1647
 Quadrupole moment (field-independent basis, Debye-Ang):
   XX=            -91.4201   YY=            -99.1746   ZZ=            -94.4559
   XY=             13.0846   XZ=              9.1014   YZ=             -0.7633

 Normal termination of Gaussian 16 at Thu May  6 10:32:24 2021.
