 Gaussian 16, Revision A.03,
 Gaussian 16:  EM64L-G16RevA.03 25-Dec-2016

 -------------
 #p 6-31g* mp2
 -------------

 ------------------------------------------------------
 Input file generated by CHIRIPA (05-May-2021 14:55:23)
 ------------------------------------------------------
 Symbolic Z-matrix:
 Charge =  0 Multiplicity = 1

                         Standard orientation:
 ---------------------------------------------------------------------
 Center     Atomic      Atomic             Coordinates (Angstroms)
 Number     Number       Type             X           Y           Z
 ---------------------------------------------------------------------
      1          6           0        4.982655    0.773765    0.233067
      2          6           0        4.792890   -0.597264    0.435032
      3          6           0        3.528833   -1.171079    0.269369
      4          6           0        2.472027   -0.340601   -0.100438
      5          6           0        2.629251    1.028735   -0.308977
      6          6           0        3.902134    1.580966   -0.137640
      7          1           0        5.968033    1.211135    0.363962
      8          1           0        5.630211   -1.226574    0.722971
      9          1           0        3.353826   -2.229531    0.419269
     10          1           0        1.775327    1.630487   -0.595557
     11          1           0        4.046563    2.646034   -0.295165
     12          7           0        1.129154   -0.936648   -0.278822
     13          8           0        0.214351   -0.183403   -0.605004
     14          8           0        1.016841   -2.145788   -0.089079
     15          6           0       -2.967078    0.900639    0.027262
     16          6           0       -3.646152    2.257811    0.214159
     17          6           0       -2.672084    3.429146    0.083929
     18          1           0       -2.163059    0.794910    0.768422
     19          1           0       -2.487188    0.871544   -0.960795
     20          1           0       -4.125794    2.283823    1.201015
     21          1           0       -4.448773    2.360241   -0.527407
     22          1           0       -2.202253    3.431359   -0.904936
     23          1           0       -1.877438    3.354507    0.833307
     24          1           0       -3.178576    4.389629    0.221039
     25          6           0       -3.927894   -0.280184    0.154597
     26          6           0       -3.248820   -1.637356   -0.032301
     27          6           0       -4.222889   -2.808691    0.097929
     28          1           0       -4.407784   -0.251089    1.142653
     29          1           0       -4.731915   -0.174455   -0.586564
     30          1           0       -2.446199   -1.739786    0.709266
     31          1           0       -2.769179   -1.663369   -1.019157
     32          1           0       -5.017535   -2.734052   -0.651448
     33          1           0       -4.692720   -2.810904    1.086794
     34          1           0       -3.716396   -3.769174   -0.039181
 ---------------------------------------------------------------------

 SCF Done:  E(RHF) =  -669.535685175     A.U. after   15 cycles
 E2 =    -0.2092193496D+01 EUMP2 =    -0.67162787867075D+03

 The electronic state is 1-A.
 Alpha  occ. eigenvalues --  -20.60971 -20.60960 -15.85984 -11.31310 -11.27872
 Alpha  occ. eigenvalues --  -11.27866 -11.27609 -11.26878 -11.26867 -11.20559
 Alpha  occ. eigenvalues --  -11.20369 -11.19953 -11.19801 -11.19750 -11.19698
 Alpha  occ. eigenvalues --   -1.60024  -1.39581  -1.19478  -1.08884  -1.07013
 Alpha  occ. eigenvalues --   -1.04872  -1.02253  -0.95727  -0.94742  -0.86273
 Alpha  occ. eigenvalues --   -0.85781  -0.82565  -0.78294  -0.77616  -0.76716
 Alpha  occ. eigenvalues --   -0.72186  -0.71338  -0.70585  -0.65132  -0.64873
 Alpha  occ. eigenvalues --   -0.63670  -0.62218  -0.59675  -0.58129  -0.56306
 Alpha  occ. eigenvalues --   -0.55377  -0.54064  -0.53206  -0.52963  -0.51505
 Alpha  occ. eigenvalues --   -0.51167  -0.49007  -0.48963  -0.48737  -0.46610
 Alpha  occ. eigenvalues --   -0.45341  -0.45048  -0.44179  -0.44100  -0.42453
 Alpha  occ. eigenvalues --   -0.37457  -0.36474
 Alpha virt. eigenvalues --    0.04892   0.11181   0.16379   0.21276   0.24074
 Alpha virt. eigenvalues --    0.25356   0.27229   0.27931   0.28052   0.28975
 Alpha virt. eigenvalues --    0.29363   0.31023   0.32393   0.32537   0.32849

 Mulliken charges:
               1
     1  C   -0.170591
     2  C   -0.218607
     3  C   -0.170629
     4  C    0.157492
     5  C   -0.171142
     6  C   -0.218583
     7  H    0.226065
     8  H    0.223839
     9  H    0.275809
    10  H    0.276297
    11  H    0.224082
    12  N    0.492031
    13  O   -0.461536
    14  O   -0.459472
    15  C   -0.293093
    16  C   -0.299200
    17  C   -0.473314
    18  H    0.153696
    19  H    0.159163
    20  H    0.147418
    21  H    0.148106
    22  H    0.153078
    23  H    0.151031
    24  H    0.155463
    25  C   -0.300098
    26  C   -0.294813
    27  C   -0.476151
    28  H    0.142290
    29  H    0.142999
    30  H    0.159559
    31  H    0.160326
    32  H    0.149449
    33  H    0.149244
    34  H    0.159792
 Sum of Mulliken charges =  -0.00000

 Dipole moment (field-independent basis, Debye):
    X=              5.1430    Y=              1.9726    Z=              0.5396  Tot=              5.5347
 Quadrupole moment (field-independent basis, Debye-Ang):
   XX=            -73.2890   YY=            -94.0546   ZZ=            -94.5255
   XY=              1.4016   XZ=              2.1692   YZ=             -1.6927

 Normal termination of Gaussian 16 at Thu May  6 15:55:47 2021.
