 Gaussian 16, Revision A.03,
 Gaussian 16:  EM64L-G16RevA.03 25-Dec-2016

 -------------
 #p 6-31g* mp2
 -------------

 ------------------------------------------------------
 Input file generated by CHIRIPA (05-May-2021 14:53:17)
 ------------------------------------------------------
 Symbolic Z-matrix:
 Charge =  0 Multiplicity = 1

                         Standard orientation:
 ---------------------------------------------------------------------
 Center     Atomic      Atomic             Coordinates (Angstroms)
 Number     Number       Type             X           Y           Z
 ---------------------------------------------------------------------
      1          6           0       -4.533813   -0.181392   -0.508445
      2          6           0       -5.978969    0.314565   -0.567910
      3          6           0       -6.482844    0.497178   -1.999886
      4          1           0       -3.886421    0.530572   -1.038478
      5          1           0       -4.458217   -1.134978   -1.049144
      6          1           0       -6.052101    1.266240   -0.026079
      7          1           0       -6.622969   -0.398566   -0.037510
      8          1           0       -6.438718   -0.449798   -2.547510
      9          1           0       -5.864607    1.224468   -2.536014
     10          1           0       -7.517938    0.852246   -2.019046
     11          6           0       -4.015782   -0.368811    0.916422
     12          6           0       -2.570626   -0.864768    0.975887
     13          6           0       -2.066751   -1.047381    2.407863
     14          1           0       -4.091378    0.584775    1.457121
     15          1           0       -4.663174   -1.080776    1.446454
     16          1           0       -1.926626   -0.151637    0.445486
     17          1           0       -2.497494   -1.816443    0.434055
     18          1           0       -2.684988   -1.774671    2.943991
     19          1           0       -2.110877   -0.100405    2.955487
     20          1           0       -1.031657   -1.402449    2.427022
     21          6           0        1.924514    2.178922    0.551917
     22          6           0        3.291606    2.351729    0.311677
     23          6           0        4.085388    1.270619   -0.082859
     24          6           0        3.476499    0.025051   -0.228130
     25          6           0        2.117137   -0.179000    0.003795
     26          6           0        1.342668    0.916334    0.397480
     27          1           0        1.315386    3.024278    0.858071
     28          1           0        3.746174    3.331126    0.430818
     29          1           0        5.146135    1.376274   -0.275401
     30          1           0        1.692442   -1.167375   -0.123349
     31          1           0        0.281216    0.779181    0.583366
     32          7           0        4.306618   -1.127001   -0.645357
     33          8           0        3.746175   -2.214163   -0.766269
     34          8           0        5.501990   -0.921003   -0.843569
 ---------------------------------------------------------------------

 SCF Done:  E(RHF) =  -669.535537339     A.U. after   15 cycles
 E2 =    -0.2091157813D+01 EUMP2 =    -0.67162669515176D+03

 The electronic state is 1-A.
 Alpha  occ. eigenvalues --  -20.60734 -20.60728 -15.85787 -11.31148 -11.27718
 Alpha  occ. eigenvalues --  -11.27706 -11.27458 -11.26737 -11.26693 -11.22562
 Alpha  occ. eigenvalues --  -11.22105 -11.22077 -11.21950 -11.21916 -11.21457
 Alpha  occ. eigenvalues --   -1.59809  -1.39363  -1.19319  -1.09110  -1.08716
 Alpha  occ. eigenvalues --   -1.04722  -1.04204  -0.96625  -0.95552  -0.87637
 Alpha  occ. eigenvalues --   -0.86121  -0.82385  -0.80287  -0.78900  -0.77430
 Alpha  occ. eigenvalues --   -0.72005  -0.71132  -0.70431  -0.65781  -0.64971
 Alpha  occ. eigenvalues --   -0.64724  -0.62150  -0.61536  -0.60000  -0.58235
 Alpha  occ. eigenvalues --   -0.55907  -0.55222  -0.53328  -0.53074  -0.53016
 Alpha  occ. eigenvalues --   -0.52811  -0.50563  -0.48773  -0.48760  -0.48577
 Alpha  occ. eigenvalues --   -0.47323  -0.46437  -0.46345  -0.44769  -0.44443
 Alpha  occ. eigenvalues --   -0.37303  -0.36321
 Alpha virt. eigenvalues --    0.05098   0.11322   0.16572   0.19376   0.22604
 Alpha virt. eigenvalues --    0.23660   0.25510   0.26372   0.27083   0.28130
 Alpha virt. eigenvalues --    0.28923   0.29880   0.31044   0.31188   0.32086

 Mulliken charges:
               1
     1  C   -0.298855
     2  C   -0.300134
     3  C   -0.476076
     4  H    0.148106
     5  H    0.152057
     6  H    0.151625
     7  H    0.153432
     8  H    0.156651
     9  H    0.155113
    10  H    0.161673
    11  C   -0.297654
    12  C   -0.306518
    13  C   -0.477843
    14  H    0.148937
    15  H    0.153415
    16  H    0.143146
    17  H    0.157734
    18  H    0.161469
    19  H    0.154289
    20  H    0.160271
    21  C   -0.172603
    22  C   -0.218386
    23  C   -0.171200
    24  C    0.158784
    25  C   -0.174108
    26  C   -0.226661
    27  H    0.225755
    28  H    0.223172
    29  H    0.275452
    30  H    0.275730
    31  H    0.236209
    32  N    0.488131
    33  O   -0.460465
    34  O   -0.460650
 Sum of Mulliken charges =  -0.00000

 Dipole moment (field-independent basis, Debye):
    X=             -3.1325    Y=              3.9906    Z=              1.4957  Tot=              5.2891
 Quadrupole moment (field-independent basis, Debye-Ang):
   XX=           -111.4292   YY=            -92.1576   ZZ=            -97.1054
   XY=             17.5866   XZ=              5.0931   YZ=             -0.9103

 Normal termination of Gaussian 16 at Wed May  5 22:02:17 2021.
