 Gaussian 16, Revision A.03,
 Gaussian 16:  EM64L-G16RevA.03 25-Dec-2016

 -------------
 #p 6-31g* mp2
 -------------

 ------------------------------------------------------
 Input file generated by CHIRIPA (05-May-2021 14:53:16)
 ------------------------------------------------------
 Symbolic Z-matrix:
 Charge =  0 Multiplicity = 1

                         Standard orientation:
 ---------------------------------------------------------------------
 Center     Atomic      Atomic             Coordinates (Angstroms)
 Number     Number       Type             X           Y           Z
 ---------------------------------------------------------------------
      1          6           0       -3.021725    0.029768   -0.431282
      2          6           0       -2.476136   -1.389310   -0.594177
      3          6           0       -3.571464   -2.412887   -0.894746
      4          1           0       -3.766010    0.039115    0.376739
      5          1           0       -3.552867    0.318487   -1.348846
      6          1           0       -1.944992   -1.674749    0.322898
      7          1           0       -1.732924   -1.395240   -1.401776
      8          1           0       -4.095887   -2.155281   -1.820608
      9          1           0       -4.309160   -2.436377   -0.086134
     10          1           0       -3.159340   -3.420523   -1.007372
     11          6           0       -1.938748    1.064363   -0.130446
     12          6           0       -2.484336    2.483441    0.032449
     13          6           0       -1.389009    3.507019    0.333018
     14          1           0       -1.407605    0.775644    0.787118
     15          1           0       -1.194463    1.055016   -0.938467
     16          1           0       -3.227549    2.489372    0.840048
     17          1           0       -3.015480    2.768880   -0.884626
     18          1           0       -0.651312    3.530508   -0.475594
     19          1           0       -0.864586    3.249412    1.258880
     20          1           0       -1.801133    4.514654    0.445644
     21          6           0        0.569083   -1.506210    2.043983
     22          6           0        0.768861   -2.173759    0.831142
     23          6           0        1.525400   -1.585586   -0.186821
     24          6           0        2.069996   -0.323100    0.043033
     25          6           0        1.888816    0.367288    1.240460
     26          6           0        1.128711   -0.240049    2.244418
     27          1           0       -0.020000   -1.970560    2.829321
     28          1           0        0.335446   -3.157167    0.672691
     29          1           0        1.695825   -2.080067   -1.135433
     30          1           0        2.333511    1.346642    1.369021
     31          1           0        0.975212    0.280719    3.185314
     32          7           0        2.872798    0.309717   -1.027225
     33          8           0        3.341910    1.422775   -0.799910
     34          8           0        3.017719   -0.319322   -2.073144
 ---------------------------------------------------------------------

 SCF Done:  E(RHF) =  -669.533978333     A.U. after   15 cycles
 E2 =    -0.2095614862D+01 EUMP2 =    -0.67162959319501D+03

 The electronic state is 1-A.
 Alpha  occ. eigenvalues --  -20.60824 -20.60819 -15.85877 -11.31264 -11.27812
 Alpha  occ. eigenvalues --  -11.27799 -11.27555 -11.26861 -11.26830 -11.21839
 Alpha  occ. eigenvalues --  -11.21677 -11.21572 -11.21456 -11.21384 -11.21138
 Alpha  occ. eigenvalues --   -1.59900  -1.39452  -1.19436  -1.08852  -1.08578
 Alpha  occ. eigenvalues --   -1.04847  -1.03725  -0.96174  -0.95663  -0.87191
 Alpha  occ. eigenvalues --   -0.86244  -0.82493  -0.79806  -0.78411  -0.77525
 Alpha  occ. eigenvalues --   -0.72096  -0.71221  -0.70542  -0.65273  -0.65080
 Alpha  occ. eigenvalues --   -0.64837  -0.62189  -0.61133  -0.59565  -0.57792
 Alpha  occ. eigenvalues --   -0.55466  -0.55345  -0.53377  -0.52932  -0.52783
 Alpha  occ. eigenvalues --   -0.52598  -0.50119  -0.48858  -0.48849  -0.48151
 Alpha  occ. eigenvalues --   -0.46852  -0.45905  -0.45778  -0.44852  -0.43958
 Alpha  occ. eigenvalues --   -0.37324  -0.36327
 Alpha virt. eigenvalues --    0.04955   0.11099   0.16393   0.20803   0.22943
 Alpha virt. eigenvalues --    0.23710   0.26319   0.27106   0.27374   0.27656
 Alpha virt. eigenvalues --    0.28293   0.30506   0.31295   0.31939   0.32082

 Mulliken charges:
               1
     1  C   -0.297973
     2  C   -0.301689
     3  C   -0.475417
     4  H    0.146916
     5  H    0.150927
     6  H    0.149848
     7  H    0.151808
     8  H    0.158155
     9  H    0.154126
    10  H    0.155203
    11  C   -0.303162
    12  C   -0.299610
    13  C   -0.475412
    14  H    0.152069
    15  H    0.151442
    16  H    0.149242
    17  H    0.153341
    18  H    0.161434
    19  H    0.148166
    20  H    0.160890
    21  C   -0.172122
    22  C   -0.212889
    23  C   -0.170832
    24  C    0.160096
    25  C   -0.168952
    26  C   -0.219151
    27  H    0.225900
    28  H    0.224842
    29  H    0.275649
    30  H    0.276292
    31  H    0.223780
    32  N    0.487500
    33  O   -0.459965
    34  O   -0.460454
 Sum of Mulliken charges =  -0.00000

 Dipole moment (field-independent basis, Debye):
    X=             -2.6954    Y=             -2.2109    Z=              3.7449  Tot=              5.1163
 Quadrupole moment (field-independent basis, Debye-Ang):
   XX=           -107.9663   YY=            -91.1844   ZZ=            -92.1867
   XY=             -3.7311   XZ=              8.0756   YZ=              0.7809

 Normal termination of Gaussian 16 at Thu May  6 01:09:29 2021.
