 Gaussian 16, Revision A.03,
 Gaussian 16:  EM64L-G16RevA.03 25-Dec-2016

 -------------
 #p 6-31g* mp2
 -------------

 ------------------------------------------------------
 Input file generated by CHIRIPA (05-May-2021 14:55:22)
 ------------------------------------------------------
 Symbolic Z-matrix:
 Charge =  0 Multiplicity = 1

                         Standard orientation:
 ---------------------------------------------------------------------
 Center     Atomic      Atomic             Coordinates (Angstroms)
 Number     Number       Type             X           Y           Z
 ---------------------------------------------------------------------
      1          6           0       -5.570475    0.794575   -1.126227
      2          6           0       -5.681331   -0.400748   -0.408289
      3          6           0       -4.554896   -0.981582    0.181902
      4          6           0       -3.327670   -0.337216    0.033586
      5          6           0       -3.184966    0.854435   -0.675564
      6          6           0       -4.324842    1.417254   -1.257342
      7          1           0       -6.450738    1.238783   -1.581433
      8          1           0       -6.647427   -0.886547   -0.304828
      9          1           0       -4.612256   -1.906325    0.743131
     10          1           0       -2.208437    1.315337   -0.761467
     11          1           0       -4.235767    2.345624   -1.814333
     12          7           0       -2.128049   -0.942582    0.653941
     13          8           0       -1.058239   -0.355168    0.508726
     14          8           0       -2.280311   -1.993021    1.273645
     15          6           0        5.154919   -0.108980    0.072978
     16          6           0        5.700756   -0.330504   -1.338041
     17          6           0        6.986239   -1.158241   -1.351417
     18          1           0        5.921011    0.391007    0.681304
     19          1           0        4.969106   -1.084171    0.544010
     20          1           0        5.884181    0.644821   -1.806778
     21          1           0        4.933206   -0.829849   -1.943135
     22          1           0        6.814050   -2.144416   -0.908236
     23          1           0        7.770428   -0.661367   -0.771103
     24          1           0        7.359010   -1.304445   -2.370007
     25          6           0        3.870059    0.716836    0.102782
     26          6           0        3.324223    0.938360    1.513801
     27          6           0        2.038739    1.766097    1.527176
     28          1           0        4.055873    1.692027   -0.368252
     29          1           0        3.103968    0.216849   -0.505545
     30          1           0        4.091772    1.437705    2.118894
     31          1           0        3.140797   -0.036965    1.982536
     32          1           0        1.254550    1.269223    0.946862
     33          1           0        2.210929    2.752272    1.083995
     34          1           0        1.665969    1.912301    2.545766
 ---------------------------------------------------------------------

 SCF Done:  E(RHF) =  -669.536120058     A.U. after   15 cycles
 E2 =    -0.2090661983D+01 EUMP2 =    -0.67162678204156D+03

 The electronic state is 1-A.
 Alpha  occ. eigenvalues --  -20.60924 -20.60915 -15.85971 -11.31280 -11.27844
 Alpha  occ. eigenvalues --  -11.27840 -11.27582 -11.26852 -11.26842 -11.21010
 Alpha  occ. eigenvalues --  -11.20652 -11.20571 -11.20562 -11.20473 -11.19810
 Alpha  occ. eigenvalues --   -1.59989  -1.39546  -1.19450  -1.08855  -1.07613
 Alpha  occ. eigenvalues --   -1.04845  -1.02684  -0.95700  -0.95132  -0.86247
 Alpha  occ. eigenvalues --   -0.86155  -0.82535  -0.78778  -0.77591  -0.77410
 Alpha  occ. eigenvalues --   -0.72201  -0.71304  -0.70560  -0.65108  -0.64849
 Alpha  occ. eigenvalues --   -0.64235  -0.62193  -0.60061  -0.58540  -0.56747
 Alpha  occ. eigenvalues --   -0.55351  -0.54396  -0.53178  -0.52937  -0.51840
 Alpha  occ. eigenvalues --   -0.51566  -0.49123  -0.48950  -0.48873  -0.47086
 Alpha  occ. eigenvalues --   -0.45801  -0.44989  -0.44936  -0.44833  -0.42955
 Alpha  occ. eigenvalues --   -0.37429  -0.36447
 Alpha virt. eigenvalues --    0.04943   0.11208   0.16439   0.21276   0.23666
 Alpha virt. eigenvalues --    0.25134   0.27103   0.27428   0.27905   0.28354
 Alpha virt. eigenvalues --    0.29029   0.30755   0.31893   0.32458   0.32659

 Mulliken charges:
               1
     1  C   -0.170621
     2  C   -0.218580
     3  C   -0.170749
     4  C    0.157520
     5  C   -0.170447
     6  C   -0.218557
     7  H    0.225956
     8  H    0.223751
     9  H    0.275790
    10  H    0.275861
    11  H    0.223922
    12  N    0.495734
    13  O   -0.467848
    14  O   -0.459227
    15  C   -0.298002
    16  C   -0.299152
    17  C   -0.475314
    18  H    0.147355
    19  H    0.151054
    20  H    0.149740
    21  H    0.152230
    22  H    0.155495
    23  H    0.154036
    24  H    0.158145
    25  C   -0.298964
    26  C   -0.297922
    27  C   -0.484821
    28  H    0.144847
    29  H    0.154581
    30  H    0.146286
    31  H    0.156643
    32  H    0.179239
    33  H    0.144989
    34  H    0.157030
 Sum of Mulliken charges =  -0.00000

 Dipole moment (field-independent basis, Debye):
    X=             -4.5175    Y=              2.0181    Z=             -2.1922  Tot=              5.4116
 Quadrupole moment (field-independent basis, Debye-Ang):
   XX=            -66.9876   YY=            -93.6851   ZZ=            -95.2419
   XY=             -2.7313   XZ=              6.4159   YZ=             -1.0650

 Normal termination of Gaussian 16 at Wed May  5 19:02:03 2021.
