 Gaussian 16, Revision A.03,
 Gaussian 16:  EM64L-G16RevA.03 25-Dec-2016

 -------------
 #p 6-31g* mp2
 -------------

 ------------------------------------------------------
 Input file generated by CHIRIPA (05-May-2021 14:55:20)
 ------------------------------------------------------
 Symbolic Z-matrix:
 Charge =  0 Multiplicity = 1

                         Standard orientation:
 ---------------------------------------------------------------------
 Center     Atomic      Atomic             Coordinates (Angstroms)
 Number     Number       Type             X           Y           Z
 ---------------------------------------------------------------------
      1          6           0        3.345766    0.555460    1.955565
      2          6           0        3.989233    0.446848    0.718360
      3          6           0        3.338957   -0.140489   -0.371008
      4          6           0        2.039603   -0.610688   -0.186940
      5          6           0        1.371852   -0.516988    1.033150
      6          6           0        2.041429    0.074043    2.108741
      7          1           0        3.858413    1.013152    2.796461
      8          1           0        5.002182    0.819849    0.596492
      9          1           0        3.813593   -0.237378   -1.339900
     10          1           0        0.361910   -0.898022    1.123978
     11          1           0        1.539239    0.157050    3.068408
     12          7           0        1.340968   -1.234431   -1.332913
     13          8           0        0.196391   -1.640902   -1.144867
     14          8           0        1.951184   -1.305039   -2.397473
     15          6           0       -2.630238    1.253535   -0.452970
     16          6           0       -1.249146    1.878283   -0.252318
     17          6           0       -1.008313    3.084430   -1.160614
     18          1           0       -2.739686    0.950964   -1.503406
     19          1           0       -3.400116    2.014712   -0.265103
     20          1           0       -0.482134    1.115788   -0.439158
     21          1           0       -1.142902    2.179228    0.797806
     22          1           0       -1.751822    3.865029   -0.969668
     23          1           0       -1.087300    2.795547   -2.213661
     24          1           0       -0.015108    3.515495   -1.000654
     25          6           0       -2.885912    0.046656    0.448029
     26          6           0       -4.267004   -0.578091    0.247377
     27          6           0       -4.507838   -1.784239    1.155673
     28          1           0       -2.116035   -0.714521    0.260162
     29          1           0       -2.776465    0.349227    1.498466
     30          1           0       -4.373248   -0.879037   -0.802747
     31          1           0       -5.034016    0.184404    0.434217
     32          1           0       -4.428850   -1.495356    2.208719
     33          1           0       -3.764328   -2.564838    0.964727
     34          1           0       -5.501043   -2.215304    0.995712
 ---------------------------------------------------------------------

 SCF Done:  E(RHF) =  -669.535236784     A.U. after   15 cycles
 E2 =    -0.2094636896D+01 EUMP2 =    -0.67162987368065D+03

 The electronic state is 1-A.
 Alpha  occ. eigenvalues --  -20.61013 -20.61006 -15.86020 -11.31247 -11.27837
 Alpha  occ. eigenvalues --  -11.27802 -11.27564 -11.26811 -11.26791 -11.21273
 Alpha  occ. eigenvalues --  -11.21154 -11.20938 -11.20876 -11.20805 -11.20705
 Alpha  occ. eigenvalues --   -1.60064  -1.39626  -1.19438  -1.08857  -1.08014
 Alpha  occ. eigenvalues --   -1.04820  -1.03164  -0.95715  -0.95606  -0.86637
 Alpha  occ. eigenvalues --   -0.86232  -0.82548  -0.79254  -0.77996  -0.77491
 Alpha  occ. eigenvalues --   -0.72259  -0.71390  -0.70552  -0.65122  -0.64860
 Alpha  occ. eigenvalues --   -0.64539  -0.62167  -0.60555  -0.59001  -0.57245
 Alpha  occ. eigenvalues --   -0.55337  -0.54882  -0.53183  -0.52919  -0.52320
 Alpha  occ. eigenvalues --   -0.52052  -0.49549  -0.49051  -0.48994  -0.47581
 Alpha  occ. eigenvalues --   -0.46306  -0.45549  -0.45365  -0.44661  -0.43397
 Alpha  occ. eigenvalues --   -0.37389  -0.36365
 Alpha virt. eigenvalues --    0.04896   0.11182   0.16368   0.21027   0.23433
 Alpha virt. eigenvalues --    0.24601   0.25773   0.26975   0.27778   0.28184
 Alpha virt. eigenvalues --    0.29370   0.31226   0.31652   0.32020   0.32214

 Mulliken charges:
               1
     1  C   -0.170031
     2  C   -0.219218
     3  C   -0.170319
     4  C    0.155565
     5  C   -0.170589
     6  C   -0.220405
     7  H    0.225967
     8  H    0.223608
     9  H    0.275625
    10  H    0.281634
    11  H    0.224328
    12  N    0.491932
    13  O   -0.464062
    14  O   -0.457861
    15  C   -0.294696
    16  C   -0.304328
    17  C   -0.475929
    18  H    0.156790
    19  H    0.146062
    20  H    0.155778
    21  H    0.143673
    22  H    0.153669
    23  H    0.159436
    24  H    0.156770
    25  C   -0.314056
    26  C   -0.298184
    27  C   -0.476790
    28  H    0.171617
    29  H    0.138979
    30  H    0.157068
    31  H    0.149140
    32  H    0.150380
    33  H    0.158722
    34  H    0.159723
 Sum of Mulliken charges =  -0.00000

 Dipole moment (field-independent basis, Debye):
    X=              2.5835    Y=              2.0480    Z=              3.8765  Tot=              5.0888
 Quadrupole moment (field-independent basis, Debye-Ang):
   XX=            -81.8224   YY=            -98.8473   ZZ=            -94.8493
   XY=              3.5249   XZ=              5.7104   YZ=             -2.3723

 Normal termination of Gaussian 16 at Thu May  6 02:58:50 2021.
