 Gaussian 16, Revision A.03,
 Gaussian 16:  EM64L-G16RevA.03 25-Dec-2016

 -------------
 #p 6-31g* mp2
 -------------

 ------------------------------------------------------
 Input file generated by CHIRIPA (05-May-2021 14:57:27)
 ------------------------------------------------------
 Symbolic Z-matrix:
 Charge =  0 Multiplicity = 1

                         Standard orientation:
 ---------------------------------------------------------------------
 Center     Atomic      Atomic             Coordinates (Angstroms)
 Number     Number       Type             X           Y           Z
 ---------------------------------------------------------------------
      1          6           0       -4.004977   -2.364890    0.253870
      2          6           0       -3.999473   -1.575366    1.408488
      3          6           0       -3.647974   -0.223820    1.342769
      4          6           0       -3.305911    0.307944    0.100388
      5          6           0       -3.301886   -0.452758   -1.067776
      6          6           0       -3.656780   -1.802058   -0.978404
      7          1           0       -4.279348   -3.413931    0.314109
      8          1           0       -4.269438   -2.009787    2.366842
      9          1           0       -3.635322    0.410274    2.220939
     10          1           0       -3.028040    0.008556   -2.008847
     11          1           0       -3.660175   -2.412815   -1.876741
     12          7           0       -2.931998    1.737577    0.018295
     13          8           0       -2.634634    2.182200   -1.088286
     14          8           0       -2.943369    2.386429    1.062085
     15          6           0        0.989779    0.241080   -0.897480
     16          6           0        1.556296   -1.037603   -0.874036
     17          6           0        2.872853   -1.223064   -0.441797
     18          6           0        3.597409   -0.102622   -0.038167
     19          6           0        3.061030    1.184019   -0.050062
     20          6           0        1.742626    1.345862   -0.486144
     21          1           0       -0.033671    0.375977   -1.234747
     22          1           0        0.973985   -1.897415   -1.192912
     23          1           0        3.336187   -2.201808   -0.413533
     24          1           0        3.666381    2.021905    0.273846
     25          1           0        1.305257    2.340075   -0.503291
     26          7           0        4.992167   -0.286459    0.421459
     27          8           0        5.609501    0.716877    0.771963
     28          8           0        5.441634   -1.430407    0.422508
 ---------------------------------------------------------------------

 SCF Done:  E(RHF) =  -868.339213893     A.U. after   16 cycles
 E2 =    -0.2599791679D+01 EUMP2 =    -0.87093900557188D+03

 The electronic state is 1-A.
 Alpha  occ. eigenvalues --  -20.61988 -20.61934 -20.60518 -20.60507 -15.86977
 Alpha  occ. eigenvalues --  -15.85565 -11.32227 -11.30858 -11.28806 -11.28702
 Alpha  occ. eigenvalues --  -11.28426 -11.27761 -11.27682 -11.27457 -11.27358
 Alpha  occ. eigenvalues --  -11.27070 -11.26474 -11.26276  -1.61025  -1.59592
 Alpha  occ. eigenvalues --   -1.40581  -1.39148  -1.20371  -1.19011  -1.09779
 Alpha  occ. eigenvalues --   -1.08409  -1.05745  -1.04399  -0.96635  -0.95262
 Alpha  occ. eigenvalues --   -0.87145  -0.85790  -0.83464  -0.82097  -0.78543
 Alpha  occ. eigenvalues --   -0.77162  -0.73188  -0.72369  -0.71784  -0.71448
 Alpha  occ. eigenvalues --   -0.70915  -0.70078  -0.66011  -0.65723  -0.64654
 Alpha  occ. eigenvalues --   -0.64381  -0.63087  -0.61743  -0.56217  -0.54900
 Alpha  occ. eigenvalues --   -0.54060  -0.53814  -0.52740  -0.52474  -0.49968
 Alpha  occ. eigenvalues --   -0.49939  -0.48545  -0.48535  -0.45992  -0.44570
 Alpha  occ. eigenvalues --   -0.38328  -0.37350  -0.36974  -0.36009
 Alpha virt. eigenvalues --    0.03943   0.05361   0.10187   0.11648   0.15486
 Alpha virt. eigenvalues --    0.16875   0.20373   0.21788   0.26169   0.27036
 Alpha virt. eigenvalues --    0.27741   0.28347   0.30271   0.30981   0.32560

 Mulliken charges:
               1
     1  C   -0.170309
     2  C   -0.217518
     3  C   -0.169376
     4  C    0.158782
     5  C   -0.180392
     6  C   -0.219427
     7  H    0.229313
     8  H    0.227819
     9  H    0.278665
    10  H    0.274050
    11  H    0.225622
    12  N    0.487259
    13  O   -0.465827
    14  O   -0.453576
    15  C   -0.176577
    16  C   -0.218832
    17  C   -0.171974
    18  C    0.158133
    19  C   -0.171500
    20  C   -0.220177
    21  H    0.229259
    22  H    0.217803
    23  H    0.272960
    24  H    0.275909
    25  H    0.234547
    26  N    0.488100
    27  O   -0.460224
    28  O   -0.462510
 Sum of Mulliken charges =  -0.00000

 Dipole moment (field-independent basis, Debye):
    X=             -6.5711    Y=             -4.3193    Z=             -1.1421  Tot=              7.9461
 Quadrupole moment (field-independent basis, Debye-Ang):
   XX=           -132.3644   YY=           -103.3483   ZZ=           -100.3601
   XY=             20.3220   XZ=             -8.0463   YZ=              1.1345

 Normal termination of Gaussian 16 at Fri May  7 06:38:54 2021.
