 Gaussian 16, Revision A.03,
 Gaussian 16:  EM64L-G16RevA.03 25-Dec-2016

 -------------
 #p 6-31g* mp2
 -------------

 ------------------------------------------------------
 Input file generated by CHIRIPA (05-May-2021 14:55:19)
 ------------------------------------------------------
 Symbolic Z-matrix:
 Charge =  0 Multiplicity = 1

                         Standard orientation:
 ---------------------------------------------------------------------
 Center     Atomic      Atomic             Coordinates (Angstroms)
 Number     Number       Type             X           Y           Z
 ---------------------------------------------------------------------
      1          6           0       -3.175594   -2.291615   -0.217128
      2          6           0       -2.424712   -1.880198   -1.323217
      3          6           0       -1.988019   -0.556587   -1.432314
      4          6           0       -2.321757    0.333103   -0.412333
      5          6           0       -3.068373   -0.046406    0.702040
      6          6           0       -3.494466   -1.375022    0.790194
      7          1           0       -3.510711   -3.321772   -0.140514
      8          1           0       -2.175589   -2.589859   -2.107031
      9          1           0       -1.405382   -0.211260   -2.277714
     10          1           0       -3.301081    0.683956    1.467440
     11          1           0       -4.077471   -1.691723    1.650340
     12          7           0       -1.865060    1.737000   -0.516743
     13          8           0       -2.172280    2.501454    0.395322
     14          8           0       -1.208530    2.046337   -1.508668
     15          6           0        2.524818   -0.423884    0.955124
     16          6           0        1.363139    0.537308    1.209285
     17          6           0        0.284093   -0.064570    2.109951
     18          1           0        2.137015   -1.345335    0.499622
     19          1           0        2.968930   -0.713842    1.917457
     20          1           0        0.922230    0.826449    0.246679
     21          1           0        1.753778    1.456654    1.664060
     22          1           0        0.703140   -0.336783    3.084067
     23          1           0       -0.133134   -0.970570    1.658632
     24          1           0       -0.536768    0.639443    2.278511
     25          6           0        3.611569    0.163472    0.056396
     26          6           0        4.773247   -0.797720   -0.197767
     27          6           0        5.852293   -0.195843   -1.098431
     28          1           0        3.167455    0.453429   -0.905937
     29          1           0        3.999372    1.084922    0.511898
     30          1           0        4.382609   -1.717067   -0.652540
     31          1           0        5.214157   -1.086862    0.764840
     32          1           0        6.269519    0.710156   -0.647112
     33          1           0        5.433246    0.076371   -2.072547
     34          1           0        6.673154   -0.899855   -1.266992
 ---------------------------------------------------------------------

 SCF Done:  E(RHF) =  -669.535150393     A.U. after   15 cycles
 E2 =    -0.2094581606D+01 EUMP2 =    -0.67162973199924D+03

 The electronic state is 1-A.
 Alpha  occ. eigenvalues --  -20.60939 -20.60915 -15.85928 -11.31199 -11.27817
 Alpha  occ. eigenvalues --  -11.27783 -11.27560 -11.26819 -11.26792 -11.21399
 Alpha  occ. eigenvalues --  -11.21178 -11.21112 -11.21041 -11.20868 -11.20751
 Alpha  occ. eigenvalues --   -1.59975  -1.39535  -1.19413  -1.08823  -1.08138
 Alpha  occ. eigenvalues --   -1.04811  -1.03257  -0.95743  -0.95650  -0.86754
 Alpha  occ. eigenvalues --   -0.86203  -0.82502  -0.79312  -0.77942  -0.77558
 Alpha  occ. eigenvalues --   -0.72167  -0.71319  -0.70535  -0.65071  -0.64817
 Alpha  occ. eigenvalues --   -0.64773  -0.62167  -0.60674  -0.59079  -0.57313
 Alpha  occ. eigenvalues --   -0.55324  -0.55126  -0.53136  -0.52909  -0.52337
 Alpha  occ. eigenvalues --   -0.52135  -0.49629  -0.48940  -0.48919  -0.47641
 Alpha  occ. eigenvalues --   -0.46367  -0.45524  -0.45448  -0.44797  -0.43494
 Alpha  occ. eigenvalues --   -0.37361  -0.36367
 Alpha virt. eigenvalues --    0.04943   0.11185   0.16430   0.21277   0.23083
 Alpha virt. eigenvalues --    0.24399   0.26853   0.27030   0.27565   0.28144
 Alpha virt. eigenvalues --    0.28445   0.30516   0.31208   0.31761   0.32203

 Mulliken charges:
               1
     1  C   -0.170884
     2  C   -0.219170
     3  C   -0.172756
     4  C    0.161533
     5  C   -0.168176
     6  C   -0.218772
     7  H    0.225951
     8  H    0.223534
     9  H    0.275376
    10  H    0.275096
    11  H    0.223844
    12  N    0.489931
    13  O   -0.458783
    14  O   -0.459254
    15  C   -0.297480
    16  C   -0.303954
    17  C   -0.485002
    18  H    0.145076
    19  H    0.148017
    20  H    0.156693
    21  H    0.157010
    22  H    0.152884
    23  H    0.153882
    24  H    0.164041
    25  C   -0.298739
    26  C   -0.299177
    27  C   -0.475526
    28  H    0.152624
    29  H    0.151581
    30  H    0.149075
    31  H    0.151002
    32  H    0.156146
    33  H    0.155644
    34  H    0.158731
 Sum of Mulliken charges =  -0.00000

 Dipole moment (field-independent basis, Debye):
    X=             -1.7128    Y=             -4.8354    Z=              0.3364  Tot=              5.1408
 Quadrupole moment (field-independent basis, Debye-Ang):
   XX=            -87.4988   YY=            -98.3771   ZZ=            -91.3087
   XY=             10.8111   XZ=             -1.5893   YZ=              3.8202

 Normal termination of Gaussian 16 at Wed May  5 20:30:26 2021.
