 Gaussian 16, Revision A.03,
 Gaussian 16:  EM64L-G16RevA.03 25-Dec-2016

 -------------
 #p 6-31g* mp2
 -------------

 ------------------------------------------------------
 Input file generated by CHIRIPA (05-May-2021 14:55:25)
 ------------------------------------------------------
 Symbolic Z-matrix:
 Charge =  0 Multiplicity = 1

                         Standard orientation:
 ---------------------------------------------------------------------
 Center     Atomic      Atomic             Coordinates (Angstroms)
 Number     Number       Type             X           Y           Z
 ---------------------------------------------------------------------
      1          6           0       -1.636912    0.557987   -0.270093
      2          6           0       -2.629993    1.488254   -0.593999
      3          6           0       -3.982022    1.144770   -0.501344
      4          6           0       -4.306692   -0.143581   -0.079406
      5          6           0       -3.340374   -1.092684    0.250324
      6          6           0       -1.994641   -0.727246    0.150293
      7          1           0       -0.589068    0.833341   -0.344935
      8          1           0       -2.355112    2.487108   -0.920763
      9          1           0       -4.771227    1.845313   -0.745911
     10          1           0       -3.645325   -2.080751    0.573041
     11          1           0       -1.225538   -1.451762    0.402491
     12          7           0       -5.734692   -0.518833    0.022588
     13          8           0       -5.994608   -1.660322    0.396863
     14          8           0       -6.567003    0.335640   -0.273676
     15          6           0        5.969173    0.180502    0.065477
     16          6           0        6.670276   -1.088096   -0.421451
     17          6           0        8.186051   -0.920584   -0.531714
     18          1           0        6.199239    1.005874   -0.622109
     19          1           0        6.379683    0.465312    1.044130
     20          1           0        6.257593   -1.371207   -1.398260
     21          1           0        6.438358   -1.910590    0.267270
     22          1           0        8.616706   -0.661042    0.440796
     23          1           0        8.434913   -0.118596   -1.234198
     24          1           0        8.667107   -1.839344   -0.881465
     25          6           0        4.453459    0.028739    0.180835
     26          6           0        3.752356    1.297337    0.667764
     27          6           0        2.236581    1.129826    0.778026
     28          1           0        4.042949   -0.256070   -0.797817
     29          1           0        4.223393   -0.796633    0.868422
     30          1           0        3.984274    2.119831   -0.020957
     31          1           0        4.165039    1.580449    1.644573
     32          1           0        1.987719    0.327837    1.480511
     33          1           0        1.805926    0.870284   -0.194483
     34          1           0        1.755525    2.048585    1.127778
 ---------------------------------------------------------------------

 SCF Done:  E(RHF) =  -669.535603820     A.U. after   15 cycles
 E2 =    -0.2090818095D+01 EUMP2 =    -0.67162642191591D+03

 The electronic state is 1-A.
 Alpha  occ. eigenvalues --  -20.60688 -20.60683 -15.85742 -11.31082 -11.27657
 Alpha  occ. eigenvalues --  -11.27653 -11.27318 -11.26652 -11.26640 -11.22589
 Alpha  occ. eigenvalues --  -11.22435 -11.22207 -11.22147 -11.22015 -11.21520
 Alpha  occ. eigenvalues --   -1.59765  -1.39319  -1.19251  -1.09202  -1.08642
 Alpha  occ. eigenvalues --   -1.04656  -1.04343  -0.96825  -0.95482  -0.87853
 Alpha  occ. eigenvalues --   -0.86049  -0.82324  -0.80426  -0.78972  -0.77378
 Alpha  occ. eigenvalues --   -0.71960  -0.71088  -0.70354  -0.65827  -0.64900
 Alpha  occ. eigenvalues --   -0.64661  -0.62008  -0.61742  -0.60203  -0.58409
 Alpha  occ. eigenvalues --   -0.56184  -0.55147  -0.53484  -0.53213  -0.52980
 Alpha  occ. eigenvalues --   -0.52745  -0.50755  -0.48747  -0.48716  -0.48693
 Alpha  occ. eigenvalues --   -0.47429  -0.46525  -0.46417  -0.44730  -0.44573
 Alpha  occ. eigenvalues --   -0.37217  -0.36268
 Alpha virt. eigenvalues --    0.05157   0.11387   0.16643   0.20370   0.22248
 Alpha virt. eigenvalues --    0.23710   0.25503   0.26037   0.26898   0.27392
 Alpha virt. eigenvalues --    0.28981   0.30145   0.30804   0.31177   0.32015

 Mulliken charges:
               1
     1  C   -0.177762
     2  C   -0.221301
     3  C   -0.170672
     4  C    0.158018
     5  C   -0.170874
     6  C   -0.222080
     7  H    0.239688
     8  H    0.223336
     9  H    0.275093
    10  H    0.275142
    11  H    0.223194
    12  N    0.488041
    13  O   -0.460793
    14  O   -0.460780
    15  C   -0.298924
    16  C   -0.300176
    17  C   -0.476119
    18  H    0.150740
    19  H    0.151081
    20  H    0.152232
    21  H    0.152486
    22  H    0.156026
    23  H    0.155839
    24  H    0.161796
    25  C   -0.299315
    26  C   -0.299190
    27  C   -0.482521
    28  H    0.149120
    29  H    0.150167
    30  H    0.154392
    31  H    0.156277
    32  H    0.157688
    33  H    0.147215
    34  H    0.162938
 Sum of Mulliken charges =  -0.00000

 Dipole moment (field-independent basis, Debye):
    X=              5.3393    Y=              1.3452    Z=             -0.3164  Tot=              5.5152
 Quadrupole moment (field-independent basis, Debye-Ang):
   XX=           -138.7299   YY=            -90.9209   ZZ=            -94.0747
   XY=             -7.7723   XZ=              1.9779   YZ=             -1.9782

 Normal termination of Gaussian 16 at Wed May  5 19:12:36 2021.
