 Gaussian 16, Revision A.03,
 Gaussian 16:  EM64L-G16RevA.03 25-Dec-2016

 -------------
 #p 6-31g* mp2
 -------------

 ------------------------------------------------------
 Input file generated by CHIRIPA (05-May-2021 14:53:15)
 ------------------------------------------------------
 Symbolic Z-matrix:
 Charge =  0 Multiplicity = 1

                         Standard orientation:
 ---------------------------------------------------------------------
 Center     Atomic      Atomic             Coordinates (Angstroms)
 Number     Number       Type             X           Y           Z
 ---------------------------------------------------------------------
      1          6           0        2.739080    0.960052    0.226324
      2          6           0        1.987943    2.215064   -0.219462
      3          6           0        2.084954    3.354044    0.795972
      4          1           0        2.339882    0.625738    1.193702
      5          1           0        3.794930    1.213511    0.394652
      6          1           0        0.934108    1.959008   -0.388233
      7          1           0        2.388845    2.546319   -1.185983
      8          1           0        3.129867    3.637852    0.957873
      9          1           0        1.666864    3.047204    1.760156
     10          1           0        1.540992    4.241301    0.457236
     11          6           0        2.651381   -0.187399   -0.778361
     12          6           0        3.402518   -1.442410   -0.332576
     13          6           0        3.305507   -2.581391   -1.348009
     14          1           0        1.595531   -0.440857   -0.946689
     15          1           0        3.050579    0.146916   -1.745739
     16          1           0        3.001616   -1.773665    0.633946
     17          1           0        4.456353   -1.186355   -0.163805
     18          1           0        3.723597   -2.274551   -2.312193
     19          1           0        2.260594   -2.865199   -1.509910
     20          1           0        3.849469   -3.468647   -1.009273
     21          6           0       -0.761753   -1.862282    1.673316
     22          6           0       -0.493837   -0.489466    1.684308
     23          6           0       -1.232121    0.384477    0.880747
     24          6           0       -2.235572   -0.150958    0.074717
     25          6           0       -2.526349   -1.513913    0.041699
     26          6           0       -1.775367   -2.369230    0.853492
     27          1           0       -0.183304   -2.533946    2.300739
     28          1           0        0.292753   -0.092956    2.319996
     29          1           0       -1.045751    1.451511    0.869786
     30          1           0       -3.316734   -1.879597   -0.602494
     31          1           0       -1.985639   -3.434931    0.842915
     32          7           0       -3.023881    0.764386   -0.780334
     33          8           0       -3.902626    0.267696   -1.481578
     34          8           0       -2.748086    1.961192   -0.733089
 ---------------------------------------------------------------------

 SCF Done:  E(RHF) =  -669.534559678     A.U. after   15 cycles
 E2 =    -0.2094692899D+01 EUMP2 =    -0.67162925257750D+03

 The electronic state is 1-A.
 Alpha  occ. eigenvalues --  -20.60850 -20.60845 -15.85902 -11.31299 -11.27859
 Alpha  occ. eigenvalues --  -11.27850 -11.27610 -11.26884 -11.26875 -11.22061
 Alpha  occ. eigenvalues --  -11.21949 -11.21874 -11.21683 -11.21490 -11.21464
 Alpha  occ. eigenvalues --   -1.59923  -1.39475  -1.19479  -1.08898  -1.08821
 Alpha  occ. eigenvalues --   -1.04888  -1.03946  -0.96392  -0.95692  -0.87407
 Alpha  occ. eigenvalues --   -0.86282  -0.82524  -0.80004  -0.78669  -0.77577
 Alpha  occ. eigenvalues --   -0.72119  -0.71247  -0.70589  -0.65604  -0.65112
 Alpha  occ. eigenvalues --   -0.64878  -0.62313  -0.61238  -0.59746  -0.57989
 Alpha  occ. eigenvalues --   -0.55733  -0.55368  -0.53204  -0.53072  -0.53020
 Alpha  occ. eigenvalues --   -0.52750  -0.50347  -0.48883  -0.48873  -0.48310
 Alpha  occ. eigenvalues --   -0.47040  -0.46211  -0.46094  -0.44867  -0.44185
 Alpha  occ. eigenvalues --   -0.37444  -0.36428
 Alpha virt. eigenvalues --    0.04924   0.11025   0.16351   0.19257   0.23142
 Alpha virt. eigenvalues --    0.23416   0.25177   0.26413   0.27404   0.28490
 Alpha virt. eigenvalues --    0.29494   0.29891   0.31338   0.31481   0.31922

 Mulliken charges:
               1
     1  C   -0.297467
     2  C   -0.307216
     3  C   -0.476470
     4  H    0.137958
     5  H    0.151486
     6  H    0.155629
     7  H    0.157806
     8  H    0.157481
     9  H    0.145813
    10  H    0.167590
    11  C   -0.300809
    12  C   -0.297796
    13  C   -0.476315
    14  H    0.155219
    15  H    0.152405
    16  H    0.143703
    17  H    0.152825
    18  H    0.157879
    19  H    0.155474
    20  H    0.159305
    21  C   -0.172255
    22  C   -0.217586
    23  C   -0.173370
    24  C    0.158116
    25  C   -0.170906
    26  C   -0.218538
    27  H    0.226499
    28  H    0.226121
    29  H    0.279206
    30  H    0.276083
    31  H    0.224133
    32  N    0.488534
    33  O   -0.459841
    34  O   -0.460695
 Sum of Mulliken charges =  -0.00000

 Dipole moment (field-independent basis, Debye):
    X=              2.7395    Y=             -3.1834    Z=              2.8781  Tot=              5.0914
 Quadrupole moment (field-independent basis, Debye-Ang):
   XX=           -105.6222   YY=            -91.4219   ZZ=            -94.5870
   XY=              9.7496   XZ=             -6.2440   YZ=             -0.1251

 Normal termination of Gaussian 16 at Thu May  6 05:53:49 2021.
