 Gaussian 16, Revision A.03,
 Gaussian 16:  EM64L-G16RevA.03 25-Dec-2016

 -------------
 #p 6-31g* mp2
 -------------

 ------------------------------------------------------
 Input file generated by CHIRIPA (05-May-2021 14:55:21)
 ------------------------------------------------------
 Symbolic Z-matrix:
 Charge =  0 Multiplicity = 1

                         Standard orientation:
 ---------------------------------------------------------------------
 Center     Atomic      Atomic             Coordinates (Angstroms)
 Number     Number       Type             X           Y           Z
 ---------------------------------------------------------------------
      1          6           0       -1.373197    2.606492   -0.787804
      2          6           0       -2.032579    1.673426   -1.594727
      3          6           0       -2.511450    0.477588   -1.051401
      4          6           0       -2.312735    0.246212    0.308845
      5          6           0       -1.659701    1.156164    1.138799
      6          6           0       -1.189187    2.345343    0.573983
      7          1           0       -1.004445    3.532861   -1.218219
      8          1           0       -2.176906    1.873572   -2.652628
      9          1           0       -3.025384   -0.262130   -1.653155
     10          1           0       -1.530818    0.928568    2.189992
     11          1           0       -0.677465    3.068154    1.203054
     12          7           0       -2.815271   -1.016243    0.895415
     13          8           0       -2.627547   -1.196379    2.096642
     14          8           0       -3.387366   -1.801715    0.142834
     15          6           0        2.482598   -1.016277   -0.777769
     16          6           0        0.968857   -1.037505   -0.563007
     17          6           0        0.239208   -1.911620   -1.583463
     18          1           0        2.697510   -0.654711   -1.792672
     19          1           0        2.868012   -2.043871   -0.723895
     20          1           0        0.586607   -0.010030   -0.615895
     21          1           0        0.757530   -1.398881    0.451570
     22          1           0        0.592597   -2.946287   -1.527068
     23          1           0        0.420702   -1.549545   -2.600597
     24          1           0       -0.841658   -1.912432   -1.411451
     25          6           0        3.225975   -0.146679    0.234613
     26          6           0        4.739715   -0.125451    0.019850
     27          6           0        5.469364    0.748663    1.040306
     28          1           0        2.840560    0.880915    0.180738
     29          1           0        3.011062   -0.508245    1.249515
     30          1           0        4.951041    0.235925   -0.994727
     31          1           0        5.121965   -1.152926    0.072738
     32          1           0        5.287870    0.386589    2.057440
     33          1           0        5.115976    1.783331    0.983911
     34          1           0        6.550230    0.749476    0.868294
 ---------------------------------------------------------------------

 SCF Done:  E(RHF) =  -669.534551062     A.U. after   15 cycles
 E2 =    -0.2095825701D+01 EUMP2 =    -0.67163037676260D+03

 The electronic state is 1-A.
 Alpha  occ. eigenvalues --  -20.60915 -20.60905 -15.85926 -11.31211 -11.27822
 Alpha  occ. eigenvalues --  -11.27816 -11.27611 -11.26851 -11.26836 -11.21713
 Alpha  occ. eigenvalues --  -11.21477 -11.21391 -11.21322 -11.21234 -11.20818
 Alpha  occ. eigenvalues --   -1.59964  -1.39523  -1.19452  -1.08851  -1.08437
 Alpha  occ. eigenvalues --   -1.04844  -1.03515  -0.95985  -0.95677  -0.86996
 Alpha  occ. eigenvalues --   -0.86237  -0.82517  -0.79595  -0.78270  -0.77562
 Alpha  occ. eigenvalues --   -0.72158  -0.71293  -0.70567  -0.65100  -0.65079
 Alpha  occ. eigenvalues --   -0.64847  -0.62197  -0.60936  -0.59388  -0.57665
 Alpha  occ. eigenvalues --   -0.55358  -0.55296  -0.53195  -0.52946  -0.52528
 Alpha  occ. eigenvalues --   -0.52389  -0.49910  -0.48924  -0.48911  -0.47896
 Alpha  occ. eigenvalues --   -0.46593  -0.45795  -0.45658  -0.44920  -0.43731
 Alpha  occ. eigenvalues --   -0.37406  -0.36400
 Alpha virt. eigenvalues --    0.04948   0.11145   0.16426   0.21270   0.22879
 Alpha virt. eigenvalues --    0.24286   0.26560   0.26946   0.27361   0.27929
 Alpha virt. eigenvalues --    0.28419   0.30349   0.31328   0.31513   0.31902

 Mulliken charges:
               1
     1  C   -0.171692
     2  C   -0.218397
     3  C   -0.171750
     4  C    0.163782
     5  C   -0.169557
     6  C   -0.218864
     7  H    0.226108
     8  H    0.224044
     9  H    0.275933
    10  H    0.275807
    11  H    0.224023
    12  N    0.488886
    13  O   -0.458911
    14  O   -0.460141
    15  C   -0.297202
    16  C   -0.309104
    17  C   -0.480210
    18  H    0.146966
    19  H    0.151006
    20  H    0.156957
    21  H    0.153911
    22  H    0.158038
    23  H    0.148974
    24  H    0.165078
    25  C   -0.297531
    26  C   -0.299494
    27  C   -0.475449
    28  H    0.144443
    29  H    0.150875
    30  H    0.150870
    31  H    0.153627
    32  H    0.155945
    33  H    0.152323
    34  H    0.160707
 Sum of Mulliken charges =  -0.00000

 Dipole moment (field-independent basis, Debye):
    X=              1.6465    Y=              4.4543    Z=             -2.0017  Tot=              5.1535
 Quadrupole moment (field-independent basis, Debye-Ang):
   XX=           -103.6304   YY=            -92.3936   ZZ=            -92.2865
   XY=             -9.9542   XZ=              6.8664   YZ=              1.2348

 Normal termination of Gaussian 16 at Thu May  6 20:46:48 2021.
