 Gaussian 16, Revision A.03,
 Gaussian 16:  EM64L-G16RevA.03 25-Dec-2016

 -------------
 #p 6-31g* mp2
 -------------

 ------------------------------------------------------
 Input file generated by CHIRIPA (05-May-2021 14:57:24)
 ------------------------------------------------------
 Symbolic Z-matrix:
 Charge =  0 Multiplicity = 1

                         Standard orientation:
 ---------------------------------------------------------------------
 Center     Atomic      Atomic             Coordinates (Angstroms)
 Number     Number       Type             X           Y           Z
 ---------------------------------------------------------------------
      1          6           0       -1.202532   -2.262638    0.334458
      2          6           0       -1.591297   -1.496866    1.438530
      3          6           0       -2.551831   -0.490291    1.301676
      4          6           0       -3.105492   -0.275528    0.040476
      5          6           0       -2.738966   -1.021645   -1.078568
      6          6           0       -1.776595   -2.023006   -0.918358
      7          1           0       -0.455653   -3.042545    0.449841
      8          1           0       -1.147164   -1.680749    2.412685
      9          1           0       -2.871161    0.117405    2.139621
     10          1           0       -3.199526   -0.814963   -2.036996
     11          1           0       -1.476600   -2.616158   -1.777555
     12          7           0       -4.123339    0.787328   -0.116768
     13          8           0       -4.596065    0.956796   -1.238574
     14          8           0       -4.429128    1.430801    0.884767
     15          6           0        0.988465    2.052643   -0.072178
     16          6           0        0.763223    0.675698   -0.171226
     17          6           0        1.835696   -0.221154   -0.169018
     18          6           0        3.126187    0.295830   -0.065832
     19          6           0        3.382971    1.662333    0.034285
     20          6           0        2.295317    2.540705    0.030081
     21          1           0        0.149446    2.742162   -0.074669
     22          1           0       -0.250626    0.293822   -0.250763
     23          1           0        1.689882   -1.291887   -0.244433
     24          1           0        4.404887    2.013070    0.112302
     25          1           0        2.473237    3.609561    0.107136
     26          7           0        4.269603   -0.643846   -0.062438
     27          8           0        5.397019   -0.163109    0.029540
     28          8           0        4.016744   -1.843309   -0.151819
 ---------------------------------------------------------------------

 SCF Done:  E(RHF) =  -868.336329735     A.U. after   16 cycles
 E2 =    -0.2605003485D+01 EUMP2 =    -0.87094133321960D+03

 The electronic state is 1-A.
 Alpha  occ. eigenvalues --  -20.61822 -20.61814 -20.61081 -20.61054 -15.86876
 Alpha  occ. eigenvalues --  -15.86113 -11.32442 -11.31357 -11.28946 -11.28901
 Alpha  occ. eigenvalues --  -11.28575 -11.27953 -11.27888 -11.27872 -11.27842
 Alpha  occ. eigenvalues --  -11.27473 -11.26848 -11.26621  -1.60898  -1.60144
 Alpha  occ. eigenvalues --   -1.40440  -1.39704  -1.20644  -1.19468  -1.09951
 Alpha  occ. eigenvalues --   -1.08877  -1.05967  -1.04842  -0.96742  -0.95748
 Alpha  occ. eigenvalues --   -0.87317  -0.86254  -0.83523  -0.82589  -0.78573
 Alpha  occ. eigenvalues --   -0.77691  -0.73067  -0.72340  -0.72244  -0.71603
 Alpha  occ. eigenvalues --   -0.71465  -0.70561  -0.66173  -0.65868  -0.65110
 Alpha  occ. eigenvalues --   -0.64913  -0.63244  -0.62372  -0.56377  -0.55495
 Alpha  occ. eigenvalues --   -0.54451  -0.53961  -0.53199  -0.52324  -0.49849
 Alpha  occ. eigenvalues --   -0.49825  -0.49106  -0.49054  -0.45797  -0.45138
 Alpha  occ. eigenvalues --   -0.38651  -0.37915  -0.37353  -0.36214
 Alpha virt. eigenvalues --    0.03868   0.04826   0.10043   0.11187   0.15260
 Alpha virt. eigenvalues --    0.16416   0.20026   0.21931   0.25897   0.26505
 Alpha virt. eigenvalues --    0.28011   0.29089   0.30574   0.31531   0.31668

 Mulliken charges:
               1
     1  C   -0.185939
     2  C   -0.215799
     3  C   -0.178088
     4  C    0.154598
     5  C   -0.176716
     6  C   -0.221169
     7  H    0.235662
     8  H    0.231968
     9  H    0.279611
    10  H    0.280479
    11  H    0.231840
    12  N    0.487523
    13  O   -0.456654
    14  O   -0.457813
    15  C   -0.177012
    16  C   -0.218670
    17  C   -0.180018
    18  C    0.160213
    19  C   -0.172754
    20  C   -0.217817
    21  H    0.229380
    22  H    0.239086
    23  H    0.263925
    24  H    0.275291
    25  H    0.224624
    26  N    0.488487
    27  O   -0.458807
    28  O   -0.465428
 Sum of Mulliken charges =  -0.00000

 Dipole moment (field-independent basis, Debye):
    X=             -0.8190    Y=             -0.4756    Z=              0.5906  Tot=              1.1162
 Quadrupole moment (field-independent basis, Debye-Ang):
   XX=           -151.1336   YY=            -97.9840   ZZ=           -100.5119
   XY=             23.1487   XZ=             -0.5769   YZ=              1.0234

 Normal termination of Gaussian 16 at Fri May  7 09:32:28 2021.
