 Gaussian 16, Revision A.03,
 Gaussian 16:  EM64L-G16RevA.03 25-Dec-2016

 -------------
 #p 6-31g* mp2
 -------------

 ------------------------------------------------------
 Input file generated by CHIRIPA (05-May-2021 14:55:25)
 ------------------------------------------------------
 Symbolic Z-matrix:
 Charge =  0 Multiplicity = 1

                         Standard orientation:
 ---------------------------------------------------------------------
 Center     Atomic      Atomic             Coordinates (Angstroms)
 Number     Number       Type             X           Y           Z
 ---------------------------------------------------------------------
      1          6           0       -1.879958    2.320666    0.322804
      2          6           0       -2.245218    1.823623   -0.932606
      3          6           0       -2.559185    0.471224   -1.096896
      4          6           0       -2.497280   -0.359626    0.020755
      5          6           0       -2.136865    0.105595    1.284464
      6          6           0       -1.827041    1.461581    1.425388
      7          1           0       -1.637670    3.372635    0.441352
      8          1           0       -2.287163    2.488480   -1.790656
      9          1           0       -2.845047    0.059962   -2.057399
     10          1           0       -2.104000   -0.581608    2.121178
     11          1           0       -1.543700    1.844817    2.401550
     12          7           0       -2.827470   -1.793249   -0.140803
     13          8           0       -2.765376   -2.504596    0.859580
     14          8           0       -3.142115   -2.178429   -1.264757
     15          6           0        2.579388    0.659585    0.118240
     16          6           0        2.836844    2.061268   -0.435825
     17          6           0        1.732868    3.053685   -0.069571
     18          1           0        1.615172    0.293884   -0.260567
     19          1           0        2.484357    0.716758    1.211444
     20          1           0        2.932737    2.001266   -1.527530
     21          1           0        3.800649    2.423600   -0.055808
     22          1           0        1.640400    3.143101    1.017653
     23          1           0        0.767558    2.718368   -0.462432
     24          1           0        1.937093    4.049277   -0.475709
     25          6           0        3.674335   -0.343814   -0.239538
     26          6           0        3.416879   -1.745497    0.314527
     27          6           0        4.520855   -2.737913   -0.051727
     28          1           0        3.769367   -0.400987   -1.332742
     29          1           0        4.638552    0.021889    0.139269
     30          1           0        2.453074   -2.107829   -0.065490
     31          1           0        3.320985   -1.685494    1.406232
     32          1           0        5.486165   -2.402597    0.341134
     33          1           0        4.613323   -2.827330   -1.138951
     34          1           0        4.316630   -3.733506    0.354411
 ---------------------------------------------------------------------

 SCF Done:  E(RHF) =  -669.534938131     A.U. after   15 cycles
 E2 =    -0.2092682726D+01 EUMP2 =    -0.67162762085693D+03

 The electronic state is 1-A.
 Alpha  occ. eigenvalues --  -20.60798 -20.60793 -15.85854 -11.31223 -11.27820
 Alpha  occ. eigenvalues --  -11.27807 -11.27524 -11.26808 -11.26782 -11.21977
 Alpha  occ. eigenvalues --  -11.21611 -11.21603 -11.21588 -11.21472 -11.21008
 Alpha  occ. eigenvalues --   -1.59875  -1.39428  -1.19412  -1.08812  -1.08610
 Alpha  occ. eigenvalues --   -1.04811  -1.03736  -0.96217  -0.95626  -0.87236
 Alpha  occ. eigenvalues --   -0.86207  -0.82462  -0.79819  -0.78403  -0.77505
 Alpha  occ. eigenvalues --   -0.72071  -0.71200  -0.70517  -0.65250  -0.65057
 Alpha  occ. eigenvalues --   -0.64806  -0.62155  -0.61143  -0.59586  -0.57818
 Alpha  occ. eigenvalues --   -0.55571  -0.55268  -0.53276  -0.52902  -0.52898
 Alpha  occ. eigenvalues --   -0.52527  -0.50149  -0.48830  -0.48825  -0.48115
 Alpha  occ. eigenvalues --   -0.46834  -0.45948  -0.45852  -0.44833  -0.43983
 Alpha  occ. eigenvalues --   -0.37284  -0.36419
 Alpha virt. eigenvalues --    0.05018   0.11157   0.16476   0.21090   0.22699
 Alpha virt. eigenvalues --    0.24184   0.26314   0.27003   0.27299   0.27453
 Alpha virt. eigenvalues --    0.28819   0.30697   0.31154   0.31600   0.32067

 Mulliken charges:
               1
     1  C   -0.169545
     2  C   -0.220680
     3  C   -0.170902
     4  C    0.157671
     5  C   -0.170448
     6  C   -0.217439
     7  H    0.229308
     8  H    0.224102
     9  H    0.275775
    10  H    0.275947
    11  H    0.223819
    12  N    0.488072
    13  O   -0.460234
    14  O   -0.460606
    15  C   -0.298691
    16  C   -0.298417
    17  C   -0.482748
    18  H    0.152769
    19  H    0.147034
    20  H    0.152603
    21  H    0.152631
    22  H    0.149880
    23  H    0.158981
    24  H    0.157958
    25  C   -0.298590
    26  C   -0.300242
    27  C   -0.475940
    28  H    0.150034
    29  H    0.149105
    30  H    0.155476
    31  H    0.151108
    32  H    0.154080
    33  H    0.155645
    34  H    0.162485
 Sum of Mulliken charges =  -0.00000

 Dipole moment (field-independent basis, Debye):
    X=              1.1268    Y=              4.9735    Z=              0.5719  Tot=              5.1315
 Quadrupole moment (field-independent basis, Debye-Ang):
   XX=           -101.5572   YY=            -99.7497   ZZ=            -89.3252
   XY=            -12.9335   XZ=              0.0290   YZ=             -0.8668

 Normal termination of Gaussian 16 at Thu May  6 09:32:47 2021.
