 Gaussian 16, Revision A.03,
 Gaussian 16:  EM64L-G16RevA.03 25-Dec-2016

 -------------
 #p 6-31g* mp2
 -------------

 ------------------------------------------------------
 Input file generated by CHIRIPA (05-May-2021 14:57:21)
 ------------------------------------------------------
 Symbolic Z-matrix:
 Charge =  0 Multiplicity = 1

                         Standard orientation:
 ---------------------------------------------------------------------
 Center     Atomic      Atomic             Coordinates (Angstroms)
 Number     Number       Type             X           Y           Z
 ---------------------------------------------------------------------
      1          6           0        4.687678    0.992355   -1.313859
      2          6           0        3.759746    0.083631   -1.833169
      3          6           0        2.791690   -0.493488   -1.005915
      4          6           0        2.780383   -0.137696    0.341888
      5          6           0        3.691361    0.764539    0.889045
      6          6           0        4.650589    1.329315    0.043198
      7          1           0        5.436259    1.435881   -1.963711
      8          1           0        3.786177   -0.179912   -2.886682
      9          1           0        2.061364   -1.199771   -1.381692
     10          1           0        3.640019    1.007692    1.943397
     11          1           0        5.369981    2.034751    0.449253
     12          7           0        1.760218   -0.742133    1.227507
     13          8           0        1.771358   -0.412166    2.411413
     14          8           0        0.968790   -1.534413    0.720979
     15          6           0       -3.691863    2.404807    0.264459
     16          6           0       -3.436213    1.532114    1.327273
     17          6           0       -3.023848    0.218604    1.083977
     18          6           0       -2.876655   -0.190728   -0.240436
     19          6           0       -3.123661    0.655025   -1.320704
     20          6           0       -3.535048    1.964253   -1.053813
     21          1           0       -4.011818    3.423510    0.462623
     22          1           0       -3.557162    1.871517    2.352077
     23          1           0       -2.819135   -0.477943    1.887925
     24          1           0       -2.994277    0.287845   -2.331573
     25          1           0       -3.732875    2.639803   -1.881184
     26          7           0       -2.440620   -1.579017   -0.510493
     27          8           0       -2.318386   -1.915285   -1.686341
     28          8           0       -2.229346   -2.304602    0.458799
 ---------------------------------------------------------------------

 SCF Done:  E(RHF) =  -868.337018297     A.U. after   16 cycles
 E2 =    -0.2600287496D+01 EUMP2 =    -0.87093730579389D+03

 The electronic state is 1-A.
 Alpha  occ. eigenvalues --  -20.60418 -20.60367 -20.59814 -20.59646 -15.85441
 Alpha  occ. eigenvalues --  -15.84782 -11.30916 -11.30404 -11.27534 -11.27449
 Alpha  occ. eigenvalues --  -11.27286 -11.27073 -11.26932 -11.26844 -11.26570
 Alpha  occ. eigenvalues --  -11.26520 -11.26149 -11.26057  -1.59480  -1.58781
 Alpha  occ. eigenvalues --   -1.39025  -1.38332  -1.19108  -1.18612  -1.08488
 Alpha  occ. eigenvalues --   -1.07966  -1.04522  -1.04055  -0.95298  -0.94755
 Alpha  occ. eigenvalues --   -0.85916  -0.85441  -0.82122  -0.81589  -0.77152
 Alpha  occ. eigenvalues --   -0.76582  -0.71686  -0.71012  -0.70837  -0.70224
 Alpha  occ. eigenvalues --   -0.70010  -0.69732  -0.64753  -0.64525  -0.64265
 Alpha  occ. eigenvalues --   -0.64071  -0.61858  -0.61393  -0.55031  -0.54574
 Alpha  occ. eigenvalues --   -0.52857  -0.52611  -0.52376  -0.52154  -0.48448
 Alpha  occ. eigenvalues --   -0.48393  -0.47802  -0.47744  -0.44454  -0.43607
 Alpha  occ. eigenvalues --   -0.37109  -0.36622  -0.36134  -0.35672
 Alpha virt. eigenvalues --    0.05366   0.05979   0.11516   0.11979   0.16831
 Alpha virt. eigenvalues --    0.17402   0.21655   0.22047   0.27567   0.27944
 Alpha virt. eigenvalues --    0.28571   0.28989   0.31186   0.31559   0.32871

 Mulliken charges:
               1
     1  C   -0.171377
     2  C   -0.219208
     3  C   -0.172719
     4  C    0.157532
     5  C   -0.171733
     6  C   -0.218927
     7  H    0.224367
     8  H    0.223952
     9  H    0.282387
    10  H    0.273973
    11  H    0.221799
    12  N    0.486871
    13  O   -0.465546
    14  O   -0.451495
    15  C   -0.172276
    16  C   -0.219285
    17  C   -0.167461
    18  C    0.159610
    19  C   -0.173372
    20  C   -0.219307
    21  H    0.222237
    22  H    0.222762
    23  H    0.282204
    24  H    0.271787
    25  H    0.219273
    26  N    0.490541
    27  O   -0.471257
    28  O   -0.445333
 Sum of Mulliken charges =  -0.00000

 Dipole moment (field-independent basis, Debye):
    X=              2.1025    Y=              6.7127    Z=             -2.0063  Tot=              7.3148
 Quadrupole moment (field-independent basis, Debye-Ang):
   XX=            -77.7943   YY=           -107.0684   ZZ=           -100.1393
   XY=             -7.0370   XZ=             -8.8820   YZ=              0.9040

 Normal termination of Gaussian 16 at Thu May  6 09:39:01 2021.
