 Gaussian 16, Revision A.03,
 Gaussian 16:  EM64L-G16RevA.03 25-Dec-2016

 -------------
 #p 6-31g* mp2
 -------------

 ------------------------------------------------------
 Input file generated by CHIRIPA (05-May-2021 14:57:23)
 ------------------------------------------------------
 Symbolic Z-matrix:
 Charge =  0 Multiplicity = 1

                         Standard orientation:
 ---------------------------------------------------------------------
 Center     Atomic      Atomic             Coordinates (Angstroms)
 Number     Number       Type             X           Y           Z
 ---------------------------------------------------------------------
      1          6           0        1.058782   -1.290990    0.390536
      2          6           0        2.020018   -1.348274    1.405062
      3          6           0        3.254076   -0.709641    1.250798
      4          6           0        3.494531   -0.019539    0.063688
      5          6           0        2.557165    0.055745   -0.965373
      6          6           0        1.329945   -0.590398   -0.789364
      7          1           0        0.102792   -1.790012    0.518818
      8          1           0        1.812178   -1.891631    2.322456
      9          1           0        4.016178   -0.737921    2.020096
     10          1           0        2.793306    0.605103   -1.868623
     11          1           0        0.585317   -0.544226   -1.578948
     12          7           0        4.797353    0.660528   -0.111135
     13          8           0        4.984748    1.261996   -1.166481
     14          8           0        5.606441    0.579219    0.810495
     15          6           0       -3.696150    2.527874    0.578741
     16          6           0       -3.057572    2.240993   -0.632224
     17          6           0       -2.821701    0.917011   -1.014304
     18          6           0       -3.239561   -0.100038   -0.157394
     19          6           0       -3.878207    0.153656    1.055478
     20          6           0       -4.103711    1.485128    1.417250
     21          1           0       -3.875354    3.559284    0.867662
     22          1           0       -2.739963    3.048781   -1.285408
     23          1           0       -2.329465    0.666565   -1.946183
     24          1           0       -4.183318   -0.672895    1.685668
     25          1           0       -4.599863    1.704951    2.358290
     26          7           0       -2.995342   -1.505642   -0.551134
     27          8           0       -3.373183   -2.383675    0.221480
     28          8           0       -2.430706   -1.702709   -1.624908
 ---------------------------------------------------------------------

 SCF Done:  E(RHF) =  -868.339546353     A.U. after   16 cycles
 E2 =    -0.2599723910D+01 EUMP2 =    -0.87093927026271D+03

 The electronic state is 1-A.
 Alpha  occ. eigenvalues --  -20.62066 -20.62034 -20.60547 -20.60541 -15.87062
 Alpha  occ. eigenvalues --  -15.85596 -11.32137 -11.30852 -11.28688 -11.28643
 Alpha  occ. eigenvalues --  -11.28298 -11.27583 -11.27570 -11.27413 -11.27397
 Alpha  occ. eigenvalues --  -11.27028 -11.26377 -11.26297  -1.61129  -1.59625
 Alpha  occ. eigenvalues --   -1.40683  -1.39182  -1.20271  -1.18999  -1.09714
 Alpha  occ. eigenvalues --   -1.08392  -1.05621  -1.04387  -0.96598  -0.95254
 Alpha  occ. eigenvalues --   -0.87034  -0.85770  -0.83433  -0.82096  -0.78533
 Alpha  occ. eigenvalues --   -0.77174  -0.73268  -0.72494  -0.71813  -0.71359
 Alpha  occ. eigenvalues --   -0.70948  -0.70033  -0.65917  -0.65609  -0.64637
 Alpha  occ. eigenvalues --   -0.64354  -0.62978  -0.61732  -0.56105  -0.54817
 Alpha  occ. eigenvalues --   -0.53968  -0.53703  -0.52721  -0.52458  -0.50054
 Alpha  occ. eigenvalues --   -0.50002  -0.48579  -0.48561  -0.46129  -0.44612
 Alpha  occ. eigenvalues --   -0.38225  -0.37221  -0.36925  -0.35999
 Alpha virt. eigenvalues --    0.03926   0.05356   0.10385   0.11684   0.15500
 Alpha virt. eigenvalues --    0.16887   0.20253   0.21803   0.25782   0.26981
 Alpha virt. eigenvalues --    0.28324   0.28327   0.30185   0.30756   0.32240

 Mulliken charges:
               1
     1  C   -0.173941
     2  C   -0.219492
     3  C   -0.171964
     4  C    0.158161
     5  C   -0.172575
     6  C   -0.222809
     7  H    0.233627
     8  H    0.223327
     9  H    0.274009
    10  H    0.272981
    11  H    0.230401
    12  N    0.488120
    13  O   -0.462137
    14  O   -0.461510
    15  C   -0.169148
    16  C   -0.217156
    17  C   -0.172168
    18  C    0.155346
    19  C   -0.171372
    20  C   -0.217911
    21  H    0.229778
    22  H    0.227164
    23  H    0.272633
    24  H    0.276326
    25  H    0.226640
    26  N    0.485402
    27  O   -0.457046
    28  O   -0.464686
 Sum of Mulliken charges =  -0.00000

 Dipole moment (field-independent basis, Debye):
    X=             -5.8256    Y=              2.6537    Z=              2.0852  Tot=              6.7326
 Quadrupole moment (field-independent basis, Debye-Ang):
   XX=           -131.1706   YY=           -105.4421   ZZ=            -97.8195
   XY=            -24.8080   XZ=             -3.4948   YZ=             -4.2210

 Normal termination of Gaussian 16 at Thu May  6 05:00:35 2021.
