 Gaussian 16, Revision A.03,
 Gaussian 16:  EM64L-G16RevA.03 25-Dec-2016

 -------------
 #p 6-31g* mp2
 -------------

 ------------------------------------------------------
 Input file generated by CHIRIPA (05-May-2021 14:57:23)
 ------------------------------------------------------
 Symbolic Z-matrix:
 Charge =  0 Multiplicity = 1

                         Standard orientation:
 ---------------------------------------------------------------------
 Center     Atomic      Atomic             Coordinates (Angstroms)
 Number     Number       Type             X           Y           Z
 ---------------------------------------------------------------------
      1          6           0        5.482342    0.682180   -0.860031
      2          6           0        4.906995   -0.577092   -1.059356
      3          6           0        3.705240   -0.916203   -0.430597
      4          6           0        3.103242    0.032467    0.394577
      5          6           0        3.651672    1.295310    0.613078
      6          6           0        4.853952    1.612722   -0.025921
      7          1           0        6.416099    0.937182   -1.352443
      8          1           0        5.392784   -1.301755   -1.706594
      9          1           0        3.237941   -1.883855   -0.567341
     10          1           0        3.143944    1.996690    1.263998
     11          1           0        5.298480    2.591447    0.130719
     12          7           0        1.830719   -0.315048    1.065636
     13          8           0        1.320172    0.538462    1.787786
     14          8           0        1.367959   -1.434360    0.856756
     15          6           0       -4.911880    1.847387   -0.045372
     16          6           0       -5.163890    0.645215    0.623801
     17          6           0       -4.284850   -0.434707    0.498879
     18          6           0       -3.158392   -0.277017   -0.307046
     19          6           0       -2.879844    0.907942   -0.986438
     20          6           0       -3.772670    1.974690   -0.846943
     21          1           0       -5.600094    2.681180    0.057331
     22          1           0       -6.047823    0.543496    1.246986
     23          1           0       -4.455713   -1.376679    1.005745
     24          1           0       -1.990347    0.979269   -1.600544
     25          1           0       -3.574416    2.907130   -1.367803
     26          7           0       -2.220494   -1.413309   -0.447009
     27          8           0       -1.235131   -1.248995   -1.163037
     28          8           0       -2.488493   -2.446731    0.161967
 ---------------------------------------------------------------------

 SCF Done:  E(RHF) =  -868.336627248     A.U. after   16 cycles
 E2 =    -0.2600227102D+01 EUMP2 =    -0.87093685435006D+03

 The electronic state is 1-A.
 Alpha  occ. eigenvalues --  -20.60034 -20.59860 -20.59638 -20.59624 -15.84984
 Alpha  occ. eigenvalues --  -15.84700 -11.30575 -11.30308 -11.27220 -11.27118
 Alpha  occ. eigenvalues --  -11.26987 -11.26935 -11.26905 -11.26734 -11.26282
 Alpha  occ. eigenvalues --  -11.26219 -11.26020 -11.25997  -1.59016  -1.58670
 Alpha  occ. eigenvalues --   -1.38560  -1.38235  -1.18777  -1.18507  -1.08137
 Alpha  occ. eigenvalues --   -1.07859  -1.04213  -1.03963  -0.94933  -0.94657
 Alpha  occ. eigenvalues --   -0.85601  -0.85353  -0.81761  -0.81505  -0.76766
 Alpha  occ. eigenvalues --   -0.76504  -0.71237  -0.70944  -0.70379  -0.69902
 Alpha  occ. eigenvalues --   -0.69883  -0.69646  -0.64426  -0.64226  -0.64174
 Alpha  occ. eigenvalues --   -0.63989  -0.61553  -0.61322  -0.54725  -0.54477
 Alpha  occ. eigenvalues --   -0.52535  -0.52311  -0.52256  -0.52078  -0.48032
 Alpha  occ. eigenvalues --   -0.47964  -0.47672  -0.47660  -0.44076  -0.43390
 Alpha  occ. eigenvalues --   -0.36779  -0.36495  -0.35828  -0.35569
 Alpha virt. eigenvalues --    0.05746   0.06112   0.11824   0.12082   0.17200
 Alpha virt. eigenvalues --    0.17531   0.21913   0.22104   0.27808   0.27981
 Alpha virt. eigenvalues --    0.28845   0.29021   0.31430   0.31615   0.33145

 Mulliken charges:
               1
     1  C   -0.171756
     2  C   -0.219072
     3  C   -0.169274
     4  C    0.159155
     5  C   -0.172584
     6  C   -0.218995
     7  H    0.223203
     8  H    0.222656
     9  H    0.281060
    10  H    0.272750
    11  H    0.220379
    12  N    0.487385
    13  O   -0.470819
    14  O   -0.444103
    15  C   -0.171573
    16  C   -0.218335
    17  C   -0.169905
    18  C    0.163269
    19  C   -0.168553
    20  C   -0.218167
    21  H    0.222277
    22  H    0.220892
    23  H    0.275179
    24  H    0.272192
    25  H    0.219618
    26  N    0.492406
    27  O   -0.460092
    28  O   -0.459193
 Sum of Mulliken charges =  -0.00000

 Dipole moment (field-independent basis, Debye):
    X=              1.1900    Y=              4.8873    Z=             -1.8675  Tot=              5.3655
 Quadrupole moment (field-independent basis, Debye-Ang):
   XX=            -57.2519   YY=           -102.0103   ZZ=           -105.7837
   XY=             -6.3633   XZ=             -8.7057   YZ=             -0.7611

 Normal termination of Gaussian 16 at Fri May  7 09:29:34 2021.
