 Gaussian 16, Revision A.03,
 Gaussian 16:  EM64L-G16RevA.03 25-Dec-2016

 -------------
 #p 6-31g* mp2
 -------------

 ------------------------------------------------------
 Input file generated by CHIRIPA (05-May-2021 14:51:11)
 ------------------------------------------------------
 Symbolic Z-matrix:
 Charge =  0 Multiplicity = 1

                         Standard orientation:
 ---------------------------------------------------------------------
 Center     Atomic      Atomic             Coordinates (Angstroms)
 Number     Number       Type             X           Y           Z
 ---------------------------------------------------------------------
      1          6           0        3.570818    0.836724    0.268486
      2          6           0        4.360666    2.006334   -0.319849
      3          6           0        4.168402    3.304041    0.465507
      4          1           0        2.503996    1.098016    0.292184
      5          1           0        3.878417    0.683746    1.312218
      6          1           0        4.052663    2.156175   -1.362585
      7          1           0        5.425710    1.742153   -0.342326
      8          1           0        4.493737    3.178109    1.503245
      9          1           0        3.112888    3.594483    0.477189
     10          1           0        4.741896    4.126999    0.027666
     11          6           0        3.752797   -0.467589   -0.505709
     12          6           0        2.962949   -1.637199    0.082626
     13          6           0        3.155213   -2.934906   -0.702730
     14          1           0        3.445198   -0.314611   -1.549441
     15          1           0        4.819619   -0.728881   -0.529407
     16          1           0        1.897905   -1.373018    0.105104
     17          1           0        3.270952   -1.787040    1.125362
     18          1           0        4.210726   -3.225348   -0.714412
     19          1           0        2.829878   -2.808974   -1.740467
     20          1           0        2.581719   -3.757864   -0.264888
     21          6           0       -3.098781   -0.651622   -0.101146
     22          6           0       -2.248539   -1.165269    1.061281
     23          6           0       -1.126313   -2.098457    0.605688
     24          1           0       -3.527789   -1.507741   -0.639624
     25          1           0       -2.450776   -0.125679   -0.815897
     26          1           0       -2.898171   -1.688889    1.774314
     27          1           0       -1.821659   -0.307823    1.597170
     28          1           0       -0.454799   -1.583122   -0.088647
     29          1           0       -1.537428   -2.972035    0.089503
     30          1           0       -0.531037   -2.453836    1.452571
     31          6           0       -4.224834    0.282487    0.338369
     32          6           0       -5.075077    0.796134   -0.824059
     33          6           0       -6.197301    1.729323   -0.368465
     34          1           0       -4.872839   -0.243455    1.053120
     35          1           0       -3.795826    1.138605    0.876847
     36          1           0       -5.501955   -0.061312   -1.359947
     37          1           0       -4.425443    1.319754   -1.537091
     38          1           0       -5.786187    2.602901    0.147720
     39          1           0       -6.868816    1.213988    0.325870
     40          1           0       -6.792578    2.084701   -1.215349
 ---------------------------------------------------------------------

 SCF Done:  E(RHF) =  -470.733116403     A.U. after   11 cycles
 E2 =    -0.1582575123D+01 EUMP2 =    -0.47231569152558D+03

 The electronic state is 1-A.
 Alpha  occ. eigenvalues --  -11.21632 -11.21624 -11.21596 -11.21487 -11.21436
 Alpha  occ. eigenvalues --  -11.21381 -11.21376 -11.21313 -11.21095 -11.21088
 Alpha  occ. eigenvalues --  -11.21074 -11.20999  -1.08461  -1.08396  -1.03567
 Alpha  occ. eigenvalues --   -1.03481  -0.96018  -0.95936  -0.87034  -0.86955
 Alpha  occ. eigenvalues --   -0.79670  -0.79510  -0.78282  -0.78198  -0.65129
 Alpha  occ. eigenvalues --   -0.65004  -0.61073  -0.60798  -0.59403  -0.59283
 Alpha  occ. eigenvalues --   -0.57617  -0.57554  -0.55359  -0.55185  -0.52715
 Alpha  occ. eigenvalues --   -0.52620  -0.52435  -0.52366  -0.50061  -0.49821
 Alpha  occ. eigenvalues --   -0.47977  -0.47838  -0.46805  -0.46444  -0.45854
 Alpha  occ. eigenvalues --   -0.45772  -0.45719  -0.45537  -0.43808  -0.43741
 Alpha virt. eigenvalues --    0.21758   0.23074   0.23683   0.24744   0.26143
 Alpha virt. eigenvalues --    0.26816   0.27106   0.27507   0.27869   0.28945
 Alpha virt. eigenvalues --    0.30578   0.31263   0.31624   0.31807   0.32422

 Mulliken charges:
               1
     1  C   -0.298002
     2  C   -0.299596
     3  C   -0.475648
     4  H    0.148713
     5  H    0.149582
     6  H    0.151786
     7  H    0.152056
     8  H    0.155209
     9  H    0.154886
    10  H    0.160240
    11  C   -0.297880
    12  C   -0.307213
    13  C   -0.475307
    14  H    0.148915
    15  H    0.149436
    16  H    0.160411
    17  H    0.151171
    18  H    0.154715
    19  H    0.154601
    20  H    0.160875
    21  C   -0.298497
    22  C   -0.299818
    23  C   -0.479513
    24  H    0.149817
    25  H    0.149238
    26  H    0.152164
    27  H    0.152100
    28  H    0.158235
    29  H    0.155504
    30  H    0.161561
    31  C   -0.298319
    32  C   -0.299664
    33  C   -0.475727
    34  H    0.149676
    35  H    0.149674
    36  H    0.152005
    37  H    0.151834
    38  H    0.155213
    39  H    0.155250
    40  H    0.160317
 Sum of Mulliken charges =  -0.00000

 Dipole moment (field-independent basis, Debye):
    X=             -0.0380    Y=             -0.0167    Z=              0.0114  Tot=              0.0431
 Quadrupole moment (field-independent basis, Debye-Ang):
   XX=            -84.5826   YY=            -85.5775   ZZ=            -84.6847
   XY=              0.9766   XZ=              0.5982   YZ=             -0.8384

 Normal termination of Gaussian 16 at Wed May  5 18:14:40 2021.
