 Gaussian 16, Revision A.03,
 Gaussian 16:  EM64L-G16RevA.03 25-Dec-2016

 -------------
 #p 6-31g* mp2
 -------------

 ------------------------------------------------------
 Input file generated by CHIRIPA (05-May-2021 14:55:22)
 ------------------------------------------------------
 Symbolic Z-matrix:
 Charge =  0 Multiplicity = 1

                         Standard orientation:
 ---------------------------------------------------------------------
 Center     Atomic      Atomic             Coordinates (Angstroms)
 Number     Number       Type             X           Y           Z
 ---------------------------------------------------------------------
      1          6           0       -0.127498   -2.448154    1.142904
      2          6           0       -0.700547   -1.438562    1.923198
      3          6           0       -1.588932   -0.520375    1.355527
      4          6           0       -1.883313   -0.641663   -0.001646
      5          6           0       -1.328658   -1.636492   -0.805365
      6          6           0       -0.442826   -2.543728   -0.216491
      7          1           0        0.561630   -3.157171    1.592120
      8          1           0       -0.457489   -1.361927    2.979179
      9          1           0       -2.046940    0.270970    1.936406
     10          1           0       -1.590236   -1.687483   -1.855315
     11          1           0        0.000705   -3.326768   -0.824910
     12          7           0       -2.822455    0.324584   -0.613838
     13          8           0       -3.065522    0.196281   -1.811792
     14          8           0       -3.297704    1.191935    0.115873
     15          6           0        2.133082    1.738996    0.132904
     16          6           0        0.706195    2.274292    0.008647
     17          6           0        0.563228    3.703478    0.532845
     18          1           0        2.441790    1.777211    1.186556
     19          1           0        2.815222    2.402156   -0.416914
     20          1           0        0.026763    1.609554    0.557382
     21          1           0        0.400778    2.234620   -1.044806
     22          1           0        1.217849    4.384214   -0.020933
     23          1           0        0.841709    3.755597    1.590357
     24          1           0       -0.464666    4.066252    0.434422
     25          6           0        2.291958    0.311340   -0.386984
     26          6           0        3.718843   -0.223956   -0.262728
     27          6           0        3.861810   -1.653141   -0.786925
     28          1           0        1.609816   -0.351819    0.162833
     29          1           0        1.983248    0.273125   -1.440637
     30          1           0        4.024261   -0.184283    0.790725
     31          1           0        4.398276    0.440783   -0.811463
     32          1           0        3.583330   -1.705260   -1.844438
     33          1           0        3.207189   -2.333877   -0.233147
     34          1           0        4.889705   -2.015915   -0.688504
 ---------------------------------------------------------------------

 SCF Done:  E(RHF) =  -669.533888995     A.U. after   15 cycles
 E2 =    -0.2096829994D+01 EUMP2 =    -0.67163071898895D+03

 The electronic state is 1-A.
 Alpha  occ. eigenvalues --  -20.60871 -20.60858 -15.85909 -11.31304 -11.27878
 Alpha  occ. eigenvalues --  -11.27866 -11.27622 -11.26919 -11.26883 -11.21850
 Alpha  occ. eigenvalues --  -11.21572 -11.21368 -11.21321 -11.21274 -11.20755
 Alpha  occ. eigenvalues --   -1.59931  -1.39486  -1.19511  -1.08894  -1.08443
 Alpha  occ. eigenvalues --   -1.04911  -1.03571  -0.96020  -0.95715  -0.87050
 Alpha  occ. eigenvalues --   -0.86300  -0.82540  -0.79661  -0.78265  -0.77579
 Alpha  occ. eigenvalues --   -0.72133  -0.71245  -0.70608  -0.65150  -0.65128
 Alpha  occ. eigenvalues --   -0.64895  -0.62249  -0.61000  -0.59408  -0.57619
 Alpha  occ. eigenvalues --   -0.55411  -0.55351  -0.53447  -0.52987  -0.52651
 Alpha  occ. eigenvalues --   -0.52451  -0.50013  -0.48895  -0.48886  -0.48013
 Alpha  occ. eigenvalues --   -0.46755  -0.45765  -0.45503  -0.44838  -0.43777
 Alpha  occ. eigenvalues --   -0.37381  -0.36447
 Alpha virt. eigenvalues --    0.04906   0.11007   0.16370   0.20742   0.23083
 Alpha virt. eigenvalues --    0.23974   0.26635   0.26833   0.27510   0.27809
 Alpha virt. eigenvalues --    0.28344   0.30759   0.31480   0.31968   0.32212

 Mulliken charges:
               1
     1  C   -0.175307
     2  C   -0.216141
     3  C   -0.177796
     4  C    0.166270
     5  C   -0.169896
     6  C   -0.214623
     7  H    0.226644
     8  H    0.224396
     9  H    0.276463
    10  H    0.276156
    11  H    0.225208
    12  N    0.489389
    13  O   -0.460028
    14  O   -0.460518
    15  C   -0.296476
    16  C   -0.306636
    17  C   -0.476533
    18  H    0.145437
    19  H    0.149529
    20  H    0.153890
    21  H    0.154623
    22  H    0.154330
    23  H    0.150600
    24  H    0.169131
    25  C   -0.307461
    26  C   -0.298744
    27  C   -0.474098
    28  H    0.159940
    29  H    0.148033
    30  H    0.149380
    31  H    0.153534
    32  H    0.155503
    33  H    0.144847
    34  H    0.160953
 Sum of Mulliken charges =  -0.00000

 Dipole moment (field-independent basis, Debye):
    X=              3.1036    Y=             -3.4222    Z=              2.1200  Tot=              5.0831
 Quadrupole moment (field-independent basis, Debye-Ang):
   XX=           -108.4012   YY=            -90.7537   ZZ=            -90.2237
   XY=              4.3271   XZ=             -4.7956   YZ=              0.1062

 Normal termination of Gaussian 16 at Thu May  6 17:36:16 2021.
