 Gaussian 16, Revision A.03,
 Gaussian 16:  EM64L-G16RevA.03 25-Dec-2016

 -------------
 #p 6-31g* mp2
 -------------

 ------------------------------------------------------
 Input file generated by CHIRIPA (05-May-2021 14:55:23)
 ------------------------------------------------------
 Symbolic Z-matrix:
 Charge =  0 Multiplicity = 1

                         Standard orientation:
 ---------------------------------------------------------------------
 Center     Atomic      Atomic             Coordinates (Angstroms)
 Number     Number       Type             X           Y           Z
 ---------------------------------------------------------------------
      1          6           0       -2.537262    1.831876    0.920177
      2          6           0       -1.966386    0.893541    1.786289
      3          6           0       -1.713842   -0.411379    1.352753
      4          6           0       -2.046173   -0.745278    0.040748
      5          6           0       -2.615972    0.167021   -0.846004
      6          6           0       -2.859664    1.466266   -0.390894
      7          1           0       -2.730006    2.843365    1.265338
      8          1           0       -1.714976    1.174670    2.805016
      9          1           0       -1.272792   -1.157736    2.002247
     10          1           0       -2.855760   -0.142817   -1.855915
     11          1           0       -3.303108    2.192900   -1.065731
     12          7           0       -1.783501   -2.123735   -0.429637
     13          8           0       -2.085428   -2.392915   -1.590249
     14          8           0       -1.280667   -2.908887    0.371193
     15          6           0        3.331215    0.292055   -0.271637
     16          6           0        3.457530   -0.996204    0.542252
     17          6           0        4.776643   -1.727326    0.290868
     18          1           0        3.422041    0.053553   -1.340193
     19          1           0        4.171895    0.955991   -0.027012
     20          1           0        2.616106   -1.656936    0.297191
     21          1           0        3.366202   -0.754632    1.608985
     22          1           0        5.626777   -1.089367    0.553321
     23          1           0        4.872420   -1.996799   -0.765926
     24          1           0        4.845944   -2.645361    0.882702
     25          6           0        2.017813    1.034260   -0.031141
     26          6           0        1.891499    2.322520   -0.845031
     27          6           0        0.572385    3.053641   -0.593646
     28          1           0        1.177133    0.370324   -0.275766
     29          1           0        1.926988    1.272763    1.037415
     30          1           0        1.982827    2.080947   -1.911763
     31          1           0        2.732923    2.983252   -0.599969
     32          1           0        0.476608    3.323114    0.463148
     33          1           0       -0.277748    2.415682   -0.856100
     34          1           0        0.503084    3.971677   -1.185481
 ---------------------------------------------------------------------

 SCF Done:  E(RHF) =  -669.534292695     A.U. after   15 cycles
 E2 =    -0.2094516439D+01 EUMP2 =    -0.67162880913326D+03

 The electronic state is 1-A.
 Alpha  occ. eigenvalues --  -20.60855 -20.60850 -15.85910 -11.31281 -11.27855
 Alpha  occ. eigenvalues --  -11.27851 -11.27546 -11.26820 -11.26802 -11.21685
 Alpha  occ. eigenvalues --  -11.21388 -11.21370 -11.21249 -11.21182 -11.20817
 Alpha  occ. eigenvalues --   -1.59932  -1.39484  -1.19459  -1.08846  -1.08373
 Alpha  occ. eigenvalues --   -1.04855  -1.03471  -0.95953  -0.95662  -0.86970
 Alpha  occ. eigenvalues --   -0.86244  -0.82502  -0.79558  -0.78184  -0.77554
 Alpha  occ. eigenvalues --   -0.72123  -0.71260  -0.70539  -0.65097  -0.65012
 Alpha  occ. eigenvalues --   -0.64840  -0.62192  -0.60887  -0.59327  -0.57579
 Alpha  occ. eigenvalues --   -0.55356  -0.55258  -0.53390  -0.52931  -0.52638
 Alpha  occ. eigenvalues --   -0.52245  -0.49884  -0.48884  -0.48879  -0.47811
 Alpha  occ. eigenvalues --   -0.46559  -0.45713  -0.45597  -0.44882  -0.43734
 Alpha  occ. eigenvalues --   -0.37322  -0.36411
 Alpha virt. eigenvalues --    0.04962   0.11128   0.16420   0.21205   0.22871
 Alpha virt. eigenvalues --    0.24366   0.26456   0.27025   0.27525   0.27744
 Alpha virt. eigenvalues --    0.28633   0.30800   0.31552   0.31824   0.32128

 Mulliken charges:
               1
     1  C   -0.163632
     2  C   -0.216987
     3  C   -0.169207
     4  C    0.158719
     5  C   -0.171659
     6  C   -0.223447
     7  H    0.226781
     8  H    0.223716
     9  H    0.276333
    10  H    0.276058
    11  H    0.224698
    12  N    0.487537
    13  O   -0.460365
    14  O   -0.460244
    15  C   -0.298411
    16  C   -0.301580
    17  C   -0.475624
    18  H    0.151314
    19  H    0.147990
    20  H    0.159715
    21  H    0.148192
    22  H    0.153004
    23  H    0.156620
    24  H    0.161770
    25  C   -0.298257
    26  C   -0.298831
    27  C   -0.481620
    28  H    0.151215
    29  H    0.144723
    30  H    0.152855
    31  H    0.150977
    32  H    0.147400
    33  H    0.164504
    34  H    0.155743
 Sum of Mulliken charges =  -0.00000

 Dipole moment (field-independent basis, Debye):
    X=             -1.0481    Y=              4.7372    Z=              1.6718  Tot=              5.1317
 Quadrupole moment (field-independent basis, Debye-Ang):
   XX=            -91.5966   YY=           -102.8929   ZZ=            -90.1276
   XY=             -9.5215   XZ=             -1.3083   YZ=             -1.8113

 Normal termination of Gaussian 16 at Thu May  6 14:17:01 2021.
