 Gaussian 16, Revision A.03,
 Gaussian 16:  EM64L-G16RevA.03 25-Dec-2016

 -------------
 #p 6-31g* mp2
 -------------

 ------------------------------------------------------
 Input file generated by CHIRIPA (05-May-2021 14:55:23)
 ------------------------------------------------------
 Symbolic Z-matrix:
 Charge =  0 Multiplicity = 1

                         Standard orientation:
 ---------------------------------------------------------------------
 Center     Atomic      Atomic             Coordinates (Angstroms)
 Number     Number       Type             X           Y           Z
 ---------------------------------------------------------------------
      1          6           0        2.786487    2.306319   -0.067816
      2          6           0        2.052899    1.120110    0.038383
      3          6           0        2.702810   -0.117589    0.054665
      4          6           0        4.093700   -0.132238   -0.037522
      5          6           0        4.852480    1.032292   -0.144358
      6          6           0        4.181477    2.258708   -0.158687
      7          1           0        2.273428    3.263411   -0.079706
      8          1           0        0.969436    1.154054    0.109107
      9          1           0        2.159498   -1.051194    0.135974
     10          1           0        5.931527    0.966503   -0.213251
     11          1           0        4.753770    3.178332   -0.241258
     12          7           0        4.792897   -1.436563   -0.021318
     13          8           0        6.019119   -1.422493   -0.103893
     14          8           0        4.101466   -2.448265    0.073650
     15          6           0       -4.387332   -0.263590   -0.196335
     16          6           0       -3.288767    0.236607    0.742251
     17          6           0       -1.883754   -0.086394    0.232936
     18          1           0       -4.283481   -1.349548   -0.326165
     19          1           0       -4.244062    0.185012   -1.189121
     20          1           0       -3.434877   -0.211730    1.733343
     21          1           0       -3.395363    1.321470    0.870014
     22          1           0       -1.713360    0.374142   -0.745570
     23          1           0       -1.753099   -1.167769    0.122665
     24          1           0       -1.113876    0.280130    0.919089
     25          6           0       -5.797537    0.051801    0.299227
     26          6           0       -6.896102   -0.448395   -0.639359
     27          6           0       -8.301115   -0.125394   -0.130043
     28          1           0       -5.940808   -0.396802    1.292014
     29          1           0       -5.901389    1.137758    0.429058
     30          1           0       -6.789506   -1.533259   -0.767121
     31          1           0       -6.749992   -0.000060   -1.630450
     32          1           0       -8.431770    0.955980   -0.019773
     33          1           0       -8.471509   -0.585931    0.848463
     34          1           0       -9.070994   -0.491919   -0.816197
 ---------------------------------------------------------------------

 SCF Done:  E(RHF) =  -669.535599557     A.U. after   15 cycles
 E2 =    -0.2090816084D+01 EUMP2 =    -0.67162641564078D+03

 The electronic state is 1-A.
 Alpha  occ. eigenvalues --  -20.60696 -20.60691 -15.85748 -11.31096 -11.27670
 Alpha  occ. eigenvalues --  -11.27642 -11.27400 -11.26687 -11.26604 -11.22359
 Alpha  occ. eigenvalues --  -11.22137 -11.21954 -11.21941 -11.21807 -11.21358
 Alpha  occ. eigenvalues --   -1.59772  -1.39326  -1.19264  -1.08972  -1.08665
 Alpha  occ. eigenvalues --   -1.04663  -1.04120  -0.96596  -0.95503  -0.87630
 Alpha  occ. eigenvalues --   -0.86060  -0.82334  -0.80193  -0.78744  -0.77381
 Alpha  occ. eigenvalues --   -0.71967  -0.71095  -0.70379  -0.65597  -0.64915
 Alpha  occ. eigenvalues --   -0.64689  -0.62057  -0.61502  -0.59973  -0.58177
 Alpha  occ. eigenvalues --   -0.55872  -0.55175  -0.53439  -0.53037  -0.52982
 Alpha  occ. eigenvalues --   -0.52603  -0.50515  -0.48724  -0.48723  -0.48499
 Alpha  occ. eigenvalues --   -0.47195  -0.46297  -0.46193  -0.44735  -0.44362
 Alpha  occ. eigenvalues --   -0.37252  -0.36264
 Alpha virt. eigenvalues --    0.05143   0.11371   0.16620   0.20476   0.22486
 Alpha virt. eigenvalues --    0.23774   0.25865   0.26140   0.27008   0.28337
 Alpha virt. eigenvalues --    0.28780   0.30120   0.30838   0.31436   0.32250

 Mulliken charges:
               1
     1  C   -0.172201
     2  C   -0.226338
     3  C   -0.173332
     4  C    0.158669
     5  C   -0.171373
     6  C   -0.218403
     7  H    0.225476
     8  H    0.234654
     9  H    0.275694
    10  H    0.275228
    11  H    0.222890
    12  N    0.488112
    13  O   -0.460838
    14  O   -0.460556
    15  C   -0.299463
    16  C   -0.298657
    17  C   -0.484418
    18  H    0.152127
    19  H    0.149961
    20  H    0.155588
    21  H    0.151860
    22  H    0.155117
    23  H    0.161825
    24  H    0.154931
    25  C   -0.298822
    26  C   -0.300115
    27  C   -0.476007
    28  H    0.150813
    29  H    0.149608
    30  H    0.153195
    31  H    0.152204
    32  H    0.155184
    33  H    0.155892
    34  H    0.161497
 Sum of Mulliken charges =  -0.00000

 Dipole moment (field-independent basis, Debye):
    X=             -2.7201    Y=              4.5503    Z=             -0.0585  Tot=              5.3016
 Quadrupole moment (field-independent basis, Debye-Ang):
   XX=           -111.6600   YY=            -94.5906   ZZ=            -95.4441
   XY=             21.9903   XZ=             -0.3563   YZ=             -0.9050

 Normal termination of Gaussian 16 at Thu May  6 09:27:45 2021.
