 Gaussian 16, Revision A.03,
 Gaussian 16:  EM64L-G16RevA.03 25-Dec-2016

 -------------
 #p 6-31g* mp2
 -------------

 ------------------------------------------------------
 Input file generated by CHIRIPA (05-May-2021 14:53:17)
 ------------------------------------------------------
 Symbolic Z-matrix:
 Charge =  0 Multiplicity = 1

                         Standard orientation:
 ---------------------------------------------------------------------
 Center     Atomic      Atomic             Coordinates (Angstroms)
 Number     Number       Type             X           Y           Z
 ---------------------------------------------------------------------
      1          6           0       -2.907250    1.291603   -0.321122
      2          6           0       -1.430444    1.682658   -0.385209
      3          6           0       -1.224825    3.171953   -0.663623
      4          1           0       -3.392333    1.559117   -1.269845
      5          1           0       -3.402511    1.883576    0.460977
      6          1           0       -0.937814    1.089133   -1.166016
      7          1           0       -0.948777    1.414006    0.563706
      8          1           0       -1.690517    3.778252    0.120043
      9          1           0       -1.679492    3.451533   -1.619506
     10          1           0       -0.161926    3.429581   -0.705273
     11          6           0       -3.129020   -0.194149   -0.043476
     12          6           0       -4.605826   -0.585204    0.020611
     13          6           0       -4.811445   -2.074499    0.299024
     14          1           0       -2.633759   -0.786122   -0.825576
     15          1           0       -2.643937   -0.461664    0.905247
     16          1           0       -5.087493   -0.316553   -0.928304
     17          1           0       -5.098456    0.008321    0.801418
     18          1           0       -4.356778   -2.354079    1.254908
     19          1           0       -4.345753   -2.680799   -0.484642
     20          1           0       -5.874344   -2.332128    0.340675
     21          6           0        1.937675   -2.875666   -0.306623
     22          6           0        1.057605   -2.151575    0.504357
     23          6           0        1.280579   -0.795295    0.759968
     24          6           0        2.398546   -0.192128    0.185833
     25          6           0        3.293656   -0.886603   -0.626431
     26          6           0        3.050929   -2.241987   -0.868439
     27          1           0        1.756791   -3.928909   -0.499904
     28          1           0        0.192223   -2.641092    0.942000
     29          1           0        0.615382   -0.210943    1.384038
     30          1           0        4.147731   -0.371160   -1.048678
     31          1           0        3.736093   -2.801831   -1.498651
     32          7           0        2.645054    1.243229    0.449236
     33          8           0        3.637228    1.751431   -0.068412
     34          8           0        1.841425    1.832883    1.168351
 ---------------------------------------------------------------------

 SCF Done:  E(RHF) =  -669.535566926     A.U. after   15 cycles
 E2 =    -0.2093268158D+01 EUMP2 =    -0.67162883508393D+03

 The electronic state is 1-A.
 Alpha  occ. eigenvalues --  -20.60897 -20.60877 -15.85910 -11.31197 -11.27774
 Alpha  occ. eigenvalues --  -11.27749 -11.27506 -11.26770 -11.26745 -11.21823
 Alpha  occ. eigenvalues --  -11.21623 -11.21419 -11.21261 -11.21168 -11.20315
 Alpha  occ. eigenvalues --   -1.59945  -1.39503  -1.19372  -1.08781  -1.08433
 Alpha  occ. eigenvalues --   -1.04765  -1.03410  -0.95868  -0.95625  -0.86884
 Alpha  occ. eigenvalues --   -0.86168  -0.82465  -0.79545  -0.78292  -0.77469
 Alpha  occ. eigenvalues --   -0.72140  -0.71254  -0.70492  -0.65101  -0.65022
 Alpha  occ. eigenvalues --   -0.64754  -0.62137  -0.60793  -0.59271  -0.57445
 Alpha  occ. eigenvalues --   -0.55282  -0.55173  -0.53108  -0.52879  -0.52493
 Alpha  occ. eigenvalues --   -0.52282  -0.49833  -0.48945  -0.48886  -0.47801
 Alpha  occ. eigenvalues --   -0.46593  -0.45783  -0.45667  -0.44806  -0.43670
 Alpha  occ. eigenvalues --   -0.37347  -0.36336
 Alpha virt. eigenvalues --    0.04978   0.11257   0.16440   0.20489   0.22973
 Alpha virt. eigenvalues --    0.24336   0.25116   0.26881   0.27877   0.28066
 Alpha virt. eigenvalues --    0.29874   0.29971   0.31486   0.31679   0.32542

 Mulliken charges:
               1
     1  C   -0.298043
     2  C   -0.306207
     3  C   -0.476033
     4  H    0.149653
     5  H    0.150692
     6  H    0.146938
     7  H    0.159369
     8  H    0.154774
     9  H    0.149418
    10  H    0.174868
    11  C   -0.297609
    12  C   -0.299166
    13  C   -0.475661
    14  H    0.147857
    15  H    0.140270
    16  H    0.153797
    17  H    0.153794
    18  H    0.151976
    19  H    0.152987
    20  H    0.161955
    21  C   -0.170639
    22  C   -0.220447
    23  C   -0.166250
    24  C    0.156780
    25  C   -0.170851
    26  C   -0.218932
    27  H    0.225723
    28  H    0.224714
    29  H    0.277332
    30  H    0.275416
    31  H    0.223350
    32  N    0.488492
    33  O   -0.459506
    34  O   -0.460812
 Sum of Mulliken charges =  -0.00000

 Dipole moment (field-independent basis, Debye):
    X=             -0.7593    Y=             -4.9331    Z=             -0.9138  Tot=              5.0742
 Quadrupole moment (field-independent basis, Debye-Ang):
   XX=            -95.9896   YY=            -94.2136   ZZ=            -93.2280
   XY=            -12.5910   XZ=             -5.1055   YZ=             -0.0856

 Normal termination of Gaussian 16 at Thu May  6 04:23:36 2021.
