 Gaussian 16, Revision A.03,
 Gaussian 16:  EM64L-G16RevA.03 25-Dec-2016

 -------------
 #p 6-31g* mp2
 -------------

 ------------------------------------------------------
 Input file generated by CHIRIPA (05-May-2021 14:53:15)
 ------------------------------------------------------
 Symbolic Z-matrix:
 Charge =  0 Multiplicity = 1

                         Standard orientation:
 ---------------------------------------------------------------------
 Center     Atomic      Atomic             Coordinates (Angstroms)
 Number     Number       Type             X           Y           Z
 ---------------------------------------------------------------------
      1          6           0       -3.371012   -0.489372   -0.457786
      2          6           0       -3.558282   -1.535986    0.641083
      3          6           0       -4.273098   -2.793072    0.144529
      4          1           0       -4.353459   -0.216793   -0.866986
      5          1           0       -2.800451   -0.934232   -1.284801
      6          1           0       -4.127129   -1.088866    1.466379
      7          1           0       -2.575291   -1.805964    1.047847
      8          1           0       -3.705523   -3.264990   -0.664021
      9          1           0       -5.266178   -2.543818   -0.243111
     10          1           0       -4.396445   -3.527896    0.946201
     11          6           0       -2.657902    0.773104    0.023211
     12          6           0       -2.470633    1.819718   -1.075658
     13          6           0       -1.755817    3.076804   -0.579104
     14          1           0       -3.228464    1.217964    0.850226
     15          1           0       -1.675456    0.500525    0.432411
     16          1           0       -3.453624    2.089696   -1.482422
     17          1           0       -1.901786    1.372598   -1.900954
     18          1           0       -0.762736    2.827550   -0.191464
     19          1           0       -2.323392    3.548723    0.229446
     20          1           0       -1.632470    3.811629   -1.380776
     21          6           0        1.530639    2.044091    1.190824
     22          6           0        2.097097    2.047201   -0.088096
     23          6           0        2.557234    0.859144   -0.663721
     24          6           0        2.434746   -0.319163    0.071042
     25          6           0        1.875070   -0.354704    1.347283
     26          6           0        1.421625    0.845262    1.903177
     27          1           0        1.175792    2.971628    1.630319
     28          1           0        2.183041    2.976737   -0.643633
     29          1           0        2.999914    0.832925   -1.652034
     30          1           0        1.802920   -1.297017    1.876678
     31          1           0        0.982142    0.839846    2.896590
     32          7           0        2.918329   -1.583209   -0.527901
     33          8           0        2.798999   -2.608040    0.140021
     34          8           0        3.407537   -1.525203   -1.653933
 ---------------------------------------------------------------------

 SCF Done:  E(RHF) =  -669.535059652     A.U. after   15 cycles
 E2 =    -0.2093325936D+01 EUMP2 =    -0.67162838558767D+03

 The electronic state is 1-A.
 Alpha  occ. eigenvalues --  -20.60865 -20.60860 -15.85921 -11.31318 -11.27908
 Alpha  occ. eigenvalues --  -11.27883 -11.27624 -11.26916 -11.26889 -11.21907
 Alpha  occ. eigenvalues --  -11.21721 -11.21604 -11.21501 -11.21494 -11.21087
 Alpha  occ. eigenvalues --   -1.59941  -1.39493  -1.19508  -1.08904  -1.08622
 Alpha  occ. eigenvalues --   -1.04908  -1.03748  -0.96216  -0.95716  -0.87238
 Alpha  occ. eigenvalues --   -0.86297  -0.82544  -0.79828  -0.78440  -0.77583
 Alpha  occ. eigenvalues --   -0.72138  -0.71266  -0.70610  -0.65272  -0.65148
 Alpha  occ. eigenvalues --   -0.64892  -0.62246  -0.61158  -0.59585  -0.57828
 Alpha  occ. eigenvalues --   -0.55576  -0.55358  -0.53297  -0.52989  -0.52905
 Alpha  occ. eigenvalues --   -0.52605  -0.50148  -0.48898  -0.48890  -0.48137
 Alpha  occ. eigenvalues --   -0.46843  -0.45980  -0.45884  -0.44892  -0.43995
 Alpha  occ. eigenvalues --   -0.37382  -0.36493
 Alpha virt. eigenvalues --    0.04918   0.11060   0.16358   0.21051   0.22761
 Alpha virt. eigenvalues --    0.24200   0.26438   0.26833   0.27184   0.27706
 Alpha virt. eigenvalues --    0.28731   0.30815   0.31319   0.31710   0.31991

 Mulliken charges:
               1
     1  C   -0.298668
     2  C   -0.299505
     3  C   -0.476011
     4  H    0.149719
     5  H    0.152400
     6  H    0.150023
     7  H    0.151284
     8  H    0.158180
     9  H    0.154878
    10  H    0.160620
    11  C   -0.302052
    12  C   -0.297365
    13  C   -0.484826
    14  H    0.146522
    15  H    0.152020
    16  H    0.152803
    17  H    0.153768
    18  H    0.157222
    19  H    0.152491
    20  H    0.158480
    21  C   -0.172174
    22  C   -0.217211
    23  C   -0.171141
    24  C    0.158514
    25  C   -0.171963
    26  C   -0.218253
    27  H    0.228953
    28  H    0.225697
    29  H    0.276279
    30  H    0.276319
    31  H    0.225099
    32  N    0.488035
    33  O   -0.460128
    34  O   -0.460008
 Sum of Mulliken charges =  -0.00000

 Dipole moment (field-independent basis, Debye):
    X=             -1.5967    Y=              4.3691    Z=              2.1128  Tot=              5.1091
 Quadrupole moment (field-independent basis, Debye-Ang):
   XX=           -102.9134   YY=            -97.8483   ZZ=            -91.1927
   XY=             11.7992   XZ=              3.5489   YZ=             -2.6635

 Normal termination of Gaussian 16 at Thu May  6 20:25:59 2021.
