 Gaussian 16, Revision A.03,
 Gaussian 16:  EM64L-G16RevA.03 25-Dec-2016

 -------------
 #p 6-31g* mp2
 -------------

 ------------------------------------------------------
 Input file generated by CHIRIPA (05-May-2021 14:55:25)
 ------------------------------------------------------
 Symbolic Z-matrix:
 Charge =  0 Multiplicity = 1

                         Standard orientation:
 ---------------------------------------------------------------------
 Center     Atomic      Atomic             Coordinates (Angstroms)
 Number     Number       Type             X           Y           Z
 ---------------------------------------------------------------------
      1          6           0       -2.161864    2.111756   -0.916680
      2          6           0       -3.410303    1.755586   -1.437318
      3          6           0       -4.035315    0.571203   -1.035889
      4          6           0       -3.380483   -0.237110   -0.107926
      5          6           0       -2.136381    0.090386    0.428960
      6          6           0       -1.530001    1.279487    0.013158
      7          1           0       -1.683577    3.033646   -1.234103
      8          1           0       -3.903355    2.400004   -2.159586
      9          1           0       -5.001592    0.271321   -1.422925
     10          1           0       -1.669531   -0.572368    1.147448
     11          1           0       -0.560424    1.553563    0.419172
     12          7           0       -4.032293   -1.493460    0.324657
     13          8           0       -3.434576   -2.188390    1.143464
     14          8           0       -5.128555   -1.759469   -0.163282
     15          6           0        3.911830    0.661494    0.573138
     16          6           0        2.516340    0.457079    1.163740
     17          6           0        1.974340    1.712377    1.848032
     18          1           0        4.599400    0.971199    1.372059
     19          1           0        3.879069    1.488856   -0.149216
     20          1           0        2.551425   -0.370556    1.883743
     21          1           0        1.832054    0.147640    0.363355
     22          1           0        1.910587    2.541967    1.136471
     23          1           0        2.634045    2.020826    2.665498
     24          1           0        0.975742    1.543938    2.263109
     25          6           0        4.467197   -0.584572   -0.114333
     26          6           0        5.862686   -0.380157   -0.704935
     27          6           0        6.404686   -1.635454   -1.389228
     28          1           0        4.499957   -1.411933    0.608021
     29          1           0        3.779626   -0.894276   -0.913254
     30          1           0        6.546971   -0.070718    0.095449
     31          1           0        5.827602    0.447479   -1.424939
     32          1           0        5.744982   -1.943903   -2.206693
     33          1           0        6.468439   -2.465043   -0.677667
     34          1           0        7.403285   -1.467015   -1.804304
 ---------------------------------------------------------------------

 SCF Done:  E(RHF) =  -669.535367846     A.U. after   15 cycles
 E2 =    -0.2091495770D+01 EUMP2 =    -0.67162686361603D+03

 The electronic state is 1-A.
 Alpha  occ. eigenvalues --  -20.60721 -20.60716 -15.85773 -11.31129 -11.27701
 Alpha  occ. eigenvalues --  -11.27681 -11.27428 -11.26717 -11.26623 -11.22502
 Alpha  occ. eigenvalues --  -11.22217 -11.22062 -11.21992 -11.21849 -11.21360
 Alpha  occ. eigenvalues --   -1.59797  -1.39350  -1.19296  -1.09064  -1.08693
 Alpha  occ. eigenvalues --   -1.04702  -1.04203  -0.96667  -0.95532  -0.87683
 Alpha  occ. eigenvalues --   -0.86091  -0.82364  -0.80274  -0.78820  -0.77416
 Alpha  occ. eigenvalues --   -0.71992  -0.71120  -0.70410  -0.65732  -0.64947
 Alpha  occ. eigenvalues --   -0.64721  -0.62191  -0.61506  -0.60024  -0.58242
 Alpha  occ. eigenvalues --   -0.55959  -0.55184  -0.53434  -0.53116  -0.53024
 Alpha  occ. eigenvalues --   -0.52635  -0.50586  -0.48748  -0.48746  -0.48583
 Alpha  occ. eigenvalues --   -0.47304  -0.46370  -0.46264  -0.44758  -0.44434
 Alpha  occ. eigenvalues --   -0.37280  -0.36296
 Alpha virt. eigenvalues --    0.05107   0.11332   0.16553   0.19752   0.22671
 Alpha virt. eigenvalues --    0.23806   0.25976   0.26349   0.26774   0.28081
 Alpha virt. eigenvalues --    0.29291   0.30599   0.30929   0.31241   0.31735

 Mulliken charges:
               1
     1  C   -0.173465
     2  C   -0.218362
     3  C   -0.171352
     4  C    0.158866
     5  C   -0.175024
     6  C   -0.228583
     7  H    0.225653
     8  H    0.223047
     9  H    0.275353
    10  H    0.275523
    11  H    0.241351
    12  N    0.488120
    13  O   -0.460493
    14  O   -0.460743
    15  C   -0.298085
    16  C   -0.304579
    17  C   -0.484965
    18  H    0.152118
    19  H    0.148794
    20  H    0.157901
    21  H    0.150164
    22  H    0.151817
    23  H    0.165446
    24  H    0.156211
    25  C   -0.299216
    26  C   -0.300142
    27  C   -0.476135
    28  H    0.151927
    29  H    0.150765
    30  H    0.152678
    31  H    0.151603
    32  H    0.155970
    33  H    0.156535
    34  H    0.161300
 Sum of Mulliken charges =  -0.00000

 Dipole moment (field-independent basis, Debye):
    X=              2.5348    Y=              4.3925    Z=             -1.4919  Tot=              5.2864
 Quadrupole moment (field-independent basis, Debye-Ang):
   XX=           -106.9330   YY=            -97.9470   ZZ=            -92.5159
   XY=            -16.2947   XZ=              8.4876   YZ=             -1.5275

 Normal termination of Gaussian 16 at Thu May  6 00:03:20 2021.
