 Gaussian 16, Revision A.03,
 Gaussian 16:  EM64L-G16RevA.03 25-Dec-2016

 -------------
 #p 6-31g* mp2
 -------------

 ------------------------------------------------------
 Input file generated by CHIRIPA (05-May-2021 14:55:21)
 ------------------------------------------------------
 Symbolic Z-matrix:
 Charge =  0 Multiplicity = 1

                         Standard orientation:
 ---------------------------------------------------------------------
 Center     Atomic      Atomic             Coordinates (Angstroms)
 Number     Number       Type             X           Y           Z
 ---------------------------------------------------------------------
      1          6           0        1.619495   -1.498403    1.698903
      2          6           0        1.214459   -1.377277    0.365563
      3          6           0        1.921252   -0.557777   -0.519542
      4          6           0        3.033379    0.129299   -0.035401
      5          6           0        3.461813    0.029289    1.287373
      6          6           0        2.739904   -0.795972    2.154749
      7          1           0        1.064570   -2.137247    2.379588
      8          1           0        0.344720   -1.921612    0.008775
      9          1           0        1.629647   -0.445766   -1.556768
     10          1           0        4.332871    0.584359    1.613829
     11          1           0        3.056762   -0.888128    3.189714
     12          7           0        3.789630    0.999916   -0.963038
     13          8           0        4.765989    1.594719   -0.511850
     14          8           0        3.391702    1.071017   -2.123742
     15          6           0       -3.598455    0.678104    0.213423
     16          6           0       -4.764188    1.661347    0.102590
     17          6           0       -4.499650    2.976899    0.835486
     18          1           0       -3.398303    0.474640    1.274312
     19          1           0       -2.691510    1.148363   -0.191179
     20          1           0       -5.668968    1.188869    0.506014
     21          1           0       -4.961714    1.862345   -0.958164
     22          1           0       -3.612747    3.473116    0.428335
     23          1           0       -4.324021    2.795813    1.900832
     24          1           0       -5.345747    3.664997    0.743291
     25          6           0       -3.847918   -0.641778   -0.514183
     26          6           0       -2.682185   -1.625021   -0.403350
     27          6           0       -2.946723   -2.940574   -1.136247
     28          1           0       -4.754863   -1.112037   -0.109581
     29          1           0       -4.048070   -0.438314   -1.575072
     30          1           0       -2.484660   -1.826020    0.657403
     31          1           0       -1.777404   -1.152542   -0.806775
     32          1           0       -3.122353   -2.759487   -2.201593
     33          1           0       -3.833626   -3.436791   -0.729095
     34          1           0       -2.100626   -3.628671   -1.044051
 ---------------------------------------------------------------------

 SCF Done:  E(RHF) =  -669.535334554     A.U. after   15 cycles
 E2 =    -0.2091457675D+01 EUMP2 =    -0.67162679222919D+03

 The electronic state is 1-A.
 Alpha  occ. eigenvalues --  -20.60736 -20.60731 -15.85788 -11.31142 -11.27705
 Alpha  occ. eigenvalues --  -11.27695 -11.27433 -11.26725 -11.26650 -11.22590
 Alpha  occ. eigenvalues --  -11.22051 -11.21972 -11.21970 -11.21863 -11.21339
 Alpha  occ. eigenvalues --   -1.59811  -1.39365  -1.19307  -1.09060  -1.08702
 Alpha  occ. eigenvalues --   -1.04710  -1.04164  -0.96580  -0.95543  -0.87595
 Alpha  occ. eigenvalues --   -0.86107  -0.82382  -0.80279  -0.78844  -0.77417
 Alpha  occ. eigenvalues --   -0.72007  -0.71134  -0.70418  -0.65696  -0.64956
 Alpha  occ. eigenvalues --   -0.64720  -0.62108  -0.61529  -0.59975  -0.58196
 Alpha  occ. eigenvalues --   -0.55841  -0.55205  -0.53305  -0.53056  -0.52983
 Alpha  occ. eigenvalues --   -0.52795  -0.50509  -0.48784  -0.48763  -0.48524
 Alpha  occ. eigenvalues --   -0.47299  -0.46367  -0.46270  -0.44774  -0.44399
 Alpha  occ. eigenvalues --   -0.37284  -0.36299
 Alpha virt. eigenvalues --    0.05094   0.11323   0.16541   0.20038   0.22554
 Alpha virt. eigenvalues --    0.23706   0.25598   0.25948   0.26920   0.28148
 Alpha virt. eigenvalues --    0.28872   0.30090   0.30738   0.31504   0.31941

 Mulliken charges:
               1
     1  C   -0.172951
     2  C   -0.222124
     3  C   -0.173962
     4  C    0.158896
     5  C   -0.171339
     6  C   -0.218324
     7  H    0.225372
     8  H    0.234097
     9  H    0.274909
    10  H    0.275360
    11  H    0.223113
    12  N    0.488088
    13  O   -0.460569
    14  O   -0.460723
    15  C   -0.299103
    16  C   -0.300287
    17  C   -0.476219
    18  H    0.148550
    19  H    0.151857
    20  H    0.152074
    21  H    0.153599
    22  H    0.157338
    23  H    0.154709
    24  H    0.161754
    25  C   -0.297950
    26  C   -0.304375
    27  C   -0.477725
    28  H    0.151510
    29  H    0.152889
    30  H    0.148310
    31  H    0.147721
    32  H    0.160129
    33  H    0.159515
    34  H    0.155862
 Sum of Mulliken charges =  -0.00000

 Dipole moment (field-independent basis, Debye):
    X=             -2.8593    Y=             -3.0183    Z=              3.2507  Tot=              5.2775
 Quadrupole moment (field-independent basis, Debye-Ang):
   XX=           -108.6691   YY=            -96.7757   ZZ=            -92.0124
   XY=             -8.7387   XZ=             12.6027   YZ=              0.7282

 Normal termination of Gaussian 16 at Wed May  5 17:27:20 2021.
