 Gaussian 16, Revision A.03,
 Gaussian 16:  EM64L-G16RevA.03 25-Dec-2016

 -------------
 #p 6-31g* mp2
 -------------

 ------------------------------------------------------
 Input file generated by CHIRIPA (05-May-2021 14:55:19)
 ------------------------------------------------------
 Symbolic Z-matrix:
 Charge =  0 Multiplicity = 1

                         Standard orientation:
 ---------------------------------------------------------------------
 Center     Atomic      Atomic             Coordinates (Angstroms)
 Number     Number       Type             X           Y           Z
 ---------------------------------------------------------------------
      1          6           0       -3.205337   -2.490107   -0.315903
      2          6           0       -4.257604   -1.763205   -0.882357
      3          6           0       -4.268476   -0.366456   -0.823026
      4          6           0       -3.206223    0.273876   -0.186721
      5          6           0       -2.143542   -0.422333    0.387117
      6          6           0       -2.153519   -1.818535    0.315913
      7          1           0       -3.204989   -3.574923   -0.366604
      8          1           0       -5.075782   -2.282096   -1.373663
      9          1           0       -5.070503    0.221012   -1.253204
     10          1           0       -1.341877    0.122963    0.870237
     11          1           0       -1.334994   -2.380464    0.756704
     12          7           0       -3.206697    1.752262   -0.117626
     13          8           0       -2.259084    2.292721    0.448564
     14          8           0       -4.154672    2.342568   -0.630967
     15          6           0        3.479984   -0.383224    0.528343
     16          6           0        2.933312    0.273569    1.796317
     17          6           0        1.685139   -0.427015    2.333943
     18          1           0        2.697574   -0.384435   -0.242876
     19          1           0        3.711892   -1.436230    0.739982
     20          1           0        2.703802    1.325386    1.582720
     21          1           0        3.717176    0.273389    2.564544
     22          1           0        1.903698   -1.472426    2.574669
     23          1           0        0.884566   -0.414453    1.587268
     24          1           0        1.311146    0.058849    3.240544
     25          6           0        4.727747    0.305861   -0.021183
     26          6           0        5.274419   -0.350933   -1.289157
     27          6           0        6.522591    0.349651   -1.826784
     28          1           0        4.495839    1.358867   -0.232822
     29          1           0        5.510157    0.307072    0.750037
     30          1           0        4.490555   -0.350754   -2.057384
     31          1           0        5.503929   -1.402749   -1.075561
     32          1           0        7.323165    0.337089   -1.080108
     33          1           0        6.304032    1.395062   -2.067510
     34          1           0        6.896585   -0.136212   -2.733384
 ---------------------------------------------------------------------

 SCF Done:  E(RHF) =  -669.535584005     A.U. after   15 cycles
 E2 =    -0.2091058111D+01 EUMP2 =    -0.67162664211574D+03

 The electronic state is 1-A.
 Alpha  occ. eigenvalues --  -20.60749 -20.60744 -15.85800 -11.31149 -11.27723
 Alpha  occ. eigenvalues --  -11.27692 -11.27463 -11.26740 -11.26712 -11.21904
 Alpha  occ. eigenvalues --  -11.21730 -11.21712 -11.21656 -11.21515 -11.21145
 Alpha  occ. eigenvalues --   -1.59824  -1.39377  -1.19323  -1.08722  -1.08659
 Alpha  occ. eigenvalues --   -1.04726  -1.03794  -0.96271  -0.95559  -0.87295
 Alpha  occ. eigenvalues --   -0.86122  -0.82392  -0.79862  -0.78459  -0.77439
 Alpha  occ. eigenvalues --   -0.72020  -0.71146  -0.70444  -0.65290  -0.64975
 Alpha  occ. eigenvalues --   -0.64726  -0.62135  -0.61153  -0.59624  -0.57861
 Alpha  occ. eigenvalues --   -0.55606  -0.55200  -0.53056  -0.52964  -0.52831
 Alpha  occ. eigenvalues --   -0.52675  -0.50210  -0.48776  -0.48774  -0.48178
 Alpha  occ. eigenvalues --   -0.46873  -0.46011  -0.45907  -0.44786  -0.44030
 Alpha  occ. eigenvalues --   -0.37307  -0.36326
 Alpha virt. eigenvalues --    0.05087   0.11323   0.16577   0.20050   0.22785
 Alpha virt. eigenvalues --    0.23864   0.25521   0.26628   0.27458   0.28004
 Alpha virt. eigenvalues --    0.29217   0.30718   0.31321   0.31588   0.32038

 Mulliken charges:
               1
     1  C   -0.170800
     2  C   -0.218827
     3  C   -0.170630
     4  C    0.160858
     5  C   -0.180261
     6  C   -0.221018
     7  H    0.225507
     8  H    0.223333
     9  H    0.275422
    10  H    0.283878
    11  H    0.224991
    12  N    0.487825
    13  O   -0.460554
    14  O   -0.460534
    15  C   -0.298909
    16  C   -0.300007
    17  C   -0.480389
    18  H    0.149161
    19  H    0.147556
    20  H    0.159286
    21  H    0.154085
    22  H    0.153778
    23  H    0.146302
    24  H    0.166408
    25  C   -0.298942
    26  C   -0.299877
    27  C   -0.475960
    28  H    0.152725
    29  H    0.150110
    30  H    0.152313
    31  H    0.150795
    32  H    0.155307
    33  H    0.156721
    34  H    0.160346
 Sum of Mulliken charges =  -0.00000

 Dipole moment (field-independent basis, Debye):
    X=              0.1336    Y=             -5.1419    Z=             -0.2156  Tot=              5.1481
 Quadrupole moment (field-independent basis, Debye-Ang):
   XX=            -91.2485   YY=            -98.0264   ZZ=            -93.9061
   XY=             16.3391   XZ=              4.2345   YZ=              0.8090

 Normal termination of Gaussian 16 at Thu May  6 02:54:11 2021.
