 Gaussian 16, Revision A.03,
 Gaussian 16:  EM64L-G16RevA.03 25-Dec-2016

 -------------
 #p 6-31g* mp2
 -------------

 ------------------------------------------------------
 Input file generated by CHIRIPA (05-May-2021 14:51:14)
 ------------------------------------------------------
 Symbolic Z-matrix:
 Charge =  0 Multiplicity = 1

                         Standard orientation:
 ---------------------------------------------------------------------
 Center     Atomic      Atomic             Coordinates (Angstroms)
 Number     Number       Type             X           Y           Z
 ---------------------------------------------------------------------
      1          6           0       -2.139695   -0.899573    0.745503
      2          6           0       -1.130205   -2.035053    0.573456
      3          6           0       -0.311794   -2.295179    1.838498
      4          1           0       -1.605998    0.016493    1.033487
      5          1           0       -2.815609   -1.142101    1.577197
      6          1           0       -0.457264   -1.791090   -0.258559
      7          1           0       -1.666347   -2.948476    0.285661
      8          1           0       -0.967510   -2.563500    2.673148
      9          1           0        0.248443   -1.399539    2.125836
     10          1           0        0.403509   -3.110722    1.693268
     11          6           0       -2.965452   -0.627585   -0.510633
     12          6           0       -3.974941    0.507895   -0.338586
     13          6           0       -4.793353    0.768021   -1.603628
     14          1           0       -2.289537   -0.385057   -1.342327
     15          1           0       -3.499149   -1.543651   -0.798617
     16          1           0       -3.438799    1.421318   -0.050791
     17          1           0       -4.647883    0.263932    0.493429
     18          1           0       -5.353590   -0.127619   -1.890966
     19          1           0       -4.137637    1.036343   -2.438278
     20          1           0       -5.508656    1.583564   -1.458398
     21          6           0        2.798612    0.040650   -0.100978
     22          6           0        3.767679   -0.296020   -1.234798
     23          6           0        4.251057   -1.745843   -1.188371
     24          1           0        3.289975   -0.152866    0.862380
     25          1           0        1.934913   -0.636638   -0.152950
     26          1           0        4.628634    0.382609   -1.181535
     27          1           0        3.274018   -0.101499   -2.195566
     28          1           0        3.405096   -2.436601   -1.264549
     29          1           0        4.767407   -1.949743   -0.244756
     30          1           0        4.942736   -1.964859   -2.007805
     31          6           0        2.306535    1.486508   -0.133891
     32          6           0        1.337468    1.823178    0.999928
     33          6           0        0.854089    3.273000    0.953501
     34          1           0        3.170233    2.163795   -0.081920
     35          1           0        1.815171    1.680023   -1.097250
     36          1           0        1.831128    1.628656    1.960696
     37          1           0        0.476513    1.144549    0.946665
     38          1           0        0.337739    3.476900    0.009886
     39          1           0        1.700050    3.963758    1.029680
     40          1           0        0.162411    3.492017    1.772936
 ---------------------------------------------------------------------

 SCF Done:  E(RHF) =  -470.732986688     A.U. after   11 cycles
 E2 =    -0.1584465903D+01 EUMP2 =    -0.47231745259099D+03

 The electronic state is 1-A.
 Alpha  occ. eigenvalues --  -11.21662 -11.21639 -11.21625 -11.21625 -11.21444
 Alpha  occ. eigenvalues --  -11.21436 -11.21375 -11.21375 -11.21139 -11.21092
 Alpha  occ. eigenvalues --  -11.21084 -11.21033  -1.08510  -1.08432  -1.03581
 Alpha  occ. eigenvalues --   -1.03546  -0.96034  -0.95981  -0.87041  -0.87005
 Alpha  occ. eigenvalues --   -0.79686  -0.79579  -0.78340  -0.78236  -0.65388
 Alpha  occ. eigenvalues --   -0.64856  -0.61029  -0.60906  -0.59431  -0.59320
 Alpha  occ. eigenvalues --   -0.57638  -0.57605  -0.55405  -0.55191  -0.52715
 Alpha  occ. eigenvalues --   -0.52685  -0.52445  -0.52415  -0.50015  -0.49901
 Alpha  occ. eigenvalues --   -0.48059  -0.47904  -0.46892  -0.46532  -0.46078
 Alpha  occ. eigenvalues --   -0.45795  -0.45684  -0.45336  -0.43825  -0.43804
 Alpha virt. eigenvalues --    0.19562   0.23004   0.23813   0.24092   0.26041
 Alpha virt. eigenvalues --    0.26425   0.26890   0.27989   0.28144   0.29668
 Alpha virt. eigenvalues --    0.30487   0.31478   0.31799   0.31916   0.32139

 Mulliken charges:
               1
     1  C   -0.305592
     2  C   -0.302730
     3  C   -0.478680
     4  H    0.155750
     5  H    0.150270
     6  H    0.152718
     7  H    0.152531
     8  H    0.154948
     9  H    0.159325
    10  H    0.160274
    11  C   -0.297874
    12  C   -0.299844
    13  C   -0.475698
    14  H    0.148820
    15  H    0.149913
    16  H    0.152150
    17  H    0.152121
    18  H    0.155238
    19  H    0.155032
    20  H    0.160431
    21  C   -0.305503
    22  C   -0.299489
    23  C   -0.475690
    24  H    0.150011
    25  H    0.156906
    26  H    0.152072
    27  H    0.151655
    28  H    0.155130
    29  H    0.155396
    30  H    0.160312
    31  C   -0.297279
    32  C   -0.310362
    33  C   -0.475504
    34  H    0.149907
    35  H    0.149054
    36  H    0.152344
    37  H    0.160801
    38  H    0.154868
    39  H    0.155817
    40  H    0.160448
 Sum of Mulliken charges =  -0.00000

 Dipole moment (field-independent basis, Debye):
    X=              0.0058    Y=              0.0061    Z=              0.0168  Tot=              0.0188
 Quadrupole moment (field-independent basis, Debye-Ang):
   XX=            -84.2414   YY=            -85.3887   ZZ=            -85.0391
   XY=              1.3470   XZ=             -0.2594   YZ=              0.1147

 Normal termination of Gaussian 16 at Wed May  5 18:26:23 2021.
