 Gaussian 16, Revision A.03,
 Gaussian 16:  EM64L-G16RevA.03 25-Dec-2016

 -------------
 #p 6-31g* mp2
 -------------

 ------------------------------------------------------
 Input file generated by CHIRIPA (05-May-2021 14:51:09)
 ------------------------------------------------------
 Symbolic Z-matrix:
 Charge =  0 Multiplicity = 1

                         Standard orientation:
 ---------------------------------------------------------------------
 Center     Atomic      Atomic             Coordinates (Angstroms)
 Number     Number       Type             X           Y           Z
 ---------------------------------------------------------------------
      1          6           0       -2.891977    0.589847   -0.194803
      2          6           0       -2.290158    1.883128    0.355853
      3          6           0       -3.350451    2.853053    0.878173
      4          1           0       -3.596008    0.835032   -1.001754
      5          1           0       -3.479542    0.101667    0.595034
      6          1           0       -1.702767    2.368020   -0.434380
      7          1           0       -1.587334    1.634824    1.161458
      8          1           0       -3.930279    2.392288    1.684459
      9          1           0       -4.046368    3.129650    0.079553
     10          1           0       -2.898308    3.770749    1.267096
     11          6           0       -1.844502   -0.389917   -0.720717
     12          6           0       -2.446321   -1.683198   -1.271373
     13          6           0       -1.386028   -2.653123   -1.793693
     14          1           0       -1.256937    0.098263   -1.510554
     15          1           0       -1.140471   -0.635101    0.086234
     16          1           0       -3.149145   -1.434894   -2.076978
     17          1           0       -3.033712   -2.168090   -0.481140
     18          1           0       -0.690111   -2.929720   -0.995073
     19          1           0       -0.806200   -2.192358   -2.599978
     20          1           0       -1.838172   -3.570818   -2.182616
     21          6           0        3.028757    0.229334    0.261011
     22          6           0        2.958274    0.983661   -1.067149
     23          6           0        4.287378    1.636998   -1.447186
     24          1           0        3.337432    0.924122    1.054063
     25          1           0        3.811229   -0.539454    0.196985
     26          1           0        2.175226    1.749878   -1.001108
     27          1           0        2.649545    0.287038   -1.857098
     28          1           0        5.074882    0.882200   -1.540553
     29          1           0        4.597867    2.353350   -0.679699
     30          1           0        4.214417    2.170804   -2.399860
     31          6           0        1.707722   -0.429264    0.654509
     32          6           0        1.778205   -1.183591    1.982669
     33          6           0        0.449101   -1.836928    2.362706
     34          1           0        0.925250    0.339523    0.718534
     35          1           0        1.399047   -1.124053   -0.138544
     36          1           0        2.086934   -0.486969    2.772618
     37          1           0        2.561253   -1.949810    1.916628
     38          1           0        0.138612   -2.553281    1.595219
     39          1           0       -0.338402   -1.082129    2.456073
     40          1           0        0.522062   -2.370734    3.315380
 ---------------------------------------------------------------------

 SCF Done:  E(RHF) =  -470.731474452     A.U. after   11 cycles
 E2 =    -0.1585915461D+01 EUMP2 =    -0.47231738991302D+03

 The electronic state is 1-A.
 Alpha  occ. eigenvalues --  -11.21648 -11.21635 -11.21586 -11.21524 -11.21367
 Alpha  occ. eigenvalues --  -11.21322 -11.21292 -11.21196 -11.21128 -11.21090
 Alpha  occ. eigenvalues --  -11.21074 -11.21062  -1.08491  -1.08322  -1.03583
 Alpha  occ. eigenvalues --   -1.03497  -0.96015  -0.95950  -0.87038  -0.86970
 Alpha  occ. eigenvalues --   -0.79717  -0.79539  -0.78627  -0.77793  -0.65115
 Alpha  occ. eigenvalues --   -0.64982  -0.61053  -0.60847  -0.59433  -0.59272
 Alpha  occ. eigenvalues --   -0.57650  -0.57547  -0.55359  -0.55190  -0.52728
 Alpha  occ. eigenvalues --   -0.52662  -0.52489  -0.52350  -0.49998  -0.49874
 Alpha  occ. eigenvalues --   -0.48199  -0.47840  -0.46752  -0.46619  -0.46441
 Alpha  occ. eigenvalues --   -0.45682  -0.45615  -0.44658  -0.43796  -0.43725
 Alpha virt. eigenvalues --    0.20218   0.21942   0.23068   0.24051   0.25514
 Alpha virt. eigenvalues --    0.26267   0.26728   0.28163   0.28626   0.29656
 Alpha virt. eigenvalues --    0.30863   0.31159   0.31567   0.31799   0.32444

 Mulliken charges:
               1
     1  C   -0.297675
     2  C   -0.302175
     3  C   -0.475551
     4  H    0.149148
     5  H    0.148879
     6  H    0.151985
     7  H    0.151871
     8  H    0.155300
     9  H    0.155617
    10  H    0.159988
    11  C   -0.309790
    12  C   -0.298597
    13  C   -0.479669
    14  H    0.148291
    15  H    0.167223
    16  H    0.151276
    17  H    0.151511
    18  H    0.157093
    19  H    0.154999
    20  H    0.160274
    21  C   -0.297299
    22  C   -0.299797
    23  C   -0.475694
    24  H    0.149279
    25  H    0.149197
    26  H    0.152149
    27  H    0.151905
    28  H    0.155191
    29  H    0.155152
    30  H    0.160088
    31  C   -0.307992
    32  C   -0.298355
    33  C   -0.482443
    34  H    0.155526
    35  H    0.153968
    36  H    0.151934
    37  H    0.152085
    38  H    0.157766
    39  H    0.155676
    40  H    0.161667
 Sum of Mulliken charges =  -0.00000

 Dipole moment (field-independent basis, Debye):
    X=              0.0274    Y=             -0.0074    Z=              0.0238  Tot=              0.0370
 Quadrupole moment (field-independent basis, Debye-Ang):
   XX=            -86.0828   YY=            -84.8645   ZZ=            -84.0656
   XY=             -0.2467   XZ=              0.5187   YZ=             -0.1397

 Normal termination of Gaussian 16 at Wed May  5 16:38:10 2021.
