 Gaussian 16, Revision A.03,
 Gaussian 16:  EM64L-G16RevA.03 25-Dec-2016

 -------------
 #p 6-31g* mp2
 -------------

 ------------------------------------------------------
 Input file generated by CHIRIPA (05-May-2021 14:55:21)
 ------------------------------------------------------
 Symbolic Z-matrix:
 Charge =  0 Multiplicity = 1

                         Standard orientation:
 ---------------------------------------------------------------------
 Center     Atomic      Atomic             Coordinates (Angstroms)
 Number     Number       Type             X           Y           Z
 ---------------------------------------------------------------------
      1          6           0       -1.304645    1.213379    0.663125
      2          6           0       -1.535435    0.808332   -0.655660
      3          6           0       -2.695384    0.102676   -0.989001
      4          6           0       -3.607381   -0.182276    0.026063
      5          6           0       -3.405876    0.207650    1.349182
      6          6           0       -2.238955    0.912276    1.659580
      7          1           0       -0.400861    1.761150    0.913161
      8          1           0       -0.811583    1.040781   -1.431580
      9          1           0       -2.899144   -0.222927   -2.001859
     10          1           0       -4.145846   -0.038728    2.100953
     11          1           0       -2.062351    1.225581    2.684615
     12          7           0       -4.839057   -0.928777   -0.314686
     13          8           0       -5.626993   -1.167441    0.597910
     14          8           0       -4.993186   -1.261085   -1.487909
     15          6           0        4.012663    0.701854    0.164082
     16          6           0        3.241964    1.477007   -0.905098
     17          6           0        2.557345    2.726798   -0.350921
     18          1           0        3.322698    0.416821    0.970091
     19          1           0        4.764864    1.363285    0.615852
     20          1           0        2.492371    0.813907   -1.355679
     21          1           0        3.933804    1.760062   -1.708749
     22          1           0        3.295064    3.410490    0.081440
     23          1           0        1.845440    2.458959    0.436515
     24          1           0        2.012237    3.265738   -1.132113
     25          6           0        4.702564   -0.550191   -0.374571
     26          6           0        5.473262   -1.325345    0.694609
     27          6           0        6.157882   -2.575135    0.140431
     28          1           0        3.950363   -1.211623   -0.826341
     29          1           0        5.392528   -0.265158   -1.180581
     30          1           0        4.781423   -1.608399    1.498260
     31          1           0        6.222856   -0.662244    1.145190
     32          1           0        6.869787   -2.307297   -0.647004
     33          1           0        5.420163   -3.258828   -0.291929
     34          1           0        6.702989   -3.114075    0.921624
 ---------------------------------------------------------------------

 SCF Done:  E(RHF) =  -669.535516940     A.U. after   15 cycles
 E2 =    -0.2091085209D+01 EUMP2 =    -0.67162660214865D+03

 The electronic state is 1-A.
 Alpha  occ. eigenvalues --  -20.60743 -20.60738 -15.85797 -11.31158 -11.27729
 Alpha  occ. eigenvalues --  -11.27726 -11.27441 -11.26738 -11.26727 -11.22650
 Alpha  occ. eigenvalues --  -11.22372 -11.22225 -11.22128 -11.22013 -11.21485
 Alpha  occ. eigenvalues --   -1.59819  -1.39373  -1.19329  -1.09214  -1.08722
 Alpha  occ. eigenvalues --   -1.04733  -1.04339  -0.96797  -0.95559  -0.87813
 Alpha  occ. eigenvalues --   -0.86128  -0.82395  -0.80414  -0.78976  -0.77442
 Alpha  occ. eigenvalues --   -0.72015  -0.71142  -0.70459  -0.65851  -0.64979
 Alpha  occ. eigenvalues --   -0.64735  -0.62092  -0.61731  -0.60187  -0.58387
 Alpha  occ. eigenvalues --   -0.56187  -0.55169  -0.53492  -0.53200  -0.53062
 Alpha  occ. eigenvalues --   -0.52822  -0.50730  -0.48778  -0.48770  -0.48714
 Alpha  occ. eigenvalues --   -0.47443  -0.46528  -0.46422  -0.44779  -0.44567
 Alpha  occ. eigenvalues --   -0.37306  -0.36341
 Alpha virt. eigenvalues --    0.05092   0.11301   0.16577   0.18812   0.22637
 Alpha virt. eigenvalues --    0.23907   0.24936   0.25689   0.26765   0.27706
 Alpha virt. eigenvalues --    0.28935   0.29753   0.30940   0.31478   0.31969

 Mulliken charges:
               1
     1  C   -0.175958
     2  C   -0.223100
     3  C   -0.170879
     4  C    0.158333
     5  C   -0.170729
     6  C   -0.220236
     7  H    0.234643
     8  H    0.225071
     9  H    0.275522
    10  H    0.275442
    11  H    0.223801
    12  N    0.488008
    13  O   -0.460511
    14  O   -0.460548
    15  C   -0.298321
    16  C   -0.300600
    17  C   -0.481121
    18  H    0.147864
    19  H    0.151809
    20  H    0.148705
    21  H    0.157001
    22  H    0.162388
    23  H    0.146627
    24  H    0.161407
    25  C   -0.299002
    26  C   -0.300217
    27  C   -0.476210
    28  H    0.150537
    29  H    0.151239
    30  H    0.152312
    31  H    0.152599
    32  H    0.155942
    33  H    0.156294
    34  H    0.161889
 Sum of Mulliken charges =  -0.00000

 Dipole moment (field-independent basis, Debye):
    X=              4.5837    Y=              2.6195    Z=              1.1779  Tot=              5.4092
 Quadrupole moment (field-independent basis, Debye-Ang):
   XX=           -124.9979   YY=            -96.9258   ZZ=            -90.1738
   XY=             -9.3519   XZ=             -5.9866   YZ=             -0.3002

 Normal termination of Gaussian 16 at Thu May  6 04:35:43 2021.
