 Gaussian 16, Revision A.03,
 Gaussian 16:  EM64L-G16RevA.03 25-Dec-2016

 -------------
 #p 6-31g* mp2
 -------------

 ------------------------------------------------------
 Input file generated by CHIRIPA (05-May-2021 14:55:22)
 ------------------------------------------------------
 Symbolic Z-matrix:
 Charge =  0 Multiplicity = 1

                         Standard orientation:
 ---------------------------------------------------------------------
 Center     Atomic      Atomic             Coordinates (Angstroms)
 Number     Number       Type             X           Y           Z
 ---------------------------------------------------------------------
      1          6           0       -0.716040    0.562545    1.529205
      2          6           0       -1.834591    1.402176    1.548793
      3          6           0       -2.985081    1.069143    0.827677
      4          6           0       -2.982463   -0.116450    0.094430
      5          6           0       -1.883902   -0.973711    0.054976
      6          6           0       -0.744216   -0.620633    0.783674
      7          1           0        0.173492    0.829038    2.092330
      8          1           0       -1.815547    2.321673    2.126900
      9          1           0       -3.865037    1.700879    0.825250
     10          1           0       -1.932795   -1.883720   -0.530610
     11          1           0        0.122997   -1.274618    0.766618
     12          7           0       -4.194717   -0.479628   -0.672996
     13          8           0       -4.167158   -1.529701   -1.311136
     14          8           0       -5.149486    0.292665   -0.621834
     15          6           0        3.999585   -0.489530   -0.007122
     16          6           0        3.376268   -1.876785   -0.165187
     17          6           0        4.263934   -2.990573    0.390981
     18          1           0        4.973611   -0.472153   -0.514976
     19          1           0        4.198770   -0.303831    1.057413
     20          1           0        3.177045   -2.059254   -1.228968
     21          1           0        2.403526   -1.890804    0.342939
     22          1           0        4.452776   -2.835980    1.458239
     23          1           0        5.230689   -3.005388   -0.122600
     24          1           0        3.799134   -3.973732    0.267617
     25          6           0        3.124047    0.634411   -0.558409
     26          6           0        3.747365    2.021666   -0.400344
     27          6           0        2.859700    3.135453   -0.956512
     28          1           0        2.924863    0.448711   -1.622945
     29          1           0        2.150021    0.617033   -0.050555
     30          1           0        4.720107    2.035685   -0.908471
     31          1           0        3.946588    2.204136    0.663437
     32          1           0        1.892944    3.150268   -0.442932
     33          1           0        2.670858    2.980861   -2.023771
     34          1           0        3.324498    4.118613   -0.833148
 ---------------------------------------------------------------------

 SCF Done:  E(RHF) =  -669.535318277     A.U. after   15 cycles
 E2 =    -0.2092429333D+01 EUMP2 =    -0.67162774761024D+03

 The electronic state is 1-A.
 Alpha  occ. eigenvalues --  -20.60768 -20.60763 -15.85820 -11.31202 -11.27766
 Alpha  occ. eigenvalues --  -11.27753 -11.27521 -11.26792 -11.26761 -11.22608
 Alpha  occ. eigenvalues --  -11.22311 -11.22241 -11.22158 -11.21845 -11.21673
 Alpha  occ. eigenvalues --   -1.59842  -1.39395  -1.19373  -1.09268  -1.08768
 Alpha  occ. eigenvalues --   -1.04774  -1.04318  -0.96734  -0.95601  -0.87749
 Alpha  occ. eigenvalues --   -0.86179  -0.82430  -0.80398  -0.79083  -0.77469
 Alpha  occ. eigenvalues --   -0.72039  -0.71165  -0.70490  -0.65969  -0.65023
 Alpha  occ. eigenvalues --   -0.64746  -0.62152  -0.61698  -0.60105  -0.58350
 Alpha  occ. eigenvalues --   -0.56026  -0.55283  -0.53431  -0.53187  -0.53071
 Alpha  occ. eigenvalues --   -0.52875  -0.50678  -0.48822  -0.48793  -0.48675
 Alpha  occ. eigenvalues --   -0.47442  -0.46595  -0.46530  -0.44797  -0.44571
 Alpha  occ. eigenvalues --   -0.37336  -0.36361
 Alpha virt. eigenvalues --    0.05033   0.11160   0.16472   0.19110   0.22738
 Alpha virt. eigenvalues --    0.23250   0.25019   0.26164   0.27211   0.27551
 Alpha virt. eigenvalues --    0.29473   0.30302   0.30974   0.31249   0.31986

 Mulliken charges:
               1
     1  C   -0.174103
     2  C   -0.218973
     3  C   -0.171077
     4  C    0.159093
     5  C   -0.173792
     6  C   -0.223257
     7  H    0.225641
     8  H    0.223569
     9  H    0.275716
    10  H    0.276421
    11  H    0.235205
    12  N    0.488014
    13  O   -0.460205
    14  O   -0.460417
    15  C   -0.298782
    16  C   -0.304253
    17  C   -0.475554
    18  H    0.154072
    19  H    0.147910
    20  H    0.156589
    21  H    0.142849
    22  H    0.155540
    23  H    0.159024
    24  H    0.162267
    25  C   -0.302287
    26  C   -0.300283
    27  C   -0.475630
    28  H    0.153748
    29  H    0.145210
    30  H    0.154930
    31  H    0.149463
    32  H    0.152857
    33  H    0.158558
    34  H    0.161938
 Sum of Mulliken charges =  -0.00000

 Dipole moment (field-independent basis, Debye):
    X=              4.4093    Y=              1.2763    Z=              2.6026  Tot=              5.2768
 Quadrupole moment (field-independent basis, Debye-Ang):
   XX=           -119.1169   YY=            -92.3718   ZZ=            -93.6630
   XY=             -6.2331   XZ=             -9.4550   YZ=              1.7652

 Normal termination of Gaussian 16 at Wed May  5 22:18:21 2021.
