 Gaussian 16, Revision A.03,
 Gaussian 16:  EM64L-G16RevA.03 25-Dec-2016

 -------------
 #p 6-31g* mp2
 -------------

 ------------------------------------------------------
 Input file generated by CHIRIPA (05-May-2021 14:57:24)
 ------------------------------------------------------
 Symbolic Z-matrix:
 Charge =  0 Multiplicity = 1

                         Standard orientation:
 ---------------------------------------------------------------------
 Center     Atomic      Atomic             Coordinates (Angstroms)
 Number     Number       Type             X           Y           Z
 ---------------------------------------------------------------------
      1          6           0       -2.635643    2.538495   -0.367947
      2          6           0       -1.831769    1.407301   -0.192711
      3          6           0       -2.409147    0.145937   -0.019093
      4          6           0       -3.799966    0.051780   -0.026053
      5          6           0       -4.627769    1.160090   -0.198338
      6          6           0       -4.028622    2.411503   -0.370197
      7          1           0       -2.178667    3.514488   -0.502135
      8          1           0       -0.749690    1.502931   -0.190527
      9          1           0       -1.810536   -0.746319    0.118605
     10          1           0       -5.703555    1.033215   -0.195917
     11          1           0       -4.655408    3.288271   -0.506075
     12          7           0       -4.422733   -1.278302    0.156818
     13          8           0       -5.650481   -1.334622    0.146804
     14          8           0       -3.671318   -2.239316    0.306703
     15          6           0        1.453599   -1.421310    0.147760
     16          6           0        1.800606   -0.484835    1.127108
     17          6           0        3.041093    0.158655    1.086328
     18          6           0        3.914241   -0.159785    0.047340
     19          6           0        3.597531   -1.088244   -0.943089
     20          6           0        2.351586   -1.719499   -0.882397
     21          1           0        0.487839   -1.916436    0.187173
     22          1           0        1.105209   -0.251283    1.928308
     23          1           0        3.335342    0.887678    1.831553
     24          1           0        4.311727   -1.300257   -1.729469
     25          1           0        2.084779   -2.446354   -1.644329
     26          7           0        5.230378    0.514972   -0.006373
     27          8           0        5.981904    0.216862   -0.932104
     28          8           0        5.485521    1.329181    0.878276
 ---------------------------------------------------------------------

 SCF Done:  E(RHF) =  -868.338040320     A.U. after   16 cycles
 E2 =    -0.2600114696D+01 EUMP2 =    -0.87093815501600D+03

 The electronic state is 1-A.
 Alpha  occ. eigenvalues --  -20.61474 -20.61442 -20.61241 -20.61232 -15.86512
 Alpha  occ. eigenvalues --  -15.86295 -11.31863 -11.31770 -11.28505 -11.28368
 Alpha  occ. eigenvalues --  -11.28358 -11.28306 -11.28126 -11.28074 -11.27432
 Alpha  occ. eigenvalues --  -11.27391 -11.27359 -11.27324  -1.60531  -1.60313
 Alpha  occ. eigenvalues --   -1.40090  -1.39862  -1.20010  -1.19954  -1.09390
 Alpha  occ. eigenvalues --   -1.09335  -1.05419  -1.05355  -0.96248  -0.96143
 Alpha  occ. eigenvalues --   -0.86805  -0.86750  -0.83080  -0.82964  -0.78156
 Alpha  occ. eigenvalues --   -0.77985  -0.72732  -0.72508  -0.71852  -0.71639
 Alpha  occ. eigenvalues --   -0.71255  -0.70927  -0.65664  -0.65595  -0.65397
 Alpha  occ. eigenvalues --   -0.65344  -0.62805  -0.62656  -0.55983  -0.55763
 Alpha  occ. eigenvalues --   -0.53733  -0.53713  -0.53473  -0.53415  -0.49501
 Alpha  occ. eigenvalues --   -0.49471  -0.49276  -0.49259  -0.45499  -0.45243
 Alpha  occ. eigenvalues --   -0.37962  -0.37952  -0.37041  -0.36946
 Alpha virt. eigenvalues --    0.04380   0.04517   0.10559   0.10657   0.15826
 Alpha virt. eigenvalues --    0.15971   0.18836   0.21855   0.24940   0.26551
 Alpha virt. eigenvalues --    0.27384   0.29270   0.29737   0.31045   0.32019

 Mulliken charges:
               1
     1  C   -0.170490
     2  C   -0.223124
     3  C   -0.176432
     4  C    0.160073
     5  C   -0.170082
     6  C   -0.217982
     7  H    0.228976
     8  H    0.227547
     9  H    0.268002
    10  H    0.277403
    11  H    0.226152
    12  N    0.487908
    13  O   -0.456733
    14  O   -0.465066
    15  C   -0.180652
    16  C   -0.225854
    17  C   -0.172045
    18  C    0.158935
    19  C   -0.170409
    20  C   -0.218109
    21  H    0.233303
    22  H    0.225441
    23  H    0.276837
    24  H    0.277983
    25  H    0.228564
    26  N    0.487918
    27  O   -0.458356
    28  O   -0.459706
 Sum of Mulliken charges =  -0.00000

 Dipole moment (field-independent basis, Debye):
    X=             -2.3970    Y=              2.3845    Z=             -0.5374  Tot=              3.4235
 Quadrupole moment (field-independent basis, Debye-Ang):
   XX=           -152.8410   YY=           -102.0174   ZZ=           -102.3210
   XY=            -29.8463   XZ=              2.1897   YZ=              2.0168

 Normal termination of Gaussian 16 at Fri May  7 04:56:22 2021.
