 Gaussian 16, Revision A.03,
 Gaussian 16:  EM64L-G16RevA.03 25-Dec-2016

 -------------
 #p 6-31g* mp2
 -------------

 ------------------------------------------------------
 Input file generated by CHIRIPA (05-May-2021 14:55:24)
 ------------------------------------------------------
 Symbolic Z-matrix:
 Charge =  0 Multiplicity = 1

                         Standard orientation:
 ---------------------------------------------------------------------
 Center     Atomic      Atomic             Coordinates (Angstroms)
 Number     Number       Type             X           Y           Z
 ---------------------------------------------------------------------
      1          6           0        2.722882   -2.267562    0.166353
      2          6           0        3.949771   -1.921479   -0.409399
      3          6           0        4.354014   -0.584485   -0.469251
      4          6           0        3.502789    0.385066    0.058648
      5          6           0        2.274435    0.071922    0.638629
      6          6           0        1.890597   -1.271513    0.687611
      7          1           0        2.416782   -3.308673    0.208626
      8          1           0        4.598169   -2.692912   -0.815005
      9          1           0        5.298560   -0.288617   -0.909381
     10          1           0        1.649519    0.863181    1.034618
     11          1           0        0.937226   -1.537357    1.135334
     12          7           0        3.919942    1.803891    0.001039
     13          8           0        3.151911    2.639276    0.473160
     14          8           0        5.007039    2.053716   -0.515145
     15          6           0       -4.037874   -0.844553    0.090846
     16          6           0       -2.579822   -0.880460   -0.368263
     17          6           0       -1.877660   -2.189139   -0.004776
     18          1           0       -4.076897   -0.993413    1.178624
     19          1           0       -4.577786   -1.688862   -0.359746
     20          1           0       -2.043149   -0.035536    0.081961
     21          1           0       -2.544253   -0.731306   -1.455048
     22          1           0       -2.387493   -3.040975   -0.466346
     23          1           0       -1.883541   -2.341252    1.079396
     24          1           0       -0.836548   -2.193336   -0.342305
     25          6           0       -4.753261    0.457414   -0.265291
     26          6           0       -6.211313    0.493321    0.193817
     27          6           0       -6.913475    1.802000   -0.169670
     28          1           0       -4.213349    1.301722    0.185301
     29          1           0       -4.714239    0.606273   -1.353069
     30          1           0       -6.246882    0.344167    1.280603
     31          1           0       -6.747986   -0.351603   -0.256407
     32          1           0       -6.907594    1.954113   -1.253841
     33          1           0       -6.403642    2.653835    0.291901
     34          1           0       -7.954588    1.806196    0.167860
 ---------------------------------------------------------------------

 SCF Done:  E(RHF) =  -669.535374343     A.U. after   15 cycles
 E2 =    -0.2091331244D+01 EUMP2 =    -0.67162670558686D+03

 The electronic state is 1-A.
 Alpha  occ. eigenvalues --  -20.60755 -20.60750 -15.85807 -11.31175 -11.27743
 Alpha  occ. eigenvalues --  -11.27732 -11.27478 -11.26757 -11.26692 -11.22280
 Alpha  occ. eigenvalues --  -11.21995 -11.21886 -11.21867 -11.21708 -11.21252
 Alpha  occ. eigenvalues --   -1.59830  -1.39383  -1.19345  -1.08892  -1.08738
 Alpha  occ. eigenvalues --   -1.04748  -1.04030  -0.96500  -0.95574  -0.87531
 Alpha  occ. eigenvalues --   -0.86137  -0.82403  -0.80101  -0.78661  -0.77454
 Alpha  occ. eigenvalues --   -0.72026  -0.71152  -0.70450  -0.65530  -0.64994
 Alpha  occ. eigenvalues --   -0.64779  -0.62156  -0.61408  -0.59863  -0.58081
 Alpha  occ. eigenvalues --   -0.55793  -0.55235  -0.53383  -0.53057  -0.52937
 Alpha  occ. eigenvalues --   -0.52620  -0.50426  -0.48783  -0.48781  -0.48404
 Alpha  occ. eigenvalues --   -0.47123  -0.46213  -0.46114  -0.44789  -0.44270
 Alpha  occ. eigenvalues --   -0.37319  -0.36335
 Alpha virt. eigenvalues --    0.05077   0.11179   0.16548   0.20410   0.22679
 Alpha virt. eigenvalues --    0.23915   0.26014   0.26710   0.26950   0.27933
 Alpha virt. eigenvalues --    0.28873   0.30370   0.31089   0.31513   0.31957

 Mulliken charges:
               1
     1  C   -0.173245
     2  C   -0.218271
     3  C   -0.171002
     4  C    0.158668
     5  C   -0.172920
     6  C   -0.221378
     7  H    0.226316
     8  H    0.223383
     9  H    0.275557
    10  H    0.275385
    11  H    0.231524
    12  N    0.488112
    13  O   -0.460480
    14  O   -0.460474
    15  C   -0.298732
    16  C   -0.298715
    17  C   -0.484543
    18  H    0.149465
    19  H    0.150590
    20  H    0.150254
    21  H    0.156291
    22  H    0.159650
    23  H    0.151524
    24  H    0.158567
    25  C   -0.299000
    26  C   -0.300032
    27  C   -0.476080
    28  H    0.151087
    29  H    0.151114
    30  H    0.152029
    31  H    0.152014
    32  H    0.155919
    33  H    0.156410
    34  H    0.161014
 Sum of Mulliken charges =  -0.00000

 Dipole moment (field-independent basis, Debye):
    X=             -1.6056    Y=             -4.9749    Z=              0.1561  Tot=              5.2299
 Quadrupole moment (field-independent basis, Debye-Ang):
   XX=           -101.3619   YY=            -99.5170   ZZ=            -93.6458
   XY=            -18.9929   XZ=             -1.3421   YZ=              1.0936

 Normal termination of Gaussian 16 at Thu May  6 07:54:45 2021.
