 Gaussian 16, Revision A.03,
 Gaussian 16:  EM64L-G16RevA.03 25-Dec-2016

 -------------
 #p 6-31g* mp2
 -------------

 ------------------------------------------------------
 Input file generated by CHIRIPA (05-May-2021 14:57:24)
 ------------------------------------------------------
 Symbolic Z-matrix:
 Charge =  0 Multiplicity = 1

                         Standard orientation:
 ---------------------------------------------------------------------
 Center     Atomic      Atomic             Coordinates (Angstroms)
 Number     Number       Type             X           Y           Z
 ---------------------------------------------------------------------
      1          6           0        5.149173    0.671583   -1.450147
      2          6           0        4.785840   -0.675229   -1.347157
      3          6           0        3.779865   -1.073534   -0.461766
      4          6           0        3.155324   -0.094149    0.308975
      5          6           0        3.494920    1.255511    0.229083
      6          6           0        4.503691    1.630963   -0.663086
      7          1           0        5.931724    0.972120   -2.140572
      8          1           0        5.285412   -1.422473   -1.957157
      9          1           0        3.478820   -2.109311   -0.361988
     10          1           0        2.978827    1.977467    0.850246
     11          1           0        4.783788    2.677637   -0.740968
     12          7           0        2.088863   -0.503721    1.249886
     13          8           0        1.553919    0.378480    1.917864
     14          8           0        1.808110   -1.699188    1.301579
     15          6           0       -3.018660   -2.470094   -0.339911
     16          6           0       -2.129086   -1.708373    0.424915
     17          6           0       -2.292524   -0.324282    0.535047
     18          6           0       -3.361294    0.268023   -0.135919
     19          6           0       -4.264382   -0.463706   -0.905527
     20          6           0       -4.081595   -1.846428   -1.001525
     21          1           0       -2.884182   -3.544757   -0.419974
     22          1           0       -1.302696   -2.190031    0.939822
     23          1           0       -1.618653    0.289411    1.120450
     24          1           0       -5.078674    0.044763   -1.407327
     25          1           0       -4.774003   -2.435476   -1.596201
     26          7           0       -3.544560    1.732573   -0.026809
     27          8           0       -4.494163    2.230477   -0.627628
     28          8           0       -2.735131    2.354852    0.657464
 ---------------------------------------------------------------------

 SCF Done:  E(RHF) =  -868.341043560     A.U. after   16 cycles
 E2 =    -0.2598836729D+01 EUMP2 =    -0.87093988028862D+03

 The electronic state is 1-A.
 Alpha  occ. eigenvalues --  -20.61624 -20.61584 -20.60005 -20.59986 -15.86598
 Alpha  occ. eigenvalues --  -15.85040 -11.31620 -11.30234 -11.28182 -11.28109
 Alpha  occ. eigenvalues --  -11.27842 -11.27113 -11.27060 -11.26860 -11.26594
 Alpha  occ. eigenvalues --  -11.26514 -11.25879 -11.25547  -1.60656  -1.59080
 Alpha  occ. eigenvalues --   -1.40213  -1.38634  -1.19764  -1.18389  -1.09227
 Alpha  occ. eigenvalues --   -1.07831  -1.05113  -1.03730  -0.96115  -0.94688
 Alpha  occ. eigenvalues --   -0.86529  -0.85145  -0.82957  -0.81498  -0.78039
 Alpha  occ. eigenvalues --   -0.76556  -0.72825  -0.71944  -0.71263  -0.70870
 Alpha  occ. eigenvalues --   -0.70403  -0.69503  -0.65421  -0.65115  -0.64027
 Alpha  occ. eigenvalues --   -0.63694  -0.62461  -0.61035  -0.55635  -0.54285
 Alpha  occ. eigenvalues --   -0.53461  -0.53201  -0.52129  -0.51783  -0.49599
 Alpha  occ. eigenvalues --   -0.49564  -0.48026  -0.48005  -0.45675  -0.44077
 Alpha  occ. eigenvalues --   -0.37728  -0.36698  -0.36411  -0.35345
 Alpha virt. eigenvalues --    0.04421   0.05912   0.10962   0.12294   0.15962
 Alpha virt. eigenvalues --    0.17439   0.21115   0.22588   0.27068   0.27904
 Alpha virt. eigenvalues --    0.28710   0.29325   0.30762   0.31970   0.32303

 Mulliken charges:
               1
     1  C   -0.169480
     2  C   -0.218690
     3  C   -0.170527
     4  C    0.157500
     5  C   -0.169358
     6  C   -0.218589
     7  H    0.227564
     8  H    0.224201
     9  H    0.273740
    10  H    0.279783
    11  H    0.226655
    12  N    0.488743
    13  O   -0.457827
    14  O   -0.468196
    15  C   -0.172600
    16  C   -0.227573
    17  C   -0.179796
    18  C    0.157422
    19  C   -0.173257
    20  C   -0.219256
    21  H    0.222802
    22  H    0.243928
    23  H    0.289054
    24  H    0.271653
    25  H    0.218980
    26  N    0.487556
    27  O   -0.465023
    28  O   -0.459409
 Sum of Mulliken charges =  -0.00000

 Dipole moment (field-independent basis, Debye):
    X=              4.9344    Y=             -3.6168    Z=             -3.5811  Tot=              7.0891
 Quadrupole moment (field-independent basis, Debye-Ang):
   XX=            -83.6240   YY=           -104.0839   ZZ=           -105.8509
   XY=             21.9734   XZ=             -6.4451   YZ=              3.0528

 Normal termination of Gaussian 16 at Wed May  5 17:54:01 2021.
