 Gaussian 16, Revision A.03,
 Gaussian 16:  EM64L-G16RevA.03 25-Dec-2016

 -------------
 #p 6-31g* mp2
 -------------

 ------------------------------------------------------
 Input file generated by CHIRIPA (05-May-2021 14:57:22)
 ------------------------------------------------------
 Symbolic Z-matrix:
 Charge =  0 Multiplicity = 1

                         Standard orientation:
 ---------------------------------------------------------------------
 Center     Atomic      Atomic             Coordinates (Angstroms)
 Number     Number       Type             X           Y           Z
 ---------------------------------------------------------------------
      1          6           0       -1.487031   -0.187980    0.378299
      2          6           0       -2.084264   -1.027442   -0.567818
      3          6           0       -3.465027   -0.985657   -0.782982
      4          6           0       -4.221769   -0.088318   -0.031042
      5          6           0       -3.656112    0.760828    0.918838
      6          6           0       -2.273474    0.701907    1.117305
      7          1           0       -0.413693   -0.227095    0.538958
      8          1           0       -1.475981   -1.719531   -1.143187
      9          1           0       -3.953310   -1.624272   -1.509046
     10          1           0       -4.288607    1.440288    1.477141
     11          1           0       -1.812372    1.355025    1.852741
     12          7           0       -5.684514   -0.035012   -0.249988
     13          8           0       -6.329145    0.764366    0.425350
     14          8           0       -6.158684   -0.793618   -1.092790
     15          6           0        4.551840   -2.330386    0.378368
     16          6           0        5.431804   -1.508145   -0.333042
     17          6           0        5.125629   -0.161635   -0.551480
     18          6           0        3.925475    0.331785   -0.042110
     19          6           0        3.028204   -0.462105    0.670584
     20          6           0        3.354959   -1.805667    0.877032
     21          1           0        4.797678   -3.375243    0.543399
     22          1           0        6.362028   -1.912933   -0.721470
     23          1           0        5.788742    0.497266   -1.098789
     24          1           0        2.108387   -0.029968    1.045569
     25          1           0        2.669668   -2.441887    1.429882
     26          7           0        3.590448    1.755714   -0.267013
     27          8           0        2.526799    2.166251    0.192059
     28          8           0        4.397846    2.434291   -0.898107
 ---------------------------------------------------------------------

 SCF Done:  E(RHF) =  -868.337350420     A.U. after   16 cycles
 E2 =    -0.2599484704D+01 EUMP2 =    -0.87093683512421D+03

 The electronic state is 1-A.
 Alpha  occ. eigenvalues --  -20.61633 -20.61599 -20.60689 -20.60682 -15.86673
 Alpha  occ. eigenvalues --  -15.85741 -11.32099 -11.31115 -11.28772 -11.28586
 Alpha  occ. eigenvalues --  -11.28338 -11.27711 -11.27698 -11.27652 -11.27604
 Alpha  occ. eigenvalues --  -11.27491 -11.26751 -11.26665  -1.60687  -1.59763
 Alpha  occ. eigenvalues --   -1.40244  -1.39316  -1.20254  -1.19290  -1.09621
 Alpha  occ. eigenvalues --   -1.08695  -1.05674  -1.04689  -0.96460  -0.95530
 Alpha  occ. eigenvalues --   -0.87060  -0.86091  -0.83296  -0.82358  -0.78357
 Alpha  occ. eigenvalues --   -0.77389  -0.72890  -0.72009  -0.71961  -0.71376
 Alpha  occ. eigenvalues --   -0.71084  -0.70433  -0.65903  -0.65664  -0.64948
 Alpha  occ. eigenvalues --   -0.64693  -0.63039  -0.62033  -0.56142  -0.55253
 Alpha  occ. eigenvalues --   -0.53976  -0.53739  -0.53019  -0.52785  -0.49659
 Alpha  occ. eigenvalues --   -0.49634  -0.48720  -0.48714  -0.45636  -0.44719
 Alpha  occ. eigenvalues --   -0.38199  -0.37283  -0.37275  -0.36283
 Alpha virt. eigenvalues --    0.04171   0.05139   0.10337   0.11370   0.15694
 Alpha virt. eigenvalues --    0.16628   0.18665   0.21860   0.24864   0.26992
 Alpha virt. eigenvalues --    0.27440   0.29234   0.30343   0.30843   0.32575

 Mulliken charges:
               1
     1  C   -0.170272
     2  C   -0.220297
     3  C   -0.170780
     4  C    0.158680
     5  C   -0.170771
     6  C   -0.218848
     7  H    0.223110
     8  H    0.221638
     9  H    0.275059
    10  H    0.276438
    11  H    0.227524
    12  N    0.487996
    13  O   -0.459851
    14  O   -0.460933
    15  C   -0.170558
    16  C   -0.217616
    17  C   -0.169892
    18  C    0.160998
    19  C   -0.179212
    20  C   -0.219635
    21  H    0.228660
    22  H    0.226927
    23  H    0.278388
    24  H    0.271966
    25  H    0.223499
    26  N    0.487920
    27  O   -0.464509
    28  O   -0.455630
 Sum of Mulliken charges =  -0.00000

 Dipole moment (field-independent basis, Debye):
    X=              6.5934    Y=             -5.1755    Z=              1.5154  Tot=              8.5179
 Quadrupole moment (field-independent basis, Debye-Ang):
   XX=           -134.5714   YY=           -106.2476   ZZ=           -102.3247
   XY=            -19.3021   XZ=             -3.4900   YZ=              2.9396

 Normal termination of Gaussian 16 at Thu May  6 09:41:27 2021.
