 Gaussian 16, Revision A.03,
 Gaussian 16:  EM64L-G16RevA.03 25-Dec-2016

 -------------
 #p 6-31g* mp2
 -------------

 ------------------------------------------------------
 Input file generated by CHIRIPA (05-May-2021 14:55:18)
 ------------------------------------------------------
 Symbolic Z-matrix:
 Charge =  0 Multiplicity = 1

                         Standard orientation:
 ---------------------------------------------------------------------
 Center     Atomic      Atomic             Coordinates (Angstroms)
 Number     Number       Type             X           Y           Z
 ---------------------------------------------------------------------
      1          6           0       -1.565220    1.329957    1.946639
      2          6           0       -2.059180    0.074926    2.317343
      3          6           0       -2.700717   -0.740640    1.380418
      4          6           0       -2.831582   -0.267570    0.075670
      5          6           0       -2.350090    0.977995   -0.324360
      6          6           0       -1.711994    1.776699    0.629292
      7          1           0       -1.068195    1.956959    2.680962
      8          1           0       -1.946615   -0.274606    3.339694
      9          1           0       -3.092523   -1.716526    1.640328
     10          1           0       -2.477278    1.299166   -1.351049
     11          1           0       -1.329363    2.750923    0.338560
     12          7           0       -3.508928   -1.122047   -0.925065
     13          8           0       -3.611575   -0.682257   -2.068168
     14          8           0       -3.924358   -2.215398   -0.547389
     15          6           0        4.060163   -0.137215    0.090717
     16          6           0        4.323009   -1.608125   -0.233818
     17          6           0        5.483518   -2.192999    0.571746
     18          1           0        4.972471    0.443232   -0.103496
     19          1           0        3.849161   -0.037894    1.164499
     20          1           0        4.532090   -1.704829   -1.306920
     21          1           0        3.409911   -2.185108   -0.038991
     22          1           0        5.279739   -2.125768    1.645318
     23          1           0        6.408294   -1.642760    0.370184
     24          1           0        5.654034   -3.245343    0.324043
     25          6           0        2.902903    0.461673   -0.706661
     26          6           0        2.640057    1.932583   -0.382126
     27          6           0        1.479547    2.517456   -1.187690
     28          1           0        3.113905    0.362352   -1.780444
     29          1           0        1.990595   -0.118774   -0.512447
     30          1           0        3.553155    2.509566   -0.576953
     31          1           0        2.430976    2.029287    0.690977
     32          1           0        0.554771    1.967217   -0.986127
     33          1           0        1.683327    2.450226   -2.261261
     34          1           0        1.309030    3.569801   -0.939987
 ---------------------------------------------------------------------

 SCF Done:  E(RHF) =  -669.534768984     A.U. after   15 cycles
 E2 =    -0.2092424598D+01 EUMP2 =    -0.67162719358149D+03

 The electronic state is 1-A.
 Alpha  occ. eigenvalues --  -20.60806 -20.60801 -15.85860 -11.31255 -11.27814
 Alpha  occ. eigenvalues --  -11.27806 -11.27553 -11.26847 -11.26795 -11.22119
 Alpha  occ. eigenvalues --  -11.21802 -11.21716 -11.21650 -11.21632 -11.21257
 Alpha  occ. eigenvalues --   -1.59881  -1.39433  -1.19431  -1.08824  -1.08760
 Alpha  occ. eigenvalues --   -1.04845  -1.03893  -0.96357  -0.95645  -0.87391
 Alpha  occ. eigenvalues --   -0.86219  -0.82482  -0.79970  -0.78560  -0.77519
 Alpha  occ. eigenvalues --   -0.72077  -0.71205  -0.70523  -0.65429  -0.65077
 Alpha  occ. eigenvalues --   -0.64825  -0.62231  -0.61257  -0.59735  -0.57957
 Alpha  occ. eigenvalues --   -0.55701  -0.55304  -0.53232  -0.53114  -0.52872
 Alpha  occ. eigenvalues --   -0.52694  -0.50255  -0.48837  -0.48830  -0.48276
 Alpha  occ. eigenvalues --   -0.46985  -0.46106  -0.46018  -0.44832  -0.44146
 Alpha  occ. eigenvalues --   -0.37403  -0.36373
 Alpha virt. eigenvalues --    0.04981   0.11179   0.16370   0.20889   0.22698
 Alpha virt. eigenvalues --    0.24065   0.26298   0.26457   0.27084   0.28207
 Alpha virt. eigenvalues --    0.28740   0.30364   0.31204   0.31501   0.32009

 Mulliken charges:
               1
     1  C   -0.173268
     2  C   -0.218548
     3  C   -0.171294
     4  C    0.158704
     5  C   -0.172190
     6  C   -0.218915
     7  H    0.226040
     8  H    0.223685
     9  H    0.275827
    10  H    0.276824
    11  H    0.229377
    12  N    0.488076
    13  O   -0.459897
    14  O   -0.460304
    15  C   -0.298239
    16  C   -0.300145
    17  C   -0.475811
    18  H    0.149919
    19  H    0.147389
    20  H    0.153537
    21  H    0.153139
    22  H    0.154095
    23  H    0.155306
    24  H    0.161689
    25  C   -0.299574
    26  C   -0.297217
    27  C   -0.485446
    28  H    0.151881
    29  H    0.152650
    30  H    0.153691
    31  H    0.146614
    32  H    0.158643
    33  H    0.159725
    34  H    0.154037
 Sum of Mulliken charges =  -0.00000

 Dipole moment (field-independent basis, Debye):
    X=              2.3965    Y=              2.9353    Z=              3.5086  Tot=              5.1642
 Quadrupole moment (field-independent basis, Debye-Ang):
   XX=           -109.0613   YY=            -94.7201   ZZ=            -91.7684
   XY=             -8.1992   XZ=            -11.4968   YZ=             -3.3906

 Normal termination of Gaussian 16 at Thu May  6 04:27:41 2021.
