 Gaussian 16, Revision A.03,
 Gaussian 16:  EM64L-G16RevA.03 25-Dec-2016

 -------------
 #p 6-31g* mp2
 -------------

 ------------------------------------------------------
 Input file generated by CHIRIPA (05-May-2021 14:53:13)
 ------------------------------------------------------
 Symbolic Z-matrix:
 Charge =  0 Multiplicity = 1

                         Standard orientation:
 ---------------------------------------------------------------------
 Center     Atomic      Atomic             Coordinates (Angstroms)
 Number     Number       Type             X           Y           Z
 ---------------------------------------------------------------------
      1          6           0       -3.785322    0.723861   -0.155131
      2          6           0       -2.791607    1.878437   -0.287311
      3          6           0       -3.427946    3.240758   -0.009918
      4          1           0       -4.621900    0.887340   -0.848209
      5          1           0       -4.212271    0.730841    0.857322
      6          1           0       -2.365630    1.868444   -1.298775
      7          1           0       -1.957203    1.712093    0.406025
      8          1           0       -3.837160    3.275336    1.004946
      9          1           0       -4.247908    3.432576   -0.709540
     10          1           0       -2.699879    4.051788   -0.109963
     11          6           0       -3.164073   -0.644539   -0.429466
     12          6           0       -4.157787   -1.799115   -0.297286
     13          6           0       -3.521448   -3.161436   -0.574679
     14          1           0       -2.737123   -0.651519   -1.441919
     15          1           0       -2.327495   -0.808018    0.263612
     16          1           0       -4.992192   -1.632771   -0.990622
     17          1           0       -4.583765   -1.789122    0.714178
     18          1           0       -2.701487   -3.353254    0.124943
     19          1           0       -3.112235   -3.196014   -1.589543
     20          1           0       -4.249516   -3.972466   -0.474634
     21          6           0        0.545802   -0.084437    1.516515
     22          6           0        1.330462   -1.238237    1.418659
     23          6           0        2.533977   -1.220200    0.707483
     24          6           0        2.924279   -0.025818    0.103824
     25          6           0        2.164454    1.140219    0.183281
     26          6           0        0.964564    1.099022    0.899601
     27          1           0       -0.387710   -0.107444    2.070972
     28          1           0        1.007734   -2.158739    1.896748
     29          1           0        3.160802   -2.098894    0.615809
     30          1           0        2.512400    2.042938   -0.304009
     31          1           0        0.357217    1.996603    0.973928
     32          7           0        4.196468    0.005536   -0.651790
     33          8           0        4.518175    1.070355   -1.174573
     34          8           0        4.847815   -1.035301   -0.706949
 ---------------------------------------------------------------------

 SCF Done:  E(RHF) =  -669.534845558     A.U. after   15 cycles
 E2 =    -0.2092772321D+01 EUMP2 =    -0.67162761787858D+03

 The electronic state is 1-A.
 Alpha  occ. eigenvalues --  -20.60765 -20.60760 -15.85818 -11.31194 -11.27757
 Alpha  occ. eigenvalues --  -11.27745 -11.27510 -11.26790 -11.26750 -11.22531
 Alpha  occ. eigenvalues --  -11.22259 -11.22193 -11.22104 -11.21889 -11.21676
 Alpha  occ. eigenvalues --   -1.59840  -1.39393  -1.19366  -1.09223  -1.08761
 Alpha  occ. eigenvalues --   -1.04769  -1.04297  -0.96726  -0.95598  -0.87740
 Alpha  occ. eigenvalues --   -0.86175  -0.82426  -0.80373  -0.79030  -0.77465
 Alpha  occ. eigenvalues --   -0.72037  -0.71162  -0.70496  -0.65901  -0.65019
 Alpha  occ. eigenvalues --   -0.64766  -0.62173  -0.61651  -0.60093  -0.58341
 Alpha  occ. eigenvalues --   -0.56037  -0.55265  -0.53427  -0.53148  -0.53088
 Alpha  occ. eigenvalues --   -0.52869  -0.50668  -0.48825  -0.48791  -0.48640
 Alpha  occ. eigenvalues --   -0.47409  -0.46559  -0.46476  -0.44796  -0.44545
 Alpha  occ. eigenvalues --   -0.37305  -0.36352
 Alpha virt. eigenvalues --    0.05023   0.11190   0.16395   0.19531   0.22724
 Alpha virt. eigenvalues --    0.23328   0.25470   0.26239   0.26482   0.27648
 Alpha virt. eigenvalues --    0.29861   0.30541   0.30785   0.31239   0.31794

 Mulliken charges:
               1
     1  C   -0.299061
     2  C   -0.302432
     3  C   -0.476421
     4  H    0.153639
     5  H    0.148095
     6  H    0.157018
     7  H    0.142028
     8  H    0.155292
     9  H    0.159741
    10  H    0.159589
    11  C   -0.299837
    12  C   -0.300426
    13  C   -0.474869
    14  H    0.154094
    15  H    0.143984
    16  H    0.154678
    17  H    0.150740
    18  H    0.150844
    19  H    0.158260
    20  H    0.162406
    21  C   -0.169047
    22  C   -0.219298
    23  C   -0.170888
    24  C    0.158786
    25  C   -0.172141
    26  C   -0.217801
    27  H    0.225048
    28  H    0.223344
    29  H    0.275691
    30  H    0.275688
    31  H    0.225940
    32  N    0.488013
    33  O   -0.460346
    34  O   -0.460351
 Sum of Mulliken charges =  -0.00000

 Dipole moment (field-independent basis, Debye):
    X=             -4.5914    Y=             -0.1185    Z=              2.5400  Tot=              5.2485
 Quadrupole moment (field-independent basis, Debye-Ang):
   XX=           -121.1539   YY=            -91.0930   ZZ=            -93.7131
   XY=             -0.7724   XZ=              8.2145   YZ=             -1.5946

 Normal termination of Gaussian 16 at Thu May  6 15:23:27 2021.
