 Gaussian 16, Revision A.03,
 Gaussian 16:  EM64L-G16RevA.03 25-Dec-2016

 -------------
 #p 6-31g* mp2
 -------------

 ------------------------------------------------------
 Input file generated by CHIRIPA (05-May-2021 14:57:23)
 ------------------------------------------------------
 Symbolic Z-matrix:
 Charge =  0 Multiplicity = 1

                         Standard orientation:
 ---------------------------------------------------------------------
 Center     Atomic      Atomic             Coordinates (Angstroms)
 Number     Number       Type             X           Y           Z
 ---------------------------------------------------------------------
      1          6           0        6.167712    0.674845   -0.270604
      2          6           0        5.749629    0.179155    0.968758
      3          6           0        4.431232   -0.247174    1.154826
      4          6           0        3.553496   -0.163406    0.075080
      5          6           0        3.939880    0.325703   -1.171824
      6          6           0        5.263099    0.746411   -1.335063
      7          1           0        7.193747    1.003844   -0.406279
      8          1           0        6.449986    0.122423    1.797207
      9          1           0        4.080952   -0.635119    2.103625
     10          1           0        3.218776    0.370108   -1.978951
     11          1           0        5.584998    1.130930   -2.298687
     12          7           0        2.155216   -0.611766    0.259978
     13          8           0        1.401309   -0.527711   -0.707077
     14          8           0        1.839629   -1.038756    1.368455
     15          6           0       -3.517844   -2.399813   -0.358260
     16          6           0       -4.786282   -1.853997   -0.135392
     17          6           0       -4.945565   -0.476134    0.039745
     18          6           0       -3.809675    0.330170   -0.014283
     19          6           0       -2.532669   -0.183627   -0.234644
     20          6           0       -2.397062   -1.564358   -0.407089
     21          1           0       -3.403305   -3.471284   -0.493265
     22          1           0       -5.658475   -2.500409   -0.096974
     23          1           0       -5.915873   -0.027098    0.213772
     24          1           0       -1.681962    0.486166   -0.267699
     25          1           0       -1.410753   -1.985471   -0.580016
     26          7           0       -3.965769    1.790370    0.169701
     27          8           0       -2.949230    2.479266    0.117675
     28          8           0       -5.101699    2.218329    0.362450
 ---------------------------------------------------------------------

 SCF Done:  E(RHF) =  -868.341335874     A.U. after   16 cycles
 E2 =    -0.2598511686D+01 EUMP2 =    -0.87093984756023D+03

 The electronic state is 1-A.
 Alpha  occ. eigenvalues --  -20.61692 -20.61685 -20.59765 -20.59753 -15.86677
 Alpha  occ. eigenvalues --  -15.84801 -11.31694 -11.29909 -11.28219 -11.28215
 Alpha  occ. eigenvalues --  -11.27906 -11.27159 -11.27149 -11.26538 -11.26256
 Alpha  occ. eigenvalues --  -11.26178 -11.25554 -11.25182  -1.60732  -1.58841
 Alpha  occ. eigenvalues --   -1.40293  -1.38400  -1.19833  -1.18056  -1.09298
 Alpha  occ. eigenvalues --   -1.07521  -1.05183  -1.03376  -0.96190  -0.94392
 Alpha  occ. eigenvalues --   -0.86598  -0.84813  -0.83036  -0.81199  -0.78116
 Alpha  occ. eigenvalues --   -0.76265  -0.72914  -0.72010  -0.71031  -0.70940
 Alpha  occ. eigenvalues --   -0.70159  -0.69190  -0.65492  -0.65186  -0.63695
 Alpha  occ. eigenvalues --   -0.63358  -0.62533  -0.60696  -0.55703  -0.53966
 Alpha  occ. eigenvalues --   -0.53529  -0.53271  -0.51785  -0.51439  -0.49686
 Alpha  occ. eigenvalues --   -0.49644  -0.47793  -0.47762  -0.45766  -0.43861
 Alpha  occ. eigenvalues --   -0.37793  -0.36767  -0.36085  -0.34976
 Alpha virt. eigenvalues --    0.04378   0.06200   0.10894   0.12650   0.15941
 Alpha virt. eigenvalues --    0.17745   0.21049   0.22834   0.26995   0.27878
 Alpha virt. eigenvalues --    0.28910   0.29576   0.30688   0.32132   0.32393

 Mulliken charges:
               1
     1  C   -0.169417
     2  C   -0.218596
     3  C   -0.169880
     4  C    0.157766
     5  C   -0.169769
     6  C   -0.218499
     7  H    0.227764
     8  H    0.225346
     9  H    0.276439
    10  H    0.276081
    11  H    0.225557
    12  N    0.490249
    13  O   -0.470575
    14  O   -0.457201
    15  C   -0.172334
    16  C   -0.219192
    17  C   -0.173544
    18  C    0.157592
    19  C   -0.172903
    20  C   -0.222098
    21  H    0.221461
    22  H    0.217991
    23  H    0.270745
    24  H    0.284308
    25  H    0.241534
    26  N    0.488117
    27  O   -0.461656
    28  O   -0.465286
 Sum of Mulliken charges =  -0.00000

 Dipole moment (field-independent basis, Debye):
    X=              6.2102    Y=             -3.5772    Z=             -1.2787  Tot=              7.2799
 Quadrupole moment (field-independent basis, Debye-Ang):
   XX=            -70.3350   YY=           -110.1802   ZZ=           -101.1095
   XY=             25.3960   XZ=              1.0360   YZ=             -1.4014

 Normal termination of Gaussian 16 at Thu May  6 14:34:44 2021.
