 Gaussian 16, Revision A.03,
 Gaussian 16:  EM64L-G16RevA.03 25-Dec-2016

 -------------
 #p 6-31g* mp2
 -------------

 ------------------------------------------------------
 Input file generated by CHIRIPA (05-May-2021 14:51:11)
 ------------------------------------------------------
 Symbolic Z-matrix:
 Charge =  0 Multiplicity = 1

                         Standard orientation:
 ---------------------------------------------------------------------
 Center     Atomic      Atomic             Coordinates (Angstroms)
 Number     Number       Type             X           Y           Z
 ---------------------------------------------------------------------
      1          6           0       -4.022421    0.665833   -0.156720
      2          6           0       -3.426855    2.051010    0.097391
      3          6           0       -4.479707    3.159596    0.079104
      4          1           0       -4.538099    0.667756   -1.126781
      5          1           0       -4.787912    0.458360    0.603788
      6          1           0       -2.661741    2.255237   -0.662548
      7          1           0       -2.912371    2.045735    1.066872
      8          1           0       -5.238386    2.983075    0.848421
      9          1           0       -4.986332    3.193768   -0.890826
     10          1           0       -4.032203    4.141342    0.262886
     11          6           0       -2.982273   -0.452911   -0.141506
     12          6           0       -3.577839   -1.838088   -0.395617
     13          6           0       -2.524987   -2.946674   -0.377331
     14          1           0       -2.216782   -0.245438   -0.902014
     15          1           0       -2.466595   -0.454834    0.828555
     16          1           0       -4.092323   -1.832812   -1.365098
     17          1           0       -4.342953   -2.042315    0.364322
     18          1           0       -2.018362   -2.980846    0.592599
     19          1           0       -1.766308   -2.770153   -1.146647
     20          1           0       -2.972491   -3.928420   -0.561113
     21          6           0        2.936005   -0.589695   -0.021686
     22          6           0        1.820573   -0.610466    1.023956
     23          6           0        0.694798   -1.581987    0.668189
     24          1           0        2.510230   -0.318317   -0.997398
     25          1           0        3.345930   -1.603354   -0.130560
     26          1           0        1.413810    0.403202    1.131828
     27          1           0        2.249086   -0.881640    1.997331
     28          1           0        1.080379   -2.602864    0.580226
     29          1           0        0.240357   -1.310722   -0.290195
     30          1           0       -0.091895   -1.580853    1.429092
     31          6           0        4.068690    0.376773    0.319912
     32          6           0        5.184121    0.397544   -0.725730
     33          6           0        6.309897    1.369065   -0.369964
     34          1           0        3.658764    1.390432    0.428787
     35          1           0        4.494465    0.105394    1.295625
     36          1           0        4.755608    0.668718   -1.699105
     37          1           0        5.590884   -0.616124   -0.833601
     38          1           0        6.764337    1.097800    0.588421
     39          1           0        5.924315    2.389941   -0.282000
     40          1           0        7.096589    1.367930   -1.130866
 ---------------------------------------------------------------------

 SCF Done:  E(RHF) =  -470.731914655     A.U. after   11 cycles
 E2 =    -0.1583754960D+01 EUMP2 =    -0.47231566961431D+03

 The electronic state is 1-A.
 Alpha  occ. eigenvalues --  -11.21601 -11.21585 -11.21537 -11.21522 -11.21376
 Alpha  occ. eigenvalues --  -11.21369 -11.21316 -11.21304 -11.21071 -11.21059
 Alpha  occ. eigenvalues --  -11.20942 -11.20909  -1.08421  -1.08373  -1.03546
 Alpha  occ. eigenvalues --   -1.03431  -0.95994  -0.95879  -0.87039  -0.86878
 Alpha  occ. eigenvalues --   -0.79729  -0.79403  -0.78269  -0.78129  -0.65051
 Alpha  occ. eigenvalues --   -0.65016  -0.60946  -0.60862  -0.59448  -0.59174
 Alpha  occ. eigenvalues --   -0.57604  -0.57503  -0.55276  -0.55175  -0.52780
 Alpha  occ. eigenvalues --   -0.52612  -0.52461  -0.52172  -0.49951  -0.49828
 Alpha  occ. eigenvalues --   -0.47993  -0.47739  -0.46663  -0.46529  -0.45851
 Alpha  occ. eigenvalues --   -0.45696  -0.45691  -0.45494  -0.43752  -0.43651
 Alpha virt. eigenvalues --    0.21607   0.23133   0.23568   0.24810   0.25155
 Alpha virt. eigenvalues --    0.26616   0.26827   0.27596   0.27997   0.29526
 Alpha virt. eigenvalues --    0.29732   0.31538   0.31652   0.31867   0.32389

 Mulliken charges:
               1
     1  C   -0.298197
     2  C   -0.299462
     3  C   -0.475645
     4  H    0.149448
     5  H    0.149383
     6  H    0.151417
     7  H    0.151740
     8  H    0.155231
     9  H    0.155184
    10  H    0.160111
    11  C   -0.299649
    12  C   -0.300002
    13  C   -0.476920
    14  H    0.149149
    15  H    0.151957
    16  H    0.151232
    17  H    0.151234
    18  H    0.159449
    19  H    0.155932
    20  H    0.158726
    21  C   -0.298427
    22  C   -0.301462
    23  C   -0.474970
    24  H    0.149122
    25  H    0.149438
    26  H    0.151837
    27  H    0.151147
    28  H    0.154268
    29  H    0.158975
    30  H    0.159979
    31  C   -0.298178
    32  C   -0.299576
    33  C   -0.475675
    34  H    0.149469
    35  H    0.149593
    36  H    0.151782
    37  H    0.151890
    38  H    0.155158
    39  H    0.155141
    40  H    0.160172
 Sum of Mulliken charges =  -0.00000

 Dipole moment (field-independent basis, Debye):
    X=             -0.0023    Y=             -0.0179    Z=              0.0049  Tot=              0.0187
 Quadrupole moment (field-independent basis, Debye-Ang):
   XX=            -85.9991   YY=            -85.5329   ZZ=            -83.5422
   XY=             -0.3809   XZ=             -0.0555   YZ=             -0.6313

 Normal termination of Gaussian 16 at Thu May  6 05:26:48 2021.
