 Gaussian 16, Revision A.03,
 Gaussian 16:  EM64L-G16RevA.03 25-Dec-2016

 -------------
 #p 6-31g* mp2
 -------------

 ------------------------------------------------------
 Input file generated by CHIRIPA (05-May-2021 14:55:21)
 ------------------------------------------------------
 Symbolic Z-matrix:
 Charge =  0 Multiplicity = 1

                         Standard orientation:
 ---------------------------------------------------------------------
 Center     Atomic      Atomic             Coordinates (Angstroms)
 Number     Number       Type             X           Y           Z
 ---------------------------------------------------------------------
      1          6           0        4.478732   -1.960160   -0.261325
      2          6           0        5.234393   -0.832058    0.074656
      3          6           0        4.627711    0.422998    0.181052
      4          6           0        3.257071    0.514068   -0.056314
      5          6           0        2.477172   -0.591290   -0.392813
      6          6           0        3.104955   -1.836394   -0.493578
      7          1           0        4.958213   -2.931252   -0.341788
      8          1           0        6.301462   -0.925194    0.255579
      9          1           0        5.188881    1.312747    0.439610
     10          1           0        1.415328   -0.467026   -0.567352
     11          1           0        2.515601   -2.710773   -0.754668
     12          7           0        2.603634    1.837472    0.053342
     13          8           0        1.394525    1.891177   -0.160686
     14          8           0        3.312953    2.795991    0.351241
     15          6           0       -3.841409   -0.873038    0.445216
     16          6           0       -2.393070   -0.787925   -0.037541
     17          6           0       -1.474017   -1.782773    0.671977
     18          1           0       -3.871229   -0.693599    1.528664
     19          1           0       -4.213799   -1.894684    0.287228
     20          1           0       -2.023968    0.233617    0.120037
     21          1           0       -2.366716   -0.967399   -1.119997
     22          1           0       -1.815289   -2.809479    0.504609
     23          1           0       -1.470594   -1.601638    1.751689
     24          1           0       -0.443519   -1.704801    0.311625
     25          6           0       -4.772390    0.115392   -0.254788
     26          6           0       -6.220729    0.030280    0.227970
     27          6           0       -7.139780    1.025128   -0.481548
     28          1           0       -4.399999    1.137038   -0.096799
     29          1           0       -4.742569   -0.064048   -1.338235
     30          1           0       -6.247083    0.209753    1.310425
     31          1           0       -6.589830   -0.991263    0.070392
     32          1           0       -7.143205    0.843993   -1.561261
     33          1           0       -6.798509    2.051833   -0.314181
     34          1           0       -8.170279    0.947154   -0.121196
 ---------------------------------------------------------------------

 SCF Done:  E(RHF) =  -669.535532199     A.U. after   15 cycles
 E2 =    -0.2091166257D+01 EUMP2 =    -0.67162669845670D+03

 The electronic state is 1-A.
 Alpha  occ. eigenvalues --  -20.60781 -20.60776 -15.85833 -11.31185 -11.27759
 Alpha  occ. eigenvalues --  -11.27738 -11.27501 -11.26776 -11.26763 -11.21514
 Alpha  occ. eigenvalues --  -11.21429 -11.21355 -11.21284 -11.21170 -11.20880
 Alpha  occ. eigenvalues --   -1.59854  -1.39408  -1.19361  -1.08758  -1.08309
 Alpha  occ. eigenvalues --   -1.04766  -1.03466  -0.95949  -0.95593  -0.86966
 Alpha  occ. eigenvalues --   -0.86160  -0.82428  -0.79513  -0.78098  -0.77477
 Alpha  occ. eigenvalues --   -0.72053  -0.71175  -0.70481  -0.65017  -0.64929
 Alpha  occ. eigenvalues --   -0.64775  -0.62169  -0.60846  -0.59319  -0.57550
 Alpha  occ. eigenvalues --   -0.55268  -0.55215  -0.53111  -0.52943  -0.52587
 Alpha  occ. eigenvalues --   -0.52331  -0.49860  -0.48809  -0.48807  -0.47837
 Alpha  occ. eigenvalues --   -0.46515  -0.45654  -0.45546  -0.44815  -0.43724
 Alpha  occ. eigenvalues --   -0.37341  -0.36359
 Alpha virt. eigenvalues --    0.05037   0.11275   0.16516   0.20212   0.23034
 Alpha virt. eigenvalues --    0.23927   0.26267   0.26818   0.27564   0.27972
 Alpha virt. eigenvalues --    0.29068   0.30744   0.31483   0.31671   0.32272

 Mulliken charges:
               1
     1  C   -0.170740
     2  C   -0.218645
     3  C   -0.170713
     4  C    0.159400
     5  C   -0.176453
     6  C   -0.219917
     7  H    0.225692
     8  H    0.223495
     9  H    0.275565
    10  H    0.282299
    11  H    0.224048
    12  N    0.487931
    13  O   -0.460844
    14  O   -0.460337
    15  C   -0.298571
    16  C   -0.303576
    17  C   -0.475693
    18  H    0.150647
    19  H    0.147360
    20  H    0.166355
    21  H    0.149619
    22  H    0.153713
    23  H    0.159866
    24  H    0.146875
    25  C   -0.299037
    26  C   -0.299690
    27  C   -0.475811
    28  H    0.153977
    29  H    0.149195
    30  H    0.152185
    31  H    0.150553
    32  H    0.154851
    33  H    0.156785
    34  H    0.159615
 Sum of Mulliken charges =  -0.00000

 Dipole moment (field-independent basis, Debye):
    X=              2.2611    Y=             -4.5629    Z=             -0.3546  Tot=              5.1047
 Quadrupole moment (field-independent basis, Debye-Ang):
   XX=            -76.3846   YY=            -99.3611   ZZ=            -94.9466
   XY=            -11.7358   XZ=             -0.4649   YZ=              1.4440

 Normal termination of Gaussian 16 at Wed May  5 15:54:08 2021.
