 Gaussian 16, Revision A.03,
 Gaussian 16:  EM64L-G16RevA.03 25-Dec-2016

 -------------
 #p 6-31g* mp2
 -------------

 ------------------------------------------------------
 Input file generated by CHIRIPA (05-May-2021 14:51:07)
 ------------------------------------------------------
 Symbolic Z-matrix:
 Charge =  0 Multiplicity = 1

                         Standard orientation:
 ---------------------------------------------------------------------
 Center     Atomic      Atomic             Coordinates (Angstroms)
 Number     Number       Type             X           Y           Z
 ---------------------------------------------------------------------
      1          6           0        4.572178   -0.072759    0.149318
      2          6           0        5.100743   -1.175386   -0.768732
      3          6           0        6.587252   -1.015837   -1.089090
      4          1           0        4.743938    0.903550   -0.324249
      5          1           0        5.151566   -0.073539    1.082968
      6          1           0        4.519621   -1.173428   -1.699812
      7          1           0        4.927532   -2.149195   -0.293011
      8          1           0        7.183824   -1.039675   -0.171411
      9          1           0        6.773596   -0.058364   -1.586205
     10          1           0        6.944216   -1.814627   -1.746640
     11          6           0        3.087589   -0.218543    0.478667
     12          6           0        2.559023    0.884084    1.396717
     13          6           0        1.072514    0.724535    1.717075
     14          1           0        2.508200   -0.217763   -0.454984
     15          1           0        2.915828   -1.194851    0.952233
     16          1           0        2.732234    1.857893    0.920995
     17          1           0        3.140145    0.882127    2.327797
     18          1           0        0.886170   -0.232937    2.214190
     19          1           0        0.475942    0.748373    0.799395
     20          1           0        0.715551    1.523325    2.374624
     21          6           0       -3.633769    0.786528   -0.680392
     22          6           0       -2.253829    1.313099   -0.284825
     23          6           0       -1.875678    2.595685   -1.026291
     24          1           0       -3.653149    0.604786   -1.763692
     25          1           0       -4.385786    1.562250   -0.480092
     26          1           0       -1.504816    0.536107   -0.484520
     27          1           0       -2.237671    1.493427    0.797689
     28          1           0       -2.600962    3.388982   -0.818345
     29          1           0       -1.863943    2.426222   -2.107839
     30          1           0       -0.885586    2.954594   -0.728365
     31          6           0       -4.025997   -0.495226    0.052407
     32          6           0       -5.405937   -1.021797   -0.343159
     33          6           0       -5.784088   -2.304383    0.398306
     34          1           0       -3.273981   -1.270949   -0.147891
     35          1           0       -4.006618   -0.313484    1.135708
     36          1           0       -5.422095   -1.202125   -1.425674
     37          1           0       -6.154950   -0.244805   -0.143464
     38          1           0       -5.795823   -2.134920    1.479854
     39          1           0       -5.058804   -3.097680    0.190360
     40          1           0       -6.774181   -2.663292    0.100381
 ---------------------------------------------------------------------

 SCF Done:  E(RHF) =  -470.732883608     A.U. after   11 cycles
 E2 =    -0.1582838084D+01 EUMP2 =    -0.47231572169161D+03

 The electronic state is 1-A.
 Alpha  occ. eigenvalues --  -11.21597 -11.21586 -11.21573 -11.21559 -11.21393
 Alpha  occ. eigenvalues --  -11.21384 -11.21334 -11.21325 -11.21081 -11.21067
 Alpha  occ. eigenvalues --  -11.21058 -11.20952  -1.08428  -1.08400  -1.03554
 Alpha  occ. eigenvalues --   -1.03473  -0.96003  -0.95920  -0.87001  -0.86955
 Alpha  occ. eigenvalues --   -0.79700  -0.79468  -0.78279  -0.78171  -0.65074
 Alpha  occ. eigenvalues --   -0.65021  -0.60991  -0.60864  -0.59353  -0.59315
 Alpha  occ. eigenvalues --   -0.57678  -0.57492  -0.55279  -0.55190  -0.52686
 Alpha  occ. eigenvalues --   -0.52625  -0.52408  -0.52362  -0.49960  -0.49862
 Alpha  occ. eigenvalues --   -0.48073  -0.47725  -0.46702  -0.46519  -0.45865
 Alpha  occ. eigenvalues --   -0.45726  -0.45709  -0.45517  -0.43779  -0.43748
 Alpha virt. eigenvalues --    0.21807   0.23059   0.23506   0.25055   0.26103
 Alpha virt. eigenvalues --    0.26689   0.26935   0.27594   0.27799   0.29076
 Alpha virt. eigenvalues --    0.30520   0.31172   0.31439   0.31811   0.32231

 Mulliken charges:
               1
     1  C   -0.298229
     2  C   -0.299636
     3  C   -0.475695
     4  H    0.149633
     5  H    0.149580
     6  H    0.151806
     7  H    0.151891
     8  H    0.155196
     9  H    0.155188
    10  H    0.160200
    11  C   -0.298205
    12  C   -0.299521
    13  C   -0.482900
    14  H    0.148890
    15  H    0.149586
    16  H    0.151314
    17  H    0.151538
    18  H    0.154561
    19  H    0.165501
    20  H    0.159185
    21  C   -0.297495
    22  C   -0.302331
    23  C   -0.477562
    24  H    0.149297
    25  H    0.149365
    26  H    0.152462
    27  H    0.154740
    28  H    0.155592
    29  H    0.154890
    30  H    0.161012
    31  C   -0.298324
    32  C   -0.299639
    33  C   -0.475685
    34  H    0.149612
    35  H    0.149914
    36  H    0.151835
    37  H    0.151873
    38  H    0.155206
    39  H    0.155177
    40  H    0.160176
 Sum of Mulliken charges =  -0.00000

 Dipole moment (field-independent basis, Debye):
    X=             -0.0277    Y=              0.0014    Z=              0.0021  Tot=              0.0278
 Quadrupole moment (field-independent basis, Debye-Ang):
   XX=            -85.9751   YY=            -85.0317   ZZ=            -83.9157
   XY=             -0.7790   XZ=              0.3318   YZ=              0.3661

 Normal termination of Gaussian 16 at Wed May  5 18:04:19 2021.
