 Gaussian 16, Revision A.03,
 Gaussian 16:  EM64L-G16RevA.03 25-Dec-2016

 -------------
 #p 6-31g* mp2
 -------------

 ------------------------------------------------------
 Input file generated by CHIRIPA (05-May-2021 14:55:23)
 ------------------------------------------------------
 Symbolic Z-matrix:
 Charge =  0 Multiplicity = 1

                         Standard orientation:
 ---------------------------------------------------------------------
 Center     Atomic      Atomic             Coordinates (Angstroms)
 Number     Number       Type             X           Y           Z
 ---------------------------------------------------------------------
      1          6           0       -1.632789    1.114944   -0.012687
      2          6           0       -2.307761    0.922575    1.197242
      3          6           0       -3.544014    0.270294    1.224695
      4          6           0       -4.078549   -0.178733    0.018073
      5          6           0       -3.430421   -0.002195   -1.203424
      6          6           0       -2.195282    0.652760   -1.207053
      7          1           0       -0.672870    1.622690   -0.024760
      8          1           0       -1.873316    1.280453    2.126341
      9          1           0       -4.088052    0.108024    2.147251
     10          1           0       -3.888729   -0.370113   -2.113373
     11          1           0       -1.673343    0.800757   -2.148181
     12          7           0       -5.386726   -0.870689    0.034526
     13          8           0       -5.836348   -1.256855   -1.042206
     14          8           0       -5.937681   -1.013776    1.123843
     15          6           0        5.631067   -0.138330    0.231841
     16          6           0        6.017439   -1.547101   -0.219898
     17          6           0        7.393414   -1.975228    0.291177
     18          1           0        6.391409    0.573411   -0.117800
     19          1           0        5.644853   -0.096175    1.329760
     20          1           0        6.001583   -1.586965   -1.316609
     21          1           0        5.255989   -2.255547    0.130695
     22          1           0        7.418547   -1.963752    1.385635
     23          1           0        8.168378   -1.291371   -0.069892
     24          1           0        7.649543   -2.985308   -0.043482
     25          6           0        4.258074    0.303939   -0.271166
     26          6           0        3.871701    1.712709    0.180572
     27          6           0        2.495727    2.140836   -0.330502
     28          1           0        4.244288    0.261783   -1.369086
     29          1           0        3.497731   -0.407803    0.078475
     30          1           0        4.633151    2.421155   -0.170020
     31          1           0        3.887558    1.752573    1.277284
     32          1           0        1.720763    1.456980    0.030567
     33          1           0        2.470593    2.129359   -1.424960
     34          1           0        2.239598    3.150915    0.004157
 ---------------------------------------------------------------------

 SCF Done:  E(RHF) =  -669.535647356     A.U. after   15 cycles
 E2 =    -0.2090691134D+01 EUMP2 =    -0.67162633849055D+03

 The electronic state is 1-A.
 Alpha  occ. eigenvalues --  -20.60720 -20.60715 -15.85774 -11.31128 -11.27698
 Alpha  occ. eigenvalues --  -11.27693 -11.27381 -11.26704 -11.26691 -11.22520
 Alpha  occ. eigenvalues --  -11.22335 -11.22121 -11.22075 -11.21946 -11.21459
 Alpha  occ. eigenvalues --   -1.59796  -1.39350  -1.19297  -1.09127  -1.08688
 Alpha  occ. eigenvalues --   -1.04700  -1.04267  -0.96744  -0.95526  -0.87771
 Alpha  occ. eigenvalues --   -0.86094  -0.82364  -0.80346  -0.78897  -0.77415
 Alpha  occ. eigenvalues --   -0.71991  -0.71120  -0.70408  -0.65753  -0.64946
 Alpha  occ. eigenvalues --   -0.64704  -0.62050  -0.61669  -0.60124  -0.58332
 Alpha  occ. eigenvalues --   -0.56125  -0.55154  -0.53430  -0.53148  -0.53020
 Alpha  occ. eigenvalues --   -0.52789  -0.50675  -0.48756  -0.48748  -0.48641
 Alpha  occ. eigenvalues --   -0.47353  -0.46450  -0.46343  -0.44758  -0.44500
 Alpha  occ. eigenvalues --   -0.37267  -0.36309
 Alpha virt. eigenvalues --    0.05107   0.11347   0.16548   0.20515   0.22306
 Alpha virt. eigenvalues --    0.23736   0.25600   0.26162   0.26986   0.27374
 Alpha virt. eigenvalues --    0.28908   0.30377   0.30980   0.31045   0.32043

 Mulliken charges:
               1
     1  C   -0.178187
     2  C   -0.220628
     3  C   -0.170823
     4  C    0.158320
     5  C   -0.170896
     6  C   -0.220600
     7  H    0.237440
     8  H    0.223236
     9  H    0.275278
    10  H    0.275335
    11  H    0.223696
    12  N    0.488044
    13  O   -0.460595
    14  O   -0.460647
    15  C   -0.298867
    16  C   -0.300195
    17  C   -0.476087
    18  H    0.150814
    19  H    0.150353
    20  H    0.152468
    21  H    0.152677
    22  H    0.155761
    23  H    0.155742
    24  H    0.161822
    25  C   -0.299308
    26  C   -0.299206
    27  C   -0.482526
    28  H    0.150256
    29  H    0.150016
    30  H    0.155714
    31  H    0.153639
    32  H    0.148649
    33  H    0.157587
    34  H    0.161715
 Sum of Mulliken charges =  -0.00000

 Dipole moment (field-independent basis, Debye):
    X=              4.8600    Y=              2.4355    Z=             -0.0670  Tot=              5.4365
 Quadrupole moment (field-independent basis, Debye-Ang):
   XX=           -133.0246   YY=            -96.3866   ZZ=            -89.1791
   XY=            -10.2199   XZ=             -0.5921   YZ=              0.4902

 Normal termination of Gaussian 16 at Thu May  6 06:19:10 2021.
