 Gaussian 16, Revision A.03,
 Gaussian 16:  EM64L-G16RevA.03 25-Dec-2016

 -------------
 #p 6-31g* mp2
 -------------

 ------------------------------------------------------
 Input file generated by CHIRIPA (05-May-2021 14:53:17)
 ------------------------------------------------------
 Symbolic Z-matrix:
 Charge =  0 Multiplicity = 1

                         Standard orientation:
 ---------------------------------------------------------------------
 Center     Atomic      Atomic             Coordinates (Angstroms)
 Number     Number       Type             X           Y           Z
 ---------------------------------------------------------------------
      1          6           0        4.991560   -0.271911   -0.117626
      2          6           0        5.566276    1.079344    0.308752
      3          6           0        7.069342    1.190235    0.051279
      4          1           0        5.517194   -1.072877    0.420061
      5          1           0        5.193923   -0.427811   -1.186335
      6          1           0        5.361676    1.233264    1.376021
      7          1           0        5.039082    1.877196   -0.229870
      8          1           0        7.288192    1.062567   -1.013806
      9          1           0        7.612619    0.414976    0.601209
     10          1           0        7.459353    2.164053    0.363416
     11          6           0        3.489965   -0.398001    0.133457
     12          6           0        2.915248   -1.749255   -0.292921
     13          6           0        1.412183   -1.860147   -0.035448
     14          1           0        3.287602   -0.242101    1.202166
     15          1           0        2.964330    0.402965   -0.404230
     16          1           0        3.442443   -2.547108    0.245701
     17          1           0        3.119849   -1.903176   -1.360190
     18          1           0        0.868905   -1.084887   -0.585378
     19          1           0        1.193332   -1.732478    1.029637
     20          1           0        1.022172   -2.833965   -0.347585
     21          6           0       -3.635732   -2.238091    0.107633
     22          6           0       -4.738138   -1.384256    0.218030
     23          6           0       -4.571181    0.002421    0.156372
     24          6           0       -3.281904    0.503353   -0.017188
     25          6           0       -2.163723   -0.321356   -0.130389
     26          6           0       -2.354302   -1.704857   -0.065919
     27          1           0       -3.774603   -3.314060    0.156622
     28          1           0       -5.734474   -1.795566    0.352871
     29          1           0       -5.407132    0.686362    0.239005
     30          1           0       -1.182763    0.118229   -0.264176
     31          1           0       -1.496326   -2.365553   -0.151951
     32          7           0       -3.092651    1.969684   -0.083950
     33          8           0       -1.946465    2.386041   -0.237388
     34          8           0       -4.094082    2.674873    0.018423
 ---------------------------------------------------------------------

 SCF Done:  E(RHF) =  -669.535073195     A.U. after   15 cycles
 E2 =    -0.2091840647D+01 EUMP2 =    -0.67162691384176D+03

 The electronic state is 1-A.
 Alpha  occ. eigenvalues --  -20.60691 -20.60686 -15.85741 -11.31064 -11.27637
 Alpha  occ. eigenvalues --  -11.27585 -11.27362 -11.26656 -11.26556 -11.22234
 Alpha  occ. eigenvalues --  -11.22148 -11.21714 -11.21670 -11.21570 -11.21110
 Alpha  occ. eigenvalues --   -1.59766  -1.39321  -1.19231  -1.08768  -1.08636
 Alpha  occ. eigenvalues --   -1.04634  -1.03941  -0.96440  -0.95479  -0.87488
 Alpha  occ. eigenvalues --   -0.86027  -0.82315  -0.80040  -0.78516  -0.77346
 Alpha  occ. eigenvalues --   -0.71962  -0.71088  -0.70359  -0.65394  -0.64882
 Alpha  occ. eigenvalues --   -0.64648  -0.62053  -0.61297  -0.59844  -0.57996
 Alpha  occ. eigenvalues --   -0.55725  -0.55138  -0.53285  -0.52977  -0.52859
 Alpha  occ. eigenvalues --   -0.52545  -0.50369  -0.48721  -0.48714  -0.48320
 Alpha  occ. eigenvalues --   -0.47014  -0.46072  -0.45952  -0.44735  -0.44167
 Alpha  occ. eigenvalues --   -0.37220  -0.36223
 Alpha virt. eigenvalues --    0.05157   0.11422   0.16646   0.20423   0.22675
 Alpha virt. eigenvalues --    0.23924   0.25536   0.26092   0.26783   0.27936
 Alpha virt. eigenvalues --    0.29345   0.29533   0.31269   0.31482   0.32458

 Mulliken charges:
               1
     1  C   -0.298902
     2  C   -0.300416
     3  C   -0.476019
     4  H    0.149370
     5  H    0.150101
     6  H    0.152876
     7  H    0.154974
     8  H    0.155339
     9  H    0.154645
    10  H    0.161717
    11  C   -0.300476
    12  C   -0.299343
    13  C   -0.485984
    14  H    0.151260
    15  H    0.154046
    16  H    0.154171
    17  H    0.154622
    18  H    0.154170
    19  H    0.160328
    20  H    0.155524
    21  C   -0.171884
    22  C   -0.218636
    23  C   -0.171185
    24  C    0.160356
    25  C   -0.179224
    26  C   -0.224146
    27  H    0.225199
    28  H    0.222807
    29  H    0.275017
    30  H    0.279515
    31  H    0.233720
    32  N    0.488342
    33  O   -0.461054
    34  O   -0.460829
 Sum of Mulliken charges =  -0.00000

 Dipole moment (field-independent basis, Debye):
    X=             -0.4246    Y=             -5.1449    Z=              0.2525  Tot=              5.1686
 Quadrupole moment (field-independent basis, Debye-Ang):
   XX=            -86.1974   YY=           -100.5097   ZZ=            -94.7259
   XY=             15.8336   XZ=             -1.1375   YZ=             -0.0627

 Normal termination of Gaussian 16 at Wed May  5 22:01:29 2021.
