 Gaussian 16, Revision A.03,
 Gaussian 16:  EM64L-G16RevA.03 25-Dec-2016

 -------------
 #p 6-31g* mp2
 -------------

 ------------------------------------------------------
 Input file generated by CHIRIPA (05-May-2021 14:53:17)
 ------------------------------------------------------
 Symbolic Z-matrix:
 Charge =  0 Multiplicity = 1

                         Standard orientation:
 ---------------------------------------------------------------------
 Center     Atomic      Atomic             Coordinates (Angstroms)
 Number     Number       Type             X           Y           Z
 ---------------------------------------------------------------------
      1          6           0       -2.769659    0.600941   -0.088068
      2          6           0       -2.808337    2.028338   -0.634901
      3          6           0       -1.493495    2.778968   -0.421504
      4          1           0       -2.533536    0.632215    0.984412
      5          1           0       -1.950260    0.052161   -0.572652
      6          1           0       -3.628294    2.573850   -0.150439
      7          1           0       -3.044584    1.993672   -1.706163
      8          1           0       -0.668253    2.259685   -0.919421
      9          1           0       -1.255279    2.843160    0.645142
     10          1           0       -1.543255    3.797142   -0.819883
     11          6           0       -4.076882   -0.162293   -0.293906
     12          6           0       -4.038204   -1.589690    0.252927
     13          6           0       -5.353046   -2.340320    0.039530
     14          1           0       -4.896281    0.386487    0.190678
     15          1           0       -4.313005   -0.193567   -1.366386
     16          1           0       -3.801957   -1.555024    1.324189
     17          1           0       -3.218248   -2.135202   -0.231535
     18          1           0       -5.591262   -2.404512   -1.027115
     19          1           0       -6.178288   -1.821037    0.537448
     20          1           0       -5.303287   -3.358494    0.437909
     21          6           0        3.556948   -2.455544   -0.458681
     22          6           0        4.133284   -1.310644   -1.018645
     23          6           0        3.652431   -0.039938   -0.689043
     24          6           0        2.589111    0.049480    0.207977
     25          6           0        1.993795   -1.072420    0.782631
     26          6           0        2.490923   -2.332994    0.438588
     27          1           0        3.936807   -3.438723   -0.720332
     28          1           0        4.961286   -1.402795   -1.715759
     29          1           0        4.079995    0.862986   -1.107772
     30          1           0        1.169583   -0.948711    1.474576
     31          1           0        2.041380   -3.220401    0.875012
     32          7           0        2.071440    1.389357    0.564555
     33          8           0        1.133657    1.441247    1.357340
     34          8           0        2.613275    2.362291    0.044506
 ---------------------------------------------------------------------

 SCF Done:  E(RHF) =  -669.535507729     A.U. after   15 cycles
 E2 =    -0.2091998264D+01 EUMP2 =    -0.67162750599290D+03

 The electronic state is 1-A.
 Alpha  occ. eigenvalues --  -20.60863 -20.60845 -15.85879 -11.31244 -11.27809
 Alpha  occ. eigenvalues --  -11.27803 -11.27552 -11.26823 -11.26813 -11.21417
 Alpha  occ. eigenvalues --  -11.20973 -11.20945 -11.20744 -11.20672 -11.19597
 Alpha  occ. eigenvalues --   -1.59915  -1.39471  -1.19414  -1.08813  -1.07890
 Alpha  occ. eigenvalues --   -1.04813  -1.02893  -0.95656  -0.95298  -0.86314
 Alpha  occ. eigenvalues --   -0.86209  -0.82484  -0.79009  -0.77662  -0.77514
 Alpha  occ. eigenvalues --   -0.72113  -0.71239  -0.70520  -0.65068  -0.64816
 Alpha  occ. eigenvalues --   -0.64533  -0.62159  -0.60298  -0.58768  -0.56909
 Alpha  occ. eigenvalues --   -0.55317  -0.54584  -0.53151  -0.52905  -0.52003
 Alpha  occ. eigenvalues --   -0.51725  -0.49265  -0.48874  -0.48853  -0.47261
 Alpha  occ. eigenvalues --   -0.46067  -0.45321  -0.45096  -0.44637  -0.43158
 Alpha  occ. eigenvalues --   -0.37394  -0.36416
 Alpha virt. eigenvalues --    0.04984   0.11226   0.16462   0.21328   0.23300
 Alpha virt. eigenvalues --    0.24945   0.27061   0.27140   0.27684   0.28577
 Alpha virt. eigenvalues --    0.28769   0.30964   0.31955   0.32139   0.32542

 Mulliken charges:
               1
     1  C   -0.296232
     2  C   -0.301606
     3  C   -0.470833
     4  H    0.153476
     5  H    0.143830
     6  H    0.148920
     7  H    0.146569
     8  H    0.149198
     9  H    0.174922
    10  H    0.154925
    11  C   -0.297544
    12  C   -0.298771
    13  C   -0.475117
    14  H    0.149522
    15  H    0.148142
    16  H    0.150837
    17  H    0.147663
    18  H    0.154821
    19  H    0.155895
    20  H    0.157676
    21  C   -0.170738
    22  C   -0.218600
    23  C   -0.170986
    24  C    0.157743
    25  C   -0.170957
    26  C   -0.218667
    27  H    0.225810
    28  H    0.223636
    29  H    0.275788
    30  H    0.276353
    31  H    0.223857
    32  N    0.487985
    33  O   -0.457987
    34  O   -0.459530
 Sum of Mulliken charges =  -0.00000

 Dipole moment (field-independent basis, Debye):
    X=              2.0231    Y=             -4.6140    Z=             -1.1224  Tot=              5.1616
 Quadrupole moment (field-independent basis, Debye-Ang):
   XX=            -84.7092   YY=            -95.1595   ZZ=            -93.3011
   XY=            -11.5244   XZ=             -6.0108   YZ=             -1.9303

 Normal termination of Gaussian 16 at Thu May  6 01:14:03 2021.
