 Gaussian 16, Revision A.03,
 Gaussian 16:  EM64L-G16RevA.03 25-Dec-2016

 -------------
 #p 6-31g* mp2
 -------------

 ------------------------------------------------------
 Input file generated by CHIRIPA (05-May-2021 14:57:21)
 ------------------------------------------------------
 Symbolic Z-matrix:
 Charge =  0 Multiplicity = 1

                         Standard orientation:
 ---------------------------------------------------------------------
 Center     Atomic      Atomic             Coordinates (Angstroms)
 Number     Number       Type             X           Y           Z
 ---------------------------------------------------------------------
      1          6           0        6.035276    1.051207   -0.359703
      2          6           0        5.072404    1.623457    0.478109
      3          6           0        3.873810    0.954323    0.743026
      4          6           0        3.670102   -0.291063    0.150737
      5          6           0        4.610088   -0.887386   -0.688378
      6          6           0        5.801457   -0.200181   -0.939251
      7          1           0        6.963566    1.578026   -0.560042
      8          1           0        5.251285    2.595172    0.929569
      9          1           0        3.111315    1.374242    1.387764
     10          1           0        4.403263   -1.857408   -1.123923
     11          1           0        6.547447   -0.647019   -1.590311
     12          7           0        2.405028   -1.009010    0.423759
     13          8           0        2.249628   -2.105042   -0.110284
     14          8           0        1.592818   -0.462111    1.166626
     15          6           0       -6.382996   -0.118676   -0.010844
     16          6           0       -5.833157    1.152099   -0.209160
     17          6           0       -4.446946    1.325358   -0.263443
     18          6           0       -3.636485    0.200909   -0.114914
     19          6           0       -4.154117   -1.078076    0.083939
     20          6           0       -5.543203   -1.227753    0.134815
     21          1           0       -7.460955   -0.244108    0.030002
     22          1           0       -6.482924    2.015221   -0.322595
     23          1           0       -3.994643    2.297783   -0.415854
     24          1           0       -3.480817   -1.919526    0.193699
     25          1           0       -5.967423   -2.215844    0.288947
     26          7           0       -2.167445    0.371847   -0.170579
     27          8           0       -1.475024   -0.634794   -0.036921
     28          8           0       -1.736246    1.509234   -0.346811
 ---------------------------------------------------------------------

 SCF Done:  E(RHF) =  -868.335182458     A.U. after   16 cycles
 E2 =    -0.2600422999D+01 EUMP2 =    -0.87093560545678D+03

 The electronic state is 1-A.
 Alpha  occ. eigenvalues --  -20.59715 -20.59584 -20.59390 -20.59276 -15.84708
 Alpha  occ. eigenvalues --  -15.84404 -11.30416 -11.30160 -11.27055 -11.26992
 Alpha  occ. eigenvalues --  -11.26849 -11.26801 -11.26754 -11.26621 -11.26142
 Alpha  occ. eigenvalues --  -11.26105 -11.25910 -11.25882  -1.58724  -1.58386
 Alpha  occ. eigenvalues --   -1.38269  -1.37939  -1.18625  -1.18374  -1.07961
 Alpha  occ. eigenvalues --   -1.07699  -1.04078  -1.03840  -0.94737  -0.94463
 Alpha  occ. eigenvalues --   -0.85461  -0.85221  -0.81563  -0.81305  -0.76553
 Alpha  occ. eigenvalues --   -0.76279  -0.70951  -0.70596  -0.70067  -0.69735
 Alpha  occ. eigenvalues --   -0.69709  -0.69493  -0.64269  -0.64090  -0.64023
 Alpha  occ. eigenvalues --   -0.63855  -0.61420  -0.61185  -0.54579  -0.54345
 Alpha  occ. eigenvalues --   -0.52393  -0.52177  -0.52144  -0.51945  -0.47871
 Alpha  occ. eigenvalues --   -0.47693  -0.47368  -0.47150  -0.43608  -0.43215
 Alpha  occ. eigenvalues --   -0.36632  -0.36381  -0.35699  -0.35460
 Alpha virt. eigenvalues --    0.05981   0.06288   0.11950   0.12189   0.17409
 Alpha virt. eigenvalues --    0.17698   0.22037   0.22239   0.27924   0.28120
 Alpha virt. eigenvalues --    0.28970   0.29175   0.31559   0.31751   0.33254

 Mulliken charges:
               1
     1  C   -0.172244
     2  C   -0.218719
     3  C   -0.169735
     4  C    0.160398
     5  C   -0.171721
     6  C   -0.218692
     7  H    0.221865
     8  H    0.220645
     9  H    0.277473
    10  H    0.273712
    11  H    0.219855
    12  N    0.488760
    13  O   -0.465018
    14  O   -0.446559
    15  C   -0.172022
    16  C   -0.218660
    17  C   -0.171911
    18  C    0.159046
    19  C   -0.171367
    20  C   -0.218752
    21  H    0.222835
    22  H    0.220464
    23  H    0.273389
    24  H    0.279206
    25  H    0.221877
    26  N    0.486347
    27  O   -0.442183
    28  O   -0.468289
 Sum of Mulliken charges =  -0.00000

 Dipole moment (field-independent basis, Debye):
    X=             -0.7819    Y=              1.7846    Z=             -0.6496  Tot=              2.0538
 Quadrupole moment (field-independent basis, Debye-Ang):
   XX=            -38.5442   YY=            -99.5519   ZZ=           -104.8689
   XY=              7.6806   XZ=             -3.9279   YZ=              2.5463

 Normal termination of Gaussian 16 at Thu May  6 08:05:54 2021.
