 Gaussian 16, Revision A.03,
 Gaussian 16:  EM64L-G16RevA.03 25-Dec-2016

 -------------
 #p 6-31g* mp2
 -------------

 ------------------------------------------------------
 Input file generated by CHIRIPA (05-May-2021 14:57:24)
 ------------------------------------------------------
 Symbolic Z-matrix:
 Charge =  0 Multiplicity = 1

                         Standard orientation:
 ---------------------------------------------------------------------
 Center     Atomic      Atomic             Coordinates (Angstroms)
 Number     Number       Type             X           Y           Z
 ---------------------------------------------------------------------
      1          6           0       -2.455118    2.079189    0.798678
      2          6           0       -3.686425    2.370599    0.202453
      3          6           0       -4.505494    1.342712   -0.274119
      4          6           0       -4.060080    0.028847   -0.137530
      5          6           0       -2.838576   -0.293562    0.451768
      6          6           0       -2.035863    0.750381    0.921217
      7          1           0       -1.825198    2.883913    1.166124
      8          1           0       -4.014586    3.401639    0.105946
      9          1           0       -5.463387    1.540015   -0.739876
     10          1           0       -2.538445   -1.331157    0.533839
     11          1           0       -1.080102    0.521102    1.383815
     12          7           0       -4.918534   -1.067830   -0.638285
     13          8           0       -4.503332   -2.217069   -0.506019
     14          8           0       -5.990337   -0.757401   -1.153560
     15          6           0        5.626982    1.102752   -1.258427
     16          6           0        5.646398   -0.295604   -1.285686
     17          6           0        4.704696   -1.033004   -0.561816
     18          6           0        3.753435   -0.336466    0.181977
     19          6           0        3.708140    1.056016    0.229254
     20          6           0        4.659621    1.772917   -0.502378
     21          1           0        6.362317    1.667620   -1.823761
     22          1           0        6.396504   -0.818731   -1.871966
     23          1           0        4.696829   -2.116214   -0.565165
     24          1           0        2.948172    1.549391    0.822925
     25          1           0        4.642142    2.858832   -0.479348
     26          7           0        2.751322   -1.106268    0.952414
     27          8           0        1.923583   -0.468890    1.599897
     28          8           0        2.812579   -2.332439    0.894210
 ---------------------------------------------------------------------

 SCF Done:  E(RHF) =  -868.339528462     A.U. after   16 cycles
 E2 =    -0.2598439427D+01 EUMP2 =    -0.87093796788928D+03

 The electronic state is 1-A.
 Alpha  occ. eigenvalues --  -20.61633 -20.61557 -20.60201 -20.60185 -15.86633
 Alpha  occ. eigenvalues --  -15.85242 -11.31804 -11.30523 -11.28391 -11.28316
 Alpha  occ. eigenvalues --  -11.28043 -11.27337 -11.27289 -11.27118 -11.26963
 Alpha  occ. eigenvalues --  -11.26813 -11.26163 -11.25879  -1.60654  -1.59273
 Alpha  occ. eigenvalues --   -1.40217  -1.38828  -1.19955  -1.18675  -1.09382
 Alpha  occ. eigenvalues --   -1.08099  -1.05333  -1.04037  -0.96252  -0.94950
 Alpha  occ. eigenvalues --   -0.86739  -0.85447  -0.83096  -0.81760  -0.78169
 Alpha  occ. eigenvalues --   -0.76810  -0.72864  -0.71957  -0.71463  -0.71063
 Alpha  occ. eigenvalues --   -0.70595  -0.69811  -0.65615  -0.65333  -0.64319
 Alpha  occ. eigenvalues --   -0.64002  -0.62689  -0.61356  -0.55831  -0.54590
 Alpha  occ. eigenvalues --   -0.53666  -0.53424  -0.52413  -0.52093  -0.49630
 Alpha  occ. eigenvalues --   -0.49583  -0.48223  -0.48211  -0.45658  -0.44251
 Alpha  occ. eigenvalues --   -0.37915  -0.36925  -0.36691  -0.35643
 Alpha virt. eigenvalues --    0.04337   0.05677   0.10733   0.11998   0.15848
 Alpha virt. eigenvalues --    0.17193   0.20820   0.22206   0.26746   0.27422
 Alpha virt. eigenvalues --    0.28466   0.28936   0.30439   0.31553   0.32168

 Mulliken charges:
               1
     1  C   -0.173044
     2  C   -0.218606
     3  C   -0.172950
     4  C    0.158276
     5  C   -0.173317
     6  C   -0.227709
     7  H    0.221487
     8  H    0.219671
     9  H    0.272956
    10  H    0.280089
    11  H    0.245397
    12  N    0.487902
    13  O   -0.459455
    14  O   -0.463274
    15  C   -0.169932
    16  C   -0.218266
    17  C   -0.170004
    18  C    0.158484
    19  C   -0.170189
    20  C   -0.218114
    21  H    0.227697
    22  H    0.225948
    23  H    0.277572
    24  H    0.270730
    25  H    0.223871
    26  N    0.491208
    27  O   -0.472391
    28  O   -0.454036
 Sum of Mulliken charges =  -0.00000

 Dipole moment (field-independent basis, Debye):
    X=              7.0153    Y=              6.4012    Z=             -0.9701  Tot=              9.5462
 Quadrupole moment (field-independent basis, Debye-Ang):
   XX=           -100.5789   YY=           -101.0677   ZZ=           -106.8179
   XY=            -10.9848   XZ=            -17.4991   YZ=              1.2868

 Normal termination of Gaussian 16 at Fri May  7 08:01:34 2021.
