 Gaussian 16, Revision A.03,
 Gaussian 16:  EM64L-G16RevA.03 25-Dec-2016

 -------------
 #p 6-31g* mp2
 -------------

 ------------------------------------------------------
 Input file generated by CHIRIPA (05-May-2021 14:55:20)
 ------------------------------------------------------
 Symbolic Z-matrix:
 Charge =  0 Multiplicity = 1

                         Standard orientation:
 ---------------------------------------------------------------------
 Center     Atomic      Atomic             Coordinates (Angstroms)
 Number     Number       Type             X           Y           Z
 ---------------------------------------------------------------------
      1          6           0        3.331758    0.879555    1.115493
      2          6           0        2.354003    0.248991    1.891963
      3          6           0        1.484906   -0.684136    1.318821
      4          6           0        1.622287   -0.964123   -0.039864
      5          6           0        2.586293   -0.352588   -0.839868
      6          6           0        3.444584    0.577286   -0.245545
      7          1           0        4.002696    1.603167    1.568951
      8          1           0        2.264072    0.481779    2.949208
      9          1           0        0.719000   -1.187043    1.896654
     10          1           0        2.651606   -0.605276   -1.891201
     11          1           0        4.202982    1.065444   -0.851002
     12          7           0        0.707933   -1.950260   -0.657836
     13          8           0        0.849511   -2.179510   -1.857018
     14          8           0       -0.133002   -2.475273    0.068681
     15          6           0       -2.950545    0.707649   -0.213970
     16          6           0       -3.344337   -0.343585    0.824211
     17          6           0       -4.709424   -0.971498    0.541270
     18          1           0       -3.718440    1.492863   -0.240851
     19          1           0       -2.942543    0.244050   -1.210167
     20          1           0       -3.350249    0.121523    1.818322
     21          1           0       -2.575319   -1.126289    0.848760
     22          1           0       -4.712803   -1.460929   -0.438038
     23          1           0       -5.492136   -0.206027    0.537032
     24          1           0       -4.971091   -1.720104    1.295577
     25          6           0       -1.588292    1.344435    0.055288
     26          6           0       -1.194502    2.395669   -0.982894
     27          6           0        0.170586    3.023582   -0.699953
     28          1           0       -1.596296    1.808034    1.051484
     29          1           0       -0.820398    0.559222    0.082168
     30          1           0       -1.963519    3.178372   -1.007443
     31          1           0       -1.188590    1.930560   -1.977005
     32          1           0        0.953298    2.258112   -0.695714
     33          1           0        0.173966    3.513013    0.279356
     34          1           0        0.432253    3.772189   -1.454260
 ---------------------------------------------------------------------

 SCF Done:  E(RHF) =  -669.534764231     A.U. after   15 cycles
 E2 =    -0.2096567609D+01 EUMP2 =    -0.67163133184035D+03

 The electronic state is 1-A.
 Alpha  occ. eigenvalues --  -20.61061 -20.61053 -15.86065 -11.31331 -11.27923
 Alpha  occ. eigenvalues --  -11.27898 -11.27645 -11.26912 -11.26890 -11.21367
 Alpha  occ. eigenvalues --  -11.21034 -11.20929 -11.20809 -11.20747 -11.20339
 Alpha  occ. eigenvalues --   -1.60110  -1.39667  -1.19544  -1.08942  -1.07971
 Alpha  occ. eigenvalues --   -1.04923  -1.03053  -0.95784  -0.95542  -0.86565
 Alpha  occ. eigenvalues --   -0.86318  -0.82618  -0.79158  -0.77843  -0.77621
 Alpha  occ. eigenvalues --   -0.72297  -0.71450  -0.70628  -0.65192  -0.64911
 Alpha  occ. eigenvalues --   -0.64586  -0.62260  -0.60467  -0.58944  -0.57157
 Alpha  occ. eigenvalues --   -0.55417  -0.54880  -0.53343  -0.52999  -0.52244
 Alpha  occ. eigenvalues --   -0.51962  -0.49502  -0.49072  -0.49048  -0.47413
 Alpha  occ. eigenvalues --   -0.46135  -0.45606  -0.45276  -0.44611  -0.43319
 Alpha  occ. eigenvalues --   -0.37448  -0.36466
 Alpha virt. eigenvalues --    0.04789   0.11081   0.16262   0.21210   0.23234
 Alpha virt. eigenvalues --    0.24714   0.26670   0.27109   0.27686   0.28269
 Alpha virt. eigenvalues --    0.28651   0.30960   0.31641   0.31883   0.32503

 Mulliken charges:
               1
     1  C   -0.168714
     2  C   -0.215575
     3  C   -0.171199
     4  C    0.156313
     5  C   -0.173382
     6  C   -0.218692
     7  H    0.226876
     8  H    0.224523
     9  H    0.276550
    10  H    0.276307
    11  H    0.224840
    12  N    0.492228
    13  O   -0.458116
    14  O   -0.459917
    15  C   -0.296874
    16  C   -0.310668
    17  C   -0.474881
    18  H    0.146168
    19  H    0.154351
    20  H    0.143384
    21  H    0.173743
    22  H    0.159057
    23  H    0.150542
    24  H    0.159002
    25  C   -0.301736
    26  C   -0.299279
    27  C   -0.481965
    28  H    0.144041
    29  H    0.150252
    30  H    0.151220
    31  H    0.153940
    32  H    0.160507
    33  H    0.150498
    34  H    0.156655
 Sum of Mulliken charges =  -0.00000

 Dipole moment (field-independent basis, Debye):
    X=              3.4328    Y=              3.2293    Z=              2.1513  Tot=              5.1808
 Quadrupole moment (field-independent basis, Debye-Ang):
   XX=            -84.6819   YY=           -102.3371   ZZ=            -90.8162
   XY=              2.5422   XZ=              1.2075   YZ=             -2.4420

 Normal termination of Gaussian 16 at Thu May  6 07:44:46 2021.
