 Gaussian 16, Revision A.03,
 Gaussian 16:  EM64L-G16RevA.03 25-Dec-2016

 -------------
 #p 6-31g* mp2
 -------------

 ------------------------------------------------------
 Input file generated by CHIRIPA (05-May-2021 14:57:23)
 ------------------------------------------------------
 Symbolic Z-matrix:
 Charge =  0 Multiplicity = 1

                         Standard orientation:
 ---------------------------------------------------------------------
 Center     Atomic      Atomic             Coordinates (Angstroms)
 Number     Number       Type             X           Y           Z
 ---------------------------------------------------------------------
      1          6           0       -1.937021    2.664346   -0.402298
      2          6           0       -2.827264    1.931634   -1.194208
      3          6           0       -3.192548    0.631030   -0.834285
      4          6           0       -2.646069    0.091724    0.329245
      5          6           0       -1.756727    0.796426    1.139032
      6          6           0       -1.405531    2.095407    0.759746
      7          1           0       -1.658732    3.674056   -0.689416
      8          1           0       -3.241593    2.370933   -2.097200
      9          1           0       -3.879650    0.041449   -1.429013
     10          1           0       -1.360213    0.331669    2.033569
     11          1           0       -0.713938    2.662099    1.376677
     12          7           0       -3.025322   -1.284308    0.720529
     13          8           0       -2.529935   -1.736775    1.750336
     14          8           0       -3.810785   -1.884319   -0.009998
     15          6           0        0.746773   -1.727395   -1.268333
     16          6           0        0.598971   -0.338831   -1.187313
     17          6           0        1.610194    0.451698   -0.633202
     18          6           0        2.761138   -0.182305   -0.167734
     19          6           0        2.938023   -1.563445   -0.234468
     20          6           0        1.913771   -2.334202   -0.792491
     21          1           0       -0.043831   -2.333817   -1.700300
     22          1           0       -0.306246    0.135143   -1.556061
     23          1           0        1.521911    1.528725   -0.558136
     24          1           0        3.851854   -2.007248    0.141524
     25          1           0        2.031295   -3.412364   -0.854118
     26          7           0        3.838573    0.644126    0.420949
     27          8           0        4.842875    0.061357    0.823929
     28          8           0        3.658361    1.859002    0.468231
 ---------------------------------------------------------------------

 SCF Done:  E(RHF) =  -868.337438130     A.U. after   16 cycles
 E2 =    -0.2604439229D+01 EUMP2 =    -0.87094187735878D+03

 The electronic state is 1-A.
 Alpha  occ. eigenvalues --  -20.61608 -20.61576 -20.60934 -20.60900 -15.86647
 Alpha  occ. eigenvalues --  -15.85964 -11.32064 -11.31180 -11.28721 -11.28582
 Alpha  occ. eigenvalues --  -11.28421 -11.27750 -11.27708 -11.27658 -11.27582
 Alpha  occ. eigenvalues --  -11.27326 -11.26651 -11.26589  -1.60675  -1.59996
 Alpha  occ. eigenvalues --   -1.40221  -1.39556  -1.20327  -1.19306  -1.09670
 Alpha  occ. eigenvalues --   -1.08725  -1.05699  -1.04677  -0.96477  -0.95593
 Alpha  occ. eigenvalues --   -0.87059  -0.86092  -0.83282  -0.82430  -0.78324
 Alpha  occ. eigenvalues --   -0.77524  -0.72854  -0.72189  -0.72022  -0.71340
 Alpha  occ. eigenvalues --   -0.71317  -0.70395  -0.65914  -0.65628  -0.64951
 Alpha  occ. eigenvalues --   -0.64713  -0.62988  -0.62115  -0.56139  -0.55243
 Alpha  occ. eigenvalues --   -0.54244  -0.53715  -0.52972  -0.52425  -0.49627
 Alpha  occ. eigenvalues --   -0.49607  -0.48955  -0.48916  -0.45608  -0.44994
 Alpha  occ. eigenvalues --   -0.38442  -0.37668  -0.37190  -0.35852
 Alpha virt. eigenvalues --    0.04054   0.05109   0.10096   0.11458   0.15666
 Alpha virt. eigenvalues --    0.16584   0.20534   0.21762   0.26261   0.27487
 Alpha virt. eigenvalues --    0.27729   0.28503   0.30316   0.31122   0.31818

 Mulliken charges:
               1
     1  C   -0.176963
     2  C   -0.221866
     3  C   -0.181026
     4  C    0.156884
     5  C   -0.164430
     6  C   -0.224343
     7  H    0.231881
     8  H    0.227561
     9  H    0.277281
    10  H    0.281048
    11  H    0.233810
    12  N    0.487109
    13  O   -0.455600
    14  O   -0.462020
    15  C   -0.174917
    16  C   -0.221421
    17  C   -0.175143
    18  C    0.158404
    19  C   -0.172295
    20  C   -0.215834
    21  H    0.230417
    22  H    0.229402
    23  H    0.266867
    24  H    0.275399
    25  H    0.225997
    26  N    0.488324
    27  O   -0.458699
    28  O   -0.465828
 Sum of Mulliken charges =  -0.00000

 Dipole moment (field-independent basis, Debye):
    X=             -2.6582    Y=              1.8966    Z=             -3.2885  Tot=              4.6344
 Quadrupole moment (field-independent basis, Debye-Ang):
   XX=           -130.8933   YY=            -99.6833   ZZ=           -102.5269
   XY=            -23.0519   XZ=              2.0731   YZ=              2.0203

 Normal termination of Gaussian 16 at Fri May  7 11:03:41 2021.
