 Gaussian 16, Revision A.03,
 Gaussian 16:  EM64L-G16RevA.03 25-Dec-2016

 -------------
 #p 6-31g* mp2
 -------------

 ------------------------------------------------------
 Input file generated by CHIRIPA (05-May-2021 14:57:25)
 ------------------------------------------------------
 Symbolic Z-matrix:
 Charge =  0 Multiplicity = 1

                         Standard orientation:
 ---------------------------------------------------------------------
 Center     Atomic      Atomic             Coordinates (Angstroms)
 Number     Number       Type             X           Y           Z
 ---------------------------------------------------------------------
      1          6           0       -1.526712    2.509581   -0.590419
      2          6           0       -2.899304    2.494735   -0.321550
      3          6           0       -3.557958    1.290318   -0.056778
      4          6           0       -2.809801    0.114137   -0.069053
      5          6           0       -1.441199    0.096288   -0.333438
      6          6           0       -0.803315    1.312420   -0.595496
      7          1           0       -1.023121    3.449751   -0.795046
      8          1           0       -3.463639    3.422932   -0.316940
      9          1           0       -4.619642    1.250024    0.154456
     10          1           0       -0.905363   -0.845143   -0.331000
     11          1           0        0.262756    1.320931   -0.803980
     12          7           0       -3.496094   -1.167126    0.209813
     13          8           0       -2.814408   -2.189701    0.193060
     14          8           0       -4.702702   -1.124544    0.439860
     15          6           0        3.428478    2.033757    0.630023
     16          6           0        3.708655    1.470960   -0.619489
     17          6           0        3.307971    0.164747   -0.915814
     18          6           0        2.625946   -0.553371    0.065224
     19          6           0        2.331989   -0.020467    1.319375
     20          6           0        2.742249    1.287563    1.593768
     21          1           0        3.743459    3.049161    0.851696
     22          1           0        4.241434    2.048122   -1.369874
     23          1           0        3.511807   -0.295504   -1.875000
     24          1           0        1.799250   -0.620499    2.047089
     25          1           0        2.523291    1.722065    2.565009
     26          7           0        2.196691   -1.937162   -0.236873
     27          8           0        1.597208   -2.548980    0.644567
     28          8           0        2.467851   -2.383756   -1.349376
 ---------------------------------------------------------------------

 SCF Done:  E(RHF) =  -868.336968228     A.U. after   16 cycles
 E2 =    -0.2602792656D+01 EUMP2 =    -0.87093976088400D+03

 The electronic state is 1-A.
 Alpha  occ. eigenvalues --  -20.61468 -20.61427 -20.60364 -20.60312 -15.86486
 Alpha  occ. eigenvalues --  -15.85396 -11.32062 -11.30936 -11.28661 -11.28587
 Alpha  occ. eigenvalues --  -11.28396 -11.27705 -11.27622 -11.27543 -11.27449
 Alpha  occ. eigenvalues --  -11.27337 -11.26622 -11.26511  -1.60526  -1.59421
 Alpha  occ. eigenvalues --   -1.40063  -1.38963  -1.20278  -1.19127  -1.09614
 Alpha  occ. eigenvalues --   -1.08503  -1.05658  -1.04550  -0.96399  -0.95305
 Alpha  occ. eigenvalues --   -0.87033  -0.85938  -0.83196  -0.82128  -0.78224
 Alpha  occ. eigenvalues --   -0.77140  -0.72668  -0.71915  -0.71597  -0.71302
 Alpha  occ. eigenvalues --   -0.70754  -0.70238  -0.65872  -0.65607  -0.64775
 Alpha  occ. eigenvalues --   -0.64570  -0.62960  -0.61898  -0.56121  -0.55115
 Alpha  occ. eigenvalues --   -0.54117  -0.53701  -0.52879  -0.52466  -0.49458
 Alpha  occ. eigenvalues --   -0.49436  -0.48393  -0.48348  -0.45389  -0.44331
 Alpha  occ. eigenvalues --   -0.38289  -0.37407  -0.37104  -0.36073
 Alpha virt. eigenvalues --    0.04251   0.05385   0.10350   0.11486   0.15696
 Alpha virt. eigenvalues --    0.16837   0.20652   0.21468   0.26610   0.26939
 Alpha virt. eigenvalues --    0.27567   0.28283   0.30333   0.30958   0.31803

 Mulliken charges:
               1
     1  C   -0.173734
     2  C   -0.218793
     3  C   -0.171683
     4  C    0.157504
     5  C   -0.178030
     6  C   -0.223288
     7  H    0.221072
     8  H    0.221368
     9  H    0.275018
    10  H    0.283558
    11  H    0.227915
    12  N    0.486758
    13  O   -0.452147
    14  O   -0.463503
    15  C   -0.174640
    16  C   -0.221149
    17  C   -0.176734
    18  C    0.150343
    19  C   -0.172477
    20  C   -0.217837
    21  H    0.228025
    22  H    0.226469
    23  H    0.279202
    24  H    0.281723
    25  H    0.227849
    26  N    0.484693
    27  O   -0.451665
    28  O   -0.455818
 Sum of Mulliken charges =  -0.00000

 Dipole moment (field-independent basis, Debye):
    X=              4.1766    Y=              9.1234    Z=              0.1989  Tot=             10.0360
 Quadrupole moment (field-independent basis, Debye-Ang):
   XX=           -106.5026   YY=           -108.8949   ZZ=           -101.0222
   XY=             -2.3784   XZ=              3.0202   YZ=             -0.6705

 Normal termination of Gaussian 16 at Wed May  5 22:44:35 2021.
