 Gaussian 16, Revision A.03,
 Gaussian 16:  EM64L-G16RevA.03 25-Dec-2016

 -------------
 #p 6-31g* mp2
 -------------

 ------------------------------------------------------
 Input file generated by CHIRIPA (05-May-2021 14:53:12)
 ------------------------------------------------------
 Symbolic Z-matrix:
 Charge =  0 Multiplicity = 1

                         Standard orientation:
 ---------------------------------------------------------------------
 Center     Atomic      Atomic             Coordinates (Angstroms)
 Number     Number       Type             X           Y           Z
 ---------------------------------------------------------------------
      1          6           0       -3.781243    0.652030   -0.597409
      2          6           0       -3.616824    1.918603    0.243271
      3          6           0       -3.738115    3.197922   -0.585237
      4          1           0       -3.024859    0.647678   -1.394158
      5          1           0       -4.760191    0.675713   -1.095900
      6          1           0       -2.639048    1.891884    0.741124
      7          1           0       -4.373565    1.919847    1.038229
      8          1           0       -4.718289    3.251471   -1.069997
      9          1           0       -2.973917    3.223350   -1.368791
     10          1           0       -3.617384    4.091197    0.035524
     11          6           0       -3.662536   -0.635130    0.216752
     12          6           0       -3.826955   -1.901703   -0.623928
     13          6           0       -3.705664   -3.181022    0.204580
     14          1           0       -2.683587   -0.658813    0.715243
     15          1           0       -4.418920   -0.630777    1.013501
     16          1           0       -3.070214   -1.902947   -1.418886
     17          1           0       -4.804730   -1.874984   -1.121781
     18          1           0       -4.469861   -3.206449    0.988133
     19          1           0       -2.725490   -3.234571    0.689340
     20          1           0       -3.826395   -4.074297   -0.416182
     21          6           0        0.529804    0.060511    0.989470
     22          6           0        1.080795   -1.145301    0.543437
     23          6           0        2.397289   -1.194251    0.075466
     24          6           0        3.137615   -0.013090    0.067411
     25          6           0        2.616917    1.203662    0.505223
     26          6           0        1.298269    1.229084    0.968976
     27          1           0       -0.493717    0.089399    1.351363
     28          1           0        0.486337   -2.054391    0.558209
     29          1           0        2.848792   -2.114188   -0.275647
     30          1           0        3.234175    2.093434    0.478448
     31          1           0        0.872976    2.166956    1.314764
     32          7           0        4.532468   -0.052457   -0.425776
     33          8           0        5.163868    1.002039   -0.422700
     34          8           0        4.967944   -1.137065   -0.806073
 ---------------------------------------------------------------------

 SCF Done:  E(RHF) =  -669.535407058     A.U. after   15 cycles
 E2 =    -0.2091874008D+01 EUMP2 =    -0.67162728106632D+03

 The electronic state is 1-A.
 Alpha  occ. eigenvalues --  -20.60765 -20.60760 -15.85820 -11.31192 -11.27762
 Alpha  occ. eigenvalues --  -11.27758 -11.27480 -11.26780 -11.26768 -11.22616
 Alpha  occ. eigenvalues --  -11.22550 -11.22490 -11.22304 -11.22005 -11.21860
 Alpha  occ. eigenvalues --   -1.59841  -1.39394  -1.19364  -1.09429  -1.08756
 Alpha  occ. eigenvalues --   -1.04768  -1.04465  -0.96906  -0.95593  -0.87915
 Alpha  occ. eigenvalues --   -0.86165  -0.82427  -0.80530  -0.79260  -0.77470
 Alpha  occ. eigenvalues --   -0.72037  -0.71164  -0.70505  -0.66069  -0.65016
 Alpha  occ. eigenvalues --   -0.64758  -0.62130  -0.61852  -0.60269  -0.58522
 Alpha  occ. eigenvalues --   -0.56244  -0.55250  -0.53570  -0.53319  -0.53095
 Alpha  occ. eigenvalues --   -0.52858  -0.50847  -0.48845  -0.48797  -0.48791
 Alpha  occ. eigenvalues --   -0.47580  -0.46778  -0.46693  -0.44798  -0.44734
 Alpha  occ. eigenvalues --   -0.37338  -0.36374
 Alpha virt. eigenvalues --    0.05049   0.11257   0.16439   0.18266   0.22185
 Alpha virt. eigenvalues --    0.23060   0.24933   0.25925   0.26462   0.27260
 Alpha virt. eigenvalues --    0.29813   0.30543   0.30890   0.31068   0.31663

 Mulliken charges:
               1
     1  C   -0.299778
     2  C   -0.299309
     3  C   -0.476716
     4  H    0.153010
     5  H    0.154064
     6  H    0.141428
     7  H    0.154649
     8  H    0.158640
     9  H    0.157445
    10  H    0.161369
    11  C   -0.300808
    12  C   -0.301108
    13  C   -0.475161
    14  H    0.138825
    15  H    0.153299
    16  H    0.153700
    17  H    0.156454
    18  H    0.158193
    19  H    0.147823
    20  H    0.164535
    21  C   -0.176811
    22  C   -0.221633
    23  C   -0.170850
    24  C    0.158410
    25  C   -0.170782
    26  C   -0.220060
    27  H    0.234861
    28  H    0.223827
    29  H    0.275735
    30  H    0.275623
    31  H    0.223893
    32  N    0.488020
    33  O   -0.460382
    34  O   -0.460405
 Sum of Mulliken charges =  -0.00000

 Dipole moment (field-independent basis, Debye):
    X=             -5.1539    Y=              0.1525    Z=              1.6205  Tot=              5.4048
 Quadrupole moment (field-independent basis, Debye-Ang):
   XX=           -124.0699   YY=            -90.6438   ZZ=            -95.3635
   XY=              1.0946   XZ=              5.3808   YZ=              1.4618

 Normal termination of Gaussian 16 at Thu May  6 18:39:58 2021.
