 Gaussian 16, Revision A.03,
 Gaussian 16:  EM64L-G16RevA.03 25-Dec-2016

 -------------
 #p 6-31g* mp2
 -------------

 ------------------------------------------------------
 Input file generated by CHIRIPA (05-May-2021 14:53:16)
 ------------------------------------------------------
 Symbolic Z-matrix:
 Charge =  0 Multiplicity = 1

                         Standard orientation:
 ---------------------------------------------------------------------
 Center     Atomic      Atomic             Coordinates (Angstroms)
 Number     Number       Type             X           Y           Z
 ---------------------------------------------------------------------
      1          6           0       -3.844474    0.504923   -0.216916
      2          6           0       -3.496727    1.820304    0.480816
      3          6           0       -2.045980    2.245396    0.251857
      4          1           0       -3.168847   -0.283253    0.142598
      5          1           0       -3.657685    0.609096   -1.294716
      6          1           0       -3.685430    1.714124    1.556796
      7          1           0       -4.173386    2.605398    0.119741
      8          1           0       -1.847709    2.378923   -0.816535
      9          1           0       -1.356980    1.482585    0.628686
     10          1           0       -1.818981    3.188095    0.759449
     11          6           0       -5.291382    0.066764    0.002635
     12          6           0       -5.639129   -1.248617   -0.695097
     13          6           0       -7.089876   -1.673709   -0.466138
     14          1           0       -5.478171   -0.037409    1.080435
     15          1           0       -5.967009    0.854940   -0.356879
     16          1           0       -4.962470   -2.033711   -0.334021
     17          1           0       -5.450426   -1.142437   -1.771077
     18          1           0       -7.778875   -0.910898   -0.842967
     19          1           0       -7.288147   -1.807236    0.602254
     20          1           0       -7.316875   -2.616408   -0.973730
     21          6           0        1.229088   -0.334987    1.021625
     22          6           0        1.672159    0.827488    0.382202
     23          6           0        2.966457    0.900576   -0.141244
     24          6           0        3.794878   -0.212519   -0.006972
     25          6           0        3.382595   -1.384834    0.624685
     26          6           0        2.084212   -1.435497    1.140615
     27          1           0        0.222059   -0.383053    1.425331
     28          1           0        1.010237    1.683698    0.288338
     29          1           0        3.335197    1.788072   -0.641042
     30          1           0        4.065393   -2.222140    0.702934
     31          1           0        1.742815   -2.339596    1.636699
     32          7           0        5.167256   -0.147014   -0.557142
     33          8           0        5.877709   -1.141334   -0.425915
     34          8           0        5.506487    0.897408   -1.109176
 ---------------------------------------------------------------------

 SCF Done:  E(RHF) =  -669.535053230     A.U. after   15 cycles
 E2 =    -0.2091550587D+01 EUMP2 =    -0.67162660381734D+03

 The electronic state is 1-A.
 Alpha  occ. eigenvalues --  -20.60709 -20.60704 -15.85761 -11.31115 -11.27681
 Alpha  occ. eigenvalues --  -11.27659 -11.27420 -11.26710 -11.26623 -11.22613
 Alpha  occ. eigenvalues --  -11.22397 -11.22273 -11.22200 -11.22072 -11.21565
 Alpha  occ. eigenvalues --   -1.59784  -1.39338  -1.19282  -1.09252  -1.08685
 Alpha  occ. eigenvalues --   -1.04682  -1.04372  -0.96852  -0.95523  -0.87885
 Alpha  occ. eigenvalues --   -0.86079  -0.82351  -0.80458  -0.79025  -0.77396
 Alpha  occ. eigenvalues --   -0.71981  -0.71107  -0.70424  -0.65893  -0.64938
 Alpha  occ. eigenvalues --   -0.64710  -0.62087  -0.61721  -0.60222  -0.58419
 Alpha  occ. eigenvalues --   -0.56153  -0.55196  -0.53567  -0.53319  -0.53007
 Alpha  occ. eigenvalues --   -0.52694  -0.50787  -0.48794  -0.48736  -0.48687
 Alpha  occ. eigenvalues --   -0.47467  -0.46576  -0.46473  -0.44746  -0.44610
 Alpha  occ. eigenvalues --   -0.37267  -0.36279
 Alpha virt. eigenvalues --    0.05127   0.11359   0.16614   0.19718   0.22277
 Alpha virt. eigenvalues --    0.23637   0.25182   0.25725   0.26574   0.27755
 Alpha virt. eigenvalues --    0.28854   0.29707   0.30805   0.31489   0.31729

 Mulliken charges:
               1
     1  C   -0.297957
     2  C   -0.300822
     3  C   -0.482079
     4  H    0.144465
     5  H    0.152527
     6  H    0.153292
     7  H    0.156912
     8  H    0.160201
     9  H    0.145450
    10  H    0.164090
    11  C   -0.298972
    12  C   -0.300003
    13  C   -0.476147
    14  H    0.149912
    15  H    0.151915
    16  H    0.151062
    17  H    0.153476
    18  H    0.156403
    19  H    0.155494
    20  H    0.161975
    21  C   -0.174548
    22  C   -0.222671
    23  C   -0.171987
    24  C    0.158668
    25  C   -0.171335
    26  C   -0.218317
    27  H    0.225892
    28  H    0.232475
    29  H    0.275563
    30  H    0.275254
    31  H    0.222961
    32  N    0.488031
    33  O   -0.460661
    34  O   -0.460518
 Sum of Mulliken charges =  -0.00000

 Dipole moment (field-independent basis, Debye):
    X=             -5.1009    Y=             -0.1713    Z=              1.8807  Tot=              5.4393
 Quadrupole moment (field-independent basis, Debye-Ang):
   XX=           -132.0512   YY=            -90.0794   ZZ=            -94.3767
   XY=             -1.5060   XZ=              8.1825   YZ=             -2.5860

 Normal termination of Gaussian 16 at Thu May  6 18:53:14 2021.
