 Gaussian 16, Revision A.03,
 Gaussian 16:  EM64L-G16RevA.03 25-Dec-2016

 -------------
 #p 6-31g* mp2
 -------------

 ------------------------------------------------------
 Input file generated by CHIRIPA (05-May-2021 14:51:08)
 ------------------------------------------------------
 Symbolic Z-matrix:
 Charge =  0 Multiplicity = 1

                         Standard orientation:
 ---------------------------------------------------------------------
 Center     Atomic      Atomic             Coordinates (Angstroms)
 Number     Number       Type             X           Y           Z
 ---------------------------------------------------------------------
      1          6           0        3.539475   -0.203664    0.349461
      2          6           0        4.740113    0.008991   -0.573161
      3          6           0        5.779371    0.961360    0.019063
      4          1           0        3.070890    0.767302    0.560642
      5          1           0        3.891571   -0.597002    1.313157
      6          1           0        4.385716    0.400507   -1.535312
      7          1           0        5.205780   -0.962617   -0.782324
      8          1           0        6.160886    0.572884    0.968870
      9          1           0        5.336163    1.943753    0.211604
     10          1           0        6.629023    1.099092   -0.656941
     11          6           0        2.491839   -1.153329   -0.228745
     12          6           0        1.291202   -1.365985    0.693878
     13          6           0        0.251944   -2.318353    0.101653
     14          1           0        2.139743   -0.759992   -1.192441
     15          1           0        2.960425   -2.124296   -0.439926
     16          1           0        0.825535   -0.394377    0.903040
     17          1           0        1.645599   -1.757500    1.656028
     18          1           0        0.695152   -3.300746   -0.090888
     19          1           0       -0.129571   -1.929878   -0.848154
     20          1           0       -0.597708   -2.456086    0.777657
     21          6           0       -3.532859    0.180024    0.199372
     22          6           0       -3.505957   -1.160257   -0.536093
     23          6           0       -4.546345   -2.146905   -0.005138
     24          1           0       -3.362578    0.006607    1.270761
     25          1           0       -4.535880    0.619631    0.109432
     26          1           0       -2.502892   -1.596554   -0.445964
     27          1           0       -3.676130   -0.983610   -1.605884
     28          1           0       -5.555679   -1.735970   -0.109914
     29          1           0       -4.375775   -2.352395    1.056597
     30          1           0       -4.509646   -3.098259   -0.544988
     31          6           0       -2.498455    1.176969   -0.320087
     32          6           0       -2.525358    2.517251    0.415377
     33          6           0       -1.484970    3.503899   -0.115578
     34          1           0       -1.495435    0.737363   -0.230148
     35          1           0       -2.668737    1.350387   -1.391478
     36          1           0       -2.355185    2.340604    1.485168
     37          1           0       -3.528423    2.953547    0.325247
     38          1           0       -1.655539    3.709389   -1.177313
     39          1           0       -0.475636    3.092963   -0.010803
     40          1           0       -1.521669    4.455253    0.424272
 ---------------------------------------------------------------------

 SCF Done:  E(RHF) =  -470.732513404     A.U. after   11 cycles
 E2 =    -0.1583877191D+01 EUMP2 =    -0.47231639059509D+03

 The electronic state is 1-A.
 Alpha  occ. eigenvalues --  -11.21706 -11.21634 -11.21606 -11.21466 -11.21415
 Alpha  occ. eigenvalues --  -11.21404 -11.21376 -11.21301 -11.21163 -11.21101
 Alpha  occ. eigenvalues --  -11.21093 -11.20995  -1.08501  -1.08384  -1.03610
 Alpha  occ. eigenvalues --   -1.03479  -0.96057  -0.95946  -0.87096  -0.86946
 Alpha  occ. eigenvalues --   -0.79733  -0.79493  -0.78306  -0.78204  -0.65249
 Alpha  occ. eigenvalues --   -0.64935  -0.61056  -0.60872  -0.59436  -0.59283
 Alpha  occ. eigenvalues --   -0.57656  -0.57555  -0.55355  -0.55241  -0.52797
 Alpha  occ. eigenvalues --   -0.52624  -0.52472  -0.52363  -0.50103  -0.49822
 Alpha  occ. eigenvalues --   -0.47987  -0.47871  -0.46845  -0.46416  -0.45921
 Alpha  occ. eigenvalues --   -0.45753  -0.45719  -0.45521  -0.43812  -0.43731
 Alpha virt. eigenvalues --    0.20014   0.23064   0.23857   0.24272   0.26131
 Alpha virt. eigenvalues --    0.26811   0.27319   0.27494   0.28004   0.29600
 Alpha virt. eigenvalues --    0.30916   0.31146   0.31719   0.31855   0.32400

 Mulliken charges:
               1
     1  C   -0.298318
     2  C   -0.299747
     3  C   -0.475775
     4  H    0.149466
     5  H    0.149665
     6  H    0.152194
     7  H    0.152023
     8  H    0.155191
     9  H    0.155355
    10  H    0.160421
    11  C   -0.298888
    12  C   -0.302497
    13  C   -0.480716
    14  H    0.150262
    15  H    0.150047
    16  H    0.153291
    17  H    0.152570
    18  H    0.156319
    19  H    0.158744
    20  H    0.162268
    21  C   -0.297106
    22  C   -0.310909
    23  C   -0.475191
    24  H    0.148745
    25  H    0.149229
    26  H    0.165547
    27  H    0.150421
    28  H    0.154738
    29  H    0.154117
    30  H    0.160029
    31  C   -0.303450
    32  C   -0.299451
    33  C   -0.475513
    34  H    0.153659
    35  H    0.149439
    36  H    0.151912
    37  H    0.152220
    38  H    0.155243
    39  H    0.154010
    40  H    0.160436
 Sum of Mulliken charges =  -0.00000

 Dipole moment (field-independent basis, Debye):
    X=              0.0693    Y=             -0.0350    Z=             -0.0070  Tot=              0.0779
 Quadrupole moment (field-independent basis, Debye-Ang):
   XX=            -85.5177   YY=            -85.0998   ZZ=            -84.3103
   XY=             -1.8229   XZ=              0.6042   YZ=             -0.5586

 Normal termination of Gaussian 16 at Thu May  6 03:40:18 2021.
