 Gaussian 16, Revision A.03,
 Gaussian 16:  EM64L-G16RevA.03 25-Dec-2016

 -------------
 #p 6-31g* mp2
 -------------

 ------------------------------------------------------
 Input file generated by CHIRIPA (05-May-2021 14:53:12)
 ------------------------------------------------------
 Symbolic Z-matrix:
 Charge =  0 Multiplicity = 1

                         Standard orientation:
 ---------------------------------------------------------------------
 Center     Atomic      Atomic             Coordinates (Angstroms)
 Number     Number       Type             X           Y           Z
 ---------------------------------------------------------------------
      1          6           0       -5.588425    0.221691    0.030709
      2          6           0       -6.902773   -0.531326    0.239127
      3          6           0       -8.122361    0.390549    0.215731
      4          1           0       -5.485053    0.988731    0.810393
      5          1           0       -5.627712    0.755025   -0.929190
      6          1           0       -6.860478   -1.064200    1.197706
      7          1           0       -7.002936   -1.296791   -0.541031
      8          1           0       -8.192465    0.912380   -0.744154
      9          1           0       -8.049198    1.146293    1.004463
     10          1           0       -9.051122   -0.168467    0.366606
     11          6           0       -4.360113   -0.686353    0.051540
     12          6           0       -3.045764    0.066664   -0.156878
     13          6           0       -1.826177   -0.855211   -0.133482
     14          1           0       -4.320825   -1.219687    1.011439
     15          1           0       -4.463484   -1.453394   -0.728145
     16          1           0       -2.945601    0.832129    0.623280
     17          1           0       -3.088059    0.599537   -1.115457
     18          1           0       -1.899340   -1.610956   -0.922214
     19          1           0       -1.756072   -1.377043    0.826402
     20          1           0       -0.897415   -0.296196   -0.284357
     21          6           0        5.652536   -1.593778    0.274712
     22          6           0        5.925255   -0.267151    0.624286
     23          6           0        4.954084    0.724775    0.458578
     24          6           0        3.715379    0.353137   -0.061793
     25          6           0        3.413399   -0.959944   -0.419444
     26          6           0        4.399686   -1.935340   -0.245121
     27          1           0        6.412837   -2.357909    0.406784
     28          1           0        6.897352    0.001009    1.028222
     29          1           0        5.138510    1.759458    0.720946
     30          1           0        2.435067   -1.196723   -0.819721
     31          1           0        4.185090   -2.964814   -0.517471
     32          7           0        2.679242    1.394494   -0.241781
     33          8           0        1.595792    1.041300   -0.702242
     34          8           0        2.970189    2.544186    0.081014
 ---------------------------------------------------------------------

 SCF Done:  E(RHF) =  -669.536262353     A.U. after   15 cycles
 E2 =    -0.2090667946D+01 EUMP2 =    -0.67162693029938D+03

 The electronic state is 1-A.
 Alpha  occ. eigenvalues --  -20.60925 -20.60910 -15.85959 -11.31261 -11.27827
 Alpha  occ. eigenvalues --  -11.27817 -11.27565 -11.26833 -11.26821 -11.21190
 Alpha  occ. eigenvalues --  -11.20862 -11.20787 -11.20729 -11.20712 -11.20100
 Alpha  occ. eigenvalues --   -1.59982  -1.39539  -1.19431  -1.08839  -1.07839
 Alpha  occ. eigenvalues --   -1.04825  -1.02898  -0.95685  -0.95351  -0.86379
 Alpha  occ. eigenvalues --   -0.86226  -0.82518  -0.78982  -0.77644  -0.77569
 Alpha  occ. eigenvalues --   -0.72188  -0.71295  -0.70541  -0.65089  -0.64829
 Alpha  occ. eigenvalues --   -0.64479  -0.62172  -0.60308  -0.58710  -0.56927
 Alpha  occ. eigenvalues --   -0.55333  -0.54667  -0.53159  -0.52917  -0.52008
 Alpha  occ. eigenvalues --   -0.51779  -0.49332  -0.48939  -0.48927  -0.47284
 Alpha  occ. eigenvalues --   -0.46032  -0.45187  -0.45111  -0.44950  -0.43124
 Alpha  occ. eigenvalues --   -0.37411  -0.36426
 Alpha virt. eigenvalues --    0.04935   0.11228   0.16414   0.21259   0.23422
 Alpha virt. eigenvalues --    0.24893   0.27018   0.27208   0.27732   0.28075
 Alpha virt. eigenvalues --    0.28936   0.30570   0.31793   0.31968   0.32393

 Mulliken charges:
               1
     1  C   -0.297910
     2  C   -0.299094
     3  C   -0.475408
     4  H    0.149858
     5  H    0.149674
     6  H    0.150785
     7  H    0.150772
     8  H    0.155084
     9  H    0.155105
    10  H    0.158697
    11  C   -0.297664
    12  C   -0.297382
    13  C   -0.489620
    14  H    0.147063
    15  H    0.147110
    16  H    0.153736
    17  H    0.153739
    18  H    0.147453
    19  H    0.148010
    20  H    0.186627
    21  C   -0.170578
    22  C   -0.218624
    23  C   -0.170868
    24  C    0.157808
    25  C   -0.170704
    26  C   -0.218701
    27  H    0.225892
    28  H    0.223676
    29  H    0.275703
    30  H    0.276895
    31  H    0.223991
    32  N    0.493195
    33  O   -0.465408
    34  O   -0.458913
 Sum of Mulliken charges =  -0.00000

 Dipole moment (field-independent basis, Debye):
    X=              3.9071    Y=             -3.5592    Z=              0.6155  Tot=              5.3209
 Quadrupole moment (field-independent basis, Debye-Ang):
   XX=            -67.6644   YY=            -95.7062   ZZ=            -94.0198
   XY=             -9.8775   XZ=              3.7000   YZ=              2.0441

 Normal termination of Gaussian 16 at Wed May  5 18:30:35 2021.
