 Gaussian 16, Revision A.03,
 Gaussian 16:  EM64L-G16RevA.03 25-Dec-2016

 -------------
 #p 6-31g* mp2
 -------------

 ------------------------------------------------------
 Input file generated by CHIRIPA (05-May-2021 14:57:27)
 ------------------------------------------------------
 Symbolic Z-matrix:
 Charge =  0 Multiplicity = 1

                         Standard orientation:
 ---------------------------------------------------------------------
 Center     Atomic      Atomic             Coordinates (Angstroms)
 Number     Number       Type             X           Y           Z
 ---------------------------------------------------------------------
      1          6           0        2.176498    2.276205   -0.755129
      2          6           0        1.271741    1.248641   -0.468690
      3          6           0        1.730212   -0.035760   -0.161009
      4          6           0        3.106287   -0.258375   -0.148759
      5          6           0        4.032757    0.744623   -0.429722
      6          6           0        3.551694    2.021366   -0.734766
      7          1           0        1.811572    3.270984   -0.993119
      8          1           0        0.203198    1.443658   -0.483761
      9          1           0        1.051873   -0.849612    0.064644
     10          1           0        5.092152    0.519727   -0.406866
     11          1           0        4.256656    2.817463   -0.956809
     12          7           0        3.603609   -1.614059    0.175574
     13          8           0        4.820815   -1.784439    0.179754
     14          8           0        2.766786   -2.480594    0.419464
     15          6           0       -1.770286    1.614479    1.718252
     16          6           0       -1.916213    0.269856    2.074922
     17          6           0       -2.609054   -0.614325    1.242610
     18          6           0       -3.145558   -0.117762    0.055647
     19          6           0       -3.017041    1.216436   -0.327352
     20          6           0       -2.320197    2.082653    0.520365
     21          1           0       -1.230515    2.294354    2.370796
     22          1           0       -1.490199   -0.096519    3.004614
     23          1           0       -2.736914   -1.660126    1.494343
     24          1           0       -3.452809    1.552312   -1.260472
     25          1           0       -2.208429    3.126397    0.240813
     26          7           0       -3.881157   -1.044295   -0.833639
     27          8           0       -4.344450   -0.582050   -1.873987
     28          8           0       -3.980499   -2.215214   -0.473474
 ---------------------------------------------------------------------

 SCF Done:  E(RHF) =  -868.336983103     A.U. after   16 cycles
 E2 =    -0.2602197375D+01 EUMP2 =    -0.87093918047808D+03

 The electronic state is 1-A.
 Alpha  occ. eigenvalues --  -20.61384 -20.61367 -20.60939 -20.60933 -15.86444
 Alpha  occ. eigenvalues --  -15.85989 -11.32075 -11.31376 -11.28725 -11.28631
 Alpha  occ. eigenvalues --  -11.28436 -11.27934 -11.27887 -11.27752 -11.27700
 Alpha  occ. eigenvalues --  -11.27638 -11.26990 -11.26792  -1.60451  -1.60013
 Alpha  occ. eigenvalues --   -1.39995  -1.39566  -1.20306  -1.19539  -1.09632
 Alpha  occ. eigenvalues --   -1.08943  -1.05724  -1.04926  -0.96403  -0.95777
 Alpha  occ. eigenvalues --   -0.87085  -0.86334  -0.83217  -0.82595  -0.78224
 Alpha  occ. eigenvalues --   -0.77639  -0.72648  -0.72206  -0.71786  -0.71339
 Alpha  occ. eigenvalues --   -0.71325  -0.70681  -0.65911  -0.65670  -0.65185
 Alpha  occ. eigenvalues --   -0.64961  -0.63014  -0.62317  -0.56156  -0.55525
 Alpha  occ. eigenvalues --   -0.54184  -0.53754  -0.53278  -0.52806  -0.49431
 Alpha  occ. eigenvalues --   -0.49390  -0.48965  -0.48961  -0.45342  -0.44966
 Alpha  occ. eigenvalues --   -0.38347  -0.37541  -0.37355  -0.36455
 Alpha virt. eigenvalues --    0.04259   0.04884   0.10168   0.11142   0.15651
 Alpha virt. eigenvalues --    0.16411   0.20443   0.21551   0.26357   0.27413
 Alpha virt. eigenvalues --    0.27536   0.28163   0.30253   0.31137   0.31835

 Mulliken charges:
               1
     1  C   -0.175867
     2  C   -0.225958
     3  C   -0.176227
     4  C    0.159290
     5  C   -0.171973
     6  C   -0.217963
     7  H    0.221583
     8  H    0.235433
     9  H    0.275631
    10  H    0.275794
    11  H    0.223081
    12  N    0.487929
    13  O   -0.459981
    14  O   -0.460171
    15  C   -0.169577
    16  C   -0.220332
    17  C   -0.172188
    18  C    0.158394
    19  C   -0.171368
    20  C   -0.235726
    21  H    0.230094
    22  H    0.230995
    23  H    0.282412
    24  H    0.278635
    25  H    0.224087
    26  N    0.488171
    27  O   -0.458812
    28  O   -0.455385
 Sum of Mulliken charges =  -0.00000

 Dipole moment (field-independent basis, Debye):
    X=              0.5504    Y=              7.8598    Z=              2.1209  Tot=              8.1595
 Quadrupole moment (field-independent basis, Debye-Ang):
   XX=           -127.7035   YY=           -105.6908   ZZ=           -102.8583
   XY=              5.9307   XZ=            -13.2372   YZ=             -3.5189

 Normal termination of Gaussian 16 at Thu May  6 18:10:32 2021.
