 Gaussian 16, Revision A.03,
 Gaussian 16:  EM64L-G16RevA.03 25-Dec-2016

 -------------
 #p 6-31g* mp2
 -------------

 ------------------------------------------------------
 Input file generated by CHIRIPA (05-May-2021 14:57:23)
 ------------------------------------------------------
 Symbolic Z-matrix:
 Charge =  0 Multiplicity = 1

                         Standard orientation:
 ---------------------------------------------------------------------
 Center     Atomic      Atomic             Coordinates (Angstroms)
 Number     Number       Type             X           Y           Z
 ---------------------------------------------------------------------
      1          6           0        3.876127    2.270955    0.395791
      2          6           0        4.887324    1.441731   -0.100585
      3          6           0        4.665617    0.070967   -0.263065
      4          6           0        3.415192   -0.439321    0.082380
      5          6           0        2.387655    0.360961    0.579378
      6          6           0        2.631714    1.728879    0.733592
      7          1           0        4.057036    3.334693    0.518799
      8          1           0        5.854731    1.859959   -0.363747
      9          1           0        5.430755   -0.593839   -0.645184
     10          1           0        1.433612   -0.084986    0.833052
     11          1           0        1.844550    2.370471    1.119310
     12          7           0        3.168649   -1.888982   -0.085255
     13          8           0        2.058313   -2.314032    0.226394
     14          8           0        4.090412   -2.572726   -0.525123
     15          6           0       -1.965408    2.186787   -0.555930
     16          6           0       -3.322578    2.378588   -0.276966
     17          6           0       -4.157747    1.285322   -0.028349
     18          6           0       -3.599913    0.008364   -0.066899
     19          6           0       -2.251704   -0.215205   -0.341922
     20          6           0       -1.435237    0.892783   -0.587463
     21          1           0       -1.323893    3.041781   -0.747866
     22          1           0       -3.737056    3.382392   -0.251818
     23          1           0       -5.211929    1.405156    0.190188
     24          1           0       -1.867391   -1.227823   -0.360040
     25          1           0       -0.381607    0.740825   -0.803840
     26          7           0       -4.474170   -1.156821    0.194672
     27          8           0       -3.958352   -2.271713    0.154840
     28          8           0       -5.658674   -0.933139    0.434570
 ---------------------------------------------------------------------

 SCF Done:  E(RHF) =  -868.337230845     A.U. after   16 cycles
 E2 =    -0.2600452810D+01 EUMP2 =    -0.87093768365499D+03

 The electronic state is 1-A.
 Alpha  occ. eigenvalues --  -20.61405 -20.61384 -20.60723 -20.60699 -15.86455
 Alpha  occ. eigenvalues --  -15.85772 -11.31958 -11.31284 -11.28571 -11.28484
 Alpha  occ. eigenvalues --  -11.28266 -11.27911 -11.27834 -11.27751 -11.27624
 Alpha  occ. eigenvalues --  -11.27520 -11.26966 -11.26943  -1.60468  -1.59789
 Alpha  occ. eigenvalues --   -1.40020  -1.39335  -1.20137  -1.19499  -1.09496
 Alpha  occ. eigenvalues --   -1.08884  -1.05566  -1.04916  -0.96311  -0.95680
 Alpha  occ. eigenvalues --   -0.86948  -0.86319  -0.83143  -0.82504  -0.78189
 Alpha  occ. eigenvalues --   -0.77499  -0.72663  -0.71987  -0.71798  -0.71231
 Alpha  occ. eigenvalues --   -0.71116  -0.70626  -0.65788  -0.65571  -0.65150
 Alpha  occ. eigenvalues --   -0.64940  -0.62939  -0.62182  -0.56029  -0.55470
 Alpha  occ. eigenvalues --   -0.53897  -0.53660  -0.53249  -0.52954  -0.49432
 Alpha  occ. eigenvalues --   -0.49416  -0.48765  -0.48728  -0.45396  -0.44708
 Alpha  occ. eigenvalues --   -0.38104  -0.37537  -0.37170  -0.36522
 Alpha virt. eigenvalues --    0.04308   0.05005   0.10413   0.11055   0.15756
 Alpha virt. eigenvalues --    0.16366   0.19875   0.21858   0.25859   0.26491
 Alpha virt. eigenvalues --    0.27987   0.28875   0.30156   0.30903   0.32024

 Mulliken charges:
               1
     1  C   -0.170559
     2  C   -0.217552
     3  C   -0.169975
     4  C    0.160050
     5  C   -0.179361
     6  C   -0.221866
     7  H    0.227207
     8  H    0.226446
     9  H    0.278463
    10  H    0.275442
    11  H    0.222647
    12  N    0.488160
    13  O   -0.461096
    14  O   -0.456353
    15  C   -0.173597
    16  C   -0.218581
    17  C   -0.170197
    18  C    0.158750
    19  C   -0.172421
    20  C   -0.228669
    21  H    0.221405
    22  H    0.222897
    23  H    0.276409
    24  H    0.286349
    25  H    0.225230
    26  N    0.487687
    27  O   -0.455710
    28  O   -0.461204
 Sum of Mulliken charges =  -0.00000

 Dipole moment (field-independent basis, Debye):
    X=              4.1084    Y=              9.0367    Z=             -0.3405  Tot=              9.9326
 Quadrupole moment (field-independent basis, Debye-Ang):
   XX=           -112.4342   YY=           -108.1628   ZZ=           -105.5564
   XY=             -0.7111   XZ=              2.7848   YZ=              0.6433

 Normal termination of Gaussian 16 at Fri May  7 00:18:39 2021.
