 Gaussian 16, Revision A.03,
 Gaussian 16:  EM64L-G16RevA.03 25-Dec-2016

 -------------
 #p 6-31g* mp2
 -------------

 ------------------------------------------------------
 Input file generated by CHIRIPA (05-May-2021 14:57:25)
 ------------------------------------------------------
 Symbolic Z-matrix:
 Charge =  0 Multiplicity = 1

                         Standard orientation:
 ---------------------------------------------------------------------
 Center     Atomic      Atomic             Coordinates (Angstroms)
 Number     Number       Type             X           Y           Z
 ---------------------------------------------------------------------
      1          6           0       -2.139706    2.107998    1.578245
      2          6           0       -1.799722    0.810974    1.976568
      3          6           0       -2.117529   -0.285764    1.169900
      4          6           0       -2.778564   -0.047986   -0.034170
      5          6           0       -3.130675    1.232331   -0.458547
      6          6           0       -2.802928    2.314173    0.364100
      7          1           0       -1.888965    2.954185    2.211090
      8          1           0       -1.284632    0.647863    2.918970
      9          1           0       -1.866129   -1.300412    1.453988
     10          1           0       -3.643899    1.363391   -1.403450
     11          1           0       -3.068201    3.320355    0.052212
     12          7           0       -3.120274   -1.201169   -0.896611
     13          8           0       -3.702853   -0.965061   -1.952779
     14          8           0       -2.799056   -2.319306   -0.500093
     15          6           0        3.340103    2.145223   -0.975411
     16          6           0        4.342735    1.238360   -0.616456
     17          6           0        4.012024   -0.031694   -0.134649
     18          6           0        2.662514   -0.363200   -0.024110
     19          6           0        1.640658    0.518259   -0.373579
     20          6           0        1.994636    1.782918   -0.853042
     21          1           0        3.606045    3.129737   -1.348781
     22          1           0        5.388474    1.517007   -0.710437
     23          1           0        4.768012   -0.753234    0.150448
     24          1           0        0.606972    0.211771   -0.268804
     25          1           0        1.213860    2.485159   -1.131056
     26          7           0        2.300088   -1.704893    0.484717
     27          8           0        1.103774   -1.972702    0.572738
     28          8           0        3.219196   -2.463299    0.785881
 ---------------------------------------------------------------------

 SCF Done:  E(RHF) =  -868.338017678     A.U. after   16 cycles
 E2 =    -0.2601548987D+01 EUMP2 =    -0.87093956666527D+03

 The electronic state is 1-A.
 Alpha  occ. eigenvalues --  -20.60910 -20.60896 -20.60582 -20.60509 -15.85955
 Alpha  occ. eigenvalues --  -15.85611 -11.31297 -11.31225 -11.27896 -11.27883
 Alpha  occ. eigenvalues --  -11.27821 -11.27669 -11.27652 -11.27644 -11.26948
 Alpha  occ. eigenvalues --  -11.26899 -11.26886 -11.26804  -1.59976  -1.59627
 Alpha  occ. eigenvalues --   -1.39531  -1.39164  -1.19488  -1.19448  -1.08887
 Alpha  occ. eigenvalues --   -1.08795  -1.04891  -1.04835  -0.95723  -0.95566
 Alpha  occ. eigenvalues --   -0.86283  -0.86220  -0.82551  -0.82373  -0.77611
 Alpha  occ. eigenvalues --   -0.77356  -0.72184  -0.71812  -0.71300  -0.70971
 Alpha  occ. eigenvalues --   -0.70596  -0.70484  -0.65139  -0.65059  -0.64891
 Alpha  occ. eigenvalues --   -0.64804  -0.62238  -0.62125  -0.55413  -0.55345
 Alpha  occ. eigenvalues --   -0.53380  -0.53208  -0.52887  -0.52804  -0.48927
 Alpha  occ. eigenvalues --   -0.48923  -0.48612  -0.48547  -0.44940  -0.44509
 Alpha  occ. eigenvalues --   -0.37515  -0.37473  -0.36588  -0.36348
 Alpha virt. eigenvalues --    0.04892   0.05164   0.11026   0.11268   0.16382
 Alpha virt. eigenvalues --    0.16583   0.21207   0.21468   0.27055   0.27325
 Alpha virt. eigenvalues --    0.28020   0.28419   0.30657   0.31033   0.32118

 Mulliken charges:
               1
     1  C   -0.174181
     2  C   -0.222281
     3  C   -0.172091
     4  C    0.153066
     5  C   -0.174488
     6  C   -0.223094
     7  H    0.224923
     8  H    0.227991
     9  H    0.292999
    10  H    0.275508
    11  H    0.221654
    12  N    0.487571
    13  O   -0.464287
    14  O   -0.449367
    15  C   -0.170642
    16  C   -0.219166
    17  C   -0.170285
    18  C    0.155874
    19  C   -0.173102
    20  C   -0.221654
    21  H    0.224893
    22  H    0.223545
    23  H    0.275925
    24  H    0.281505
    25  H    0.222388
    26  N    0.489143
    27  O   -0.463470
    28  O   -0.458874
 Sum of Mulliken charges =  -0.00000

 Dipole moment (field-independent basis, Debye):
    X=              2.4663    Y=              8.4773    Z=              1.3621  Tot=              8.9333
 Quadrupole moment (field-independent basis, Debye-Ang):
   XX=            -99.9145   YY=           -107.4494   ZZ=           -103.8040
   XY=             -1.3880   XZ=            -11.6028   YZ=             -2.3978

 Normal termination of Gaussian 16 at Wed May  5 21:07:28 2021.
