 Gaussian 16, Revision A.03,
 Gaussian 16:  EM64L-G16RevA.03 25-Dec-2016

 -------------
 #p 6-31g* mp2
 -------------

 ------------------------------------------------------
 Input file generated by CHIRIPA (05-May-2021 14:57:25)
 ------------------------------------------------------
 Symbolic Z-matrix:
 Charge =  0 Multiplicity = 1

                         Standard orientation:
 ---------------------------------------------------------------------
 Center     Atomic      Atomic             Coordinates (Angstroms)
 Number     Number       Type             X           Y           Z
 ---------------------------------------------------------------------
      1          6           0       -2.431109    2.099671    0.743173
      2          6           0       -2.214059    1.529733   -0.515629
      3          6           0       -2.941909    0.407362   -0.921912
      4          6           0       -3.883172   -0.121632   -0.040163
      5          6           0       -4.122280    0.423499    1.220372
      6          6           0       -3.382849    1.545712    1.605635
      7          1           0       -1.861199    2.971494    1.050619
      8          1           0       -1.475571    1.957824   -1.187505
      9          1           0       -2.794045   -0.053906   -1.890821
     10          1           0       -4.865244   -0.025590    1.868247
     11          1           0       -3.553526    1.986233    2.583825
     12          7           0       -4.659844   -1.309752   -0.459150
     13          8           0       -5.483355   -1.756930    0.336148
     14          8           0       -4.430383   -1.771325   -1.574917
     15          6           0        2.639818    2.103700   -0.644311
     16          6           0        1.863168    0.990017   -0.308085
     17          6           0        2.470404   -0.221764    0.034550
     18          6           0        3.862994   -0.284735    0.030606
     19          6           0        4.664110    0.807237   -0.299699
     20          6           0        4.035351    2.008921   -0.639054
     21          1           0        2.159742    3.041118   -0.909204
     22          1           0        0.779177    1.060713   -0.311317
     23          1           0        1.893254   -1.099484    0.298981
     24          1           0        5.742555    0.706105   -0.287529
     25          1           0        4.641035    2.872192   -0.899739
     26          7           0        4.517241   -1.562249    0.391602
     27          8           0        5.745915   -1.591842    0.380571
     28          8           0        3.788978   -2.509782    0.678746
 ---------------------------------------------------------------------

 SCF Done:  E(RHF) =  -868.336755716     A.U. after   16 cycles
 E2 =    -0.2600271353D+01 EUMP2 =    -0.87093702706918D+03

 The electronic state is 1-A.
 Alpha  occ. eigenvalues --  -20.61303 -20.61297 -20.61045 -20.61038 -15.86367
 Alpha  occ. eigenvalues --  -15.86101 -11.31938 -11.31588 -11.28607 -11.28521
 Alpha  occ. eigenvalues --  -11.28397 -11.28169 -11.28165 -11.28018 -11.27718
 Alpha  occ. eigenvalues --  -11.27540 -11.27238 -11.27224  -1.60374  -1.60117
 Alpha  occ. eigenvalues --   -1.39922  -1.39666  -1.20164  -1.19785  -1.09525
 Alpha  occ. eigenvalues --   -1.09176  -1.05604  -1.05200  -0.96310  -0.95984
 Alpha  occ. eigenvalues --   -0.87010  -0.86600  -0.83142  -0.82804  -0.78153
 Alpha  occ. eigenvalues --   -0.77812  -0.72580  -0.72318  -0.71702  -0.71442
 Alpha  occ. eigenvalues --   -0.71263  -0.70932  -0.65825  -0.65743  -0.65442
 Alpha  occ. eigenvalues --   -0.65132  -0.62966  -0.62496  -0.56107  -0.55763
 Alpha  occ. eigenvalues --   -0.53965  -0.53728  -0.53531  -0.53199  -0.49357
 Alpha  occ. eigenvalues --   -0.49321  -0.49087  -0.49064  -0.45281  -0.45044
 Alpha  occ. eigenvalues --   -0.38161  -0.37805  -0.37202  -0.36801
 Alpha virt. eigenvalues --    0.04411   0.04715   0.10227   0.10821   0.15788
 Alpha virt. eigenvalues --    0.16171   0.19204   0.21817   0.25409   0.27394
 Alpha virt. eigenvalues --    0.27582   0.28560   0.30218   0.30799   0.31605

 Mulliken charges:
               1
     1  C   -0.171170
     2  C   -0.225421
     3  C   -0.171149
     4  C    0.158944
     5  C   -0.168299
     6  C   -0.218103
     7  H    0.225453
     8  H    0.218096
     9  H    0.278557
    10  H    0.279225
    11  H    0.226921
    12  N    0.488107
    13  O   -0.457556
    14  O   -0.458287
    15  C   -0.173056
    16  C   -0.224912
    17  C   -0.172123
    18  C    0.159317
    19  C   -0.170609
    20  C   -0.217988
    21  H    0.220350
    22  H    0.223448
    23  H    0.278905
    24  H    0.277069
    25  H    0.224196
    26  N    0.487888
    27  O   -0.459508
    28  O   -0.458292
 Sum of Mulliken charges =  -0.00000

 Dipole moment (field-independent basis, Debye):
    X=              0.2354    Y=              8.5174    Z=              0.3118  Tot=              8.5264
 Quadrupole moment (field-independent basis, Debye-Ang):
   XX=           -137.6800   YY=           -108.8697   ZZ=           -101.9350
   XY=              3.6050   XZ=            -14.2689   YZ=              0.0280

 Normal termination of Gaussian 16 at Fri May  7 06:32:57 2021.
