 Gaussian 16, Revision A.03,
 Gaussian 16:  EM64L-G16RevA.03 25-Dec-2016

 -------------
 #p 6-31g* mp2
 -------------

 ------------------------------------------------------
 Input file generated by CHIRIPA (05-May-2021 14:57:26)
 ------------------------------------------------------
 Symbolic Z-matrix:
 Charge =  0 Multiplicity = 1

                         Standard orientation:
 ---------------------------------------------------------------------
 Center     Atomic      Atomic             Coordinates (Angstroms)
 Number     Number       Type             X           Y           Z
 ---------------------------------------------------------------------
      1          6           0        2.462504   -2.337831    0.796783
      2          6           0        1.638833   -1.648026   -0.098904
      3          6           0        1.968274   -0.354436   -0.514404
      4          6           0        3.134039    0.221686   -0.012045
      5          6           0        3.975080   -0.439863    0.881428
      6          6           0        3.625948   -1.732615    1.283232
      7          1           0        2.198939   -3.342398    1.114234
      8          1           0        0.734677   -2.115560   -0.478323
      9          1           0        1.348611    0.202284   -1.206863
     10          1           0        4.869957    0.052385    1.242405
     11          1           0        4.267509   -2.265948    1.978934
     12          7           0        3.493226    1.590708   -0.444667
     13          8           0        4.525696    2.076163    0.012473
     14          8           0        2.735487    2.152370   -1.232705
     15          6           0       -3.843865    1.790527    1.547807
     16          6           0       -3.675297    0.474938    1.992025
     17          6           0       -3.249636   -0.523105    1.110395
     18          6           0       -3.000494   -0.168774   -0.214621
     19          6           0       -3.159170    1.132989   -0.687405
     20          6           0       -3.585719    2.114783    0.211865
     21          1           0       -4.174874    2.559520    2.239529
     22          1           0       -3.875031    0.220225    3.028979
     23          1           0       -3.110953   -1.549524    1.427649
     24          1           0       -2.952213    1.356427   -1.726954
     25          1           0       -3.715774    3.135655   -0.135914
     26          7           0       -2.549396   -1.216756   -1.157300
     27          8           0       -2.336530   -0.878864   -2.319692
     28          8           0       -2.417232   -2.356214   -0.715931
 ---------------------------------------------------------------------

 SCF Done:  E(RHF) =  -868.340060610     A.U. after   16 cycles
 E2 =    -0.2598819198D+01 EUMP2 =    -0.87093887980840D+03

 The electronic state is 1-A.
 Alpha  occ. eigenvalues --  -20.61620 -20.61590 -20.60486 -20.60480 -15.86620
 Alpha  occ. eigenvalues --  -15.85531 -11.31664 -11.30762 -11.28221 -11.28161
 Alpha  occ. eigenvalues --  -11.27862 -11.27336 -11.27236 -11.27147 -11.27091
 Alpha  occ. eigenvalues --  -11.26983 -11.26339 -11.26119  -1.60682  -1.59564
 Alpha  occ. eigenvalues --   -1.40237  -1.39121  -1.19806  -1.18905  -1.09261
 Alpha  occ. eigenvalues --   -1.08322  -1.05153  -1.04271  -0.96145  -0.95185
 Alpha  occ. eigenvalues --   -0.86568  -0.85669  -0.82983  -0.82011  -0.78073
 Alpha  occ. eigenvalues --   -0.77081  -0.72832  -0.72005  -0.71753  -0.70902
 Alpha  occ. eigenvalues --   -0.70885  -0.70006  -0.65456  -0.65147  -0.64546
 Alpha  occ. eigenvalues --   -0.64230  -0.62504  -0.61598  -0.55660  -0.54769
 Alpha  occ. eigenvalues --   -0.53504  -0.53237  -0.52634  -0.52330  -0.49616
 Alpha  occ. eigenvalues --   -0.49568  -0.48516  -0.48497  -0.45695  -0.44556
 Alpha  occ. eigenvalues --   -0.37766  -0.36887  -0.36736  -0.35880
 Alpha virt. eigenvalues --    0.04394   0.05421   0.10912   0.11776   0.15954
 Alpha virt. eigenvalues --    0.16955   0.21079   0.22004   0.27036   0.27549
 Alpha virt. eigenvalues --    0.28206   0.28787   0.30717   0.31537   0.32138

 Mulliken charges:
               1
     1  C   -0.172489
     2  C   -0.227344
     3  C   -0.173911
     4  C    0.158178
     5  C   -0.172681
     6  C   -0.218862
     7  H    0.226666
     8  H    0.241398
     9  H    0.276916
    10  H    0.273365
    11  H    0.221269
    12  N    0.488054
    13  O   -0.462353
    14  O   -0.461844
    15  C   -0.169247
    16  C   -0.218233
    17  C   -0.170935
    18  C    0.155833
    19  C   -0.170351
    20  C   -0.217461
    21  H    0.228327
    22  H    0.224507
    23  H    0.273511
    24  H    0.277986
    25  H    0.227564
    26  N    0.485620
    27  O   -0.457253
    28  O   -0.466232
 Sum of Mulliken charges =  -0.00000

 Dipole moment (field-independent basis, Debye):
    X=             -3.1698    Y=             -1.0421    Z=              4.8320  Tot=              5.8721
 Quadrupole moment (field-independent basis, Debye-Ang):
   XX=           -101.0032   YY=           -106.6702   ZZ=           -102.6434
   XY=            -27.2083   XZ=             -2.6301   YZ=             -3.8307

 Normal termination of Gaussian 16 at Fri May  7 11:13:21 2021.
