 Gaussian 16, Revision A.03,
 Gaussian 16:  EM64L-G16RevA.03 25-Dec-2016

 -------------
 #p 6-31g* mp2
 -------------

 ------------------------------------------------------
 Input file generated by CHIRIPA (05-May-2021 14:53:13)
 ------------------------------------------------------
 Symbolic Z-matrix:
 Charge =  0 Multiplicity = 1

                         Standard orientation:
 ---------------------------------------------------------------------
 Center     Atomic      Atomic             Coordinates (Angstroms)
 Number     Number       Type             X           Y           Z
 ---------------------------------------------------------------------
      1          6           0        3.291741    0.292809   -0.180308
      2          6           0        3.949022   -1.054219   -0.482773
      3          6           0        5.208067   -1.297858    0.349836
      4          1           0        4.016790    1.097171   -0.365379
      5          1           0        3.040261    0.338467    0.888368
      6          1           0        4.197932   -1.097873   -1.550834
      7          1           0        3.222264   -1.855456   -0.297144
      8          1           0        4.972221   -1.281139    1.418807
      9          1           0        5.953433   -0.519252    0.157993
     10          1           0        5.661744   -2.266420    0.117620
     11          6           0        2.031871    0.550874   -1.004842
     12          6           0        1.374591    1.897901   -0.702377
     13          6           0        0.115545    2.141540   -1.534986
     14          1           0        2.283351    0.505216   -2.073518
     15          1           0        1.306822   -0.253488   -0.819771
     16          1           0        2.101349    2.699138   -0.888006
     17          1           0        1.125680    1.941555    0.365684
     18          1           0       -0.629820    1.362934   -1.343144
     19          1           0        0.351392    2.124821   -2.603957
     20          1           0       -0.338132    3.110102   -1.302770
     21          6           0       -3.611602   -1.218936   -1.333635
     22          6           0       -2.542339   -1.996756   -0.877355
     23          6           0       -1.687060   -1.514121    0.117688
     24          6           0       -1.931422   -0.243582    0.636636
     25          6           0       -2.988245    0.555318    0.202849
     26          6           0       -3.830756    0.052378   -0.793030
     27          1           0       -4.271044   -1.601745   -2.106932
     28          1           0       -2.369734   -2.984436   -1.295378
     29          1           0       -0.851762   -2.095161    0.489290
     30          1           0       -3.134954    1.536088    0.638722
     31          1           0       -4.660373    0.658658   -1.145457
     32          7           0       -1.032734    0.278110    1.690486
     33          8           0       -1.269421    1.400663    2.131497
     34          8           0       -0.108674   -0.445418    2.055527
 ---------------------------------------------------------------------

 SCF Done:  E(RHF) =  -669.535285430     A.U. after   15 cycles
 E2 =    -0.2095499866D+01 EUMP2 =    -0.67163078529647D+03

 The electronic state is 1-A.
 Alpha  occ. eigenvalues --  -20.61030 -20.61023 -15.86026 -11.31305 -11.27900
 Alpha  occ. eigenvalues --  -11.27866 -11.27629 -11.26899 -11.26887 -11.21048
 Alpha  occ. eigenvalues --  -11.20887 -11.20776 -11.20608 -11.20586 -11.20535
 Alpha  occ. eigenvalues --   -1.60078  -1.39632  -1.19516  -1.08915  -1.07785
 Alpha  occ. eigenvalues --   -1.04897  -1.02964  -0.95758  -0.95424  -0.86468
 Alpha  occ. eigenvalues --   -0.86276  -0.82591  -0.79017  -0.77665  -0.77578
 Alpha  occ. eigenvalues --   -0.72259  -0.71470  -0.70607  -0.65158  -0.64891
 Alpha  occ. eigenvalues --   -0.64359  -0.62239  -0.60362  -0.58793  -0.57042
 Alpha  occ. eigenvalues --   -0.55397  -0.54853  -0.53234  -0.52980  -0.52139
 Alpha  occ. eigenvalues --   -0.51814  -0.49357  -0.49034  -0.49016  -0.47323
 Alpha  occ. eigenvalues --   -0.46035  -0.45249  -0.45040  -0.44861  -0.43188
 Alpha  occ. eigenvalues --   -0.37416  -0.36471
 Alpha virt. eigenvalues --    0.04808   0.11051   0.16300   0.21151   0.23264
 Alpha virt. eigenvalues --    0.24705   0.26379   0.27385   0.28156   0.28361
 Alpha virt. eigenvalues --    0.28710   0.31093   0.31804   0.32230   0.32421

 Mulliken charges:
               1
     1  C   -0.301115
     2  C   -0.298142
     3  C   -0.475952
     4  H    0.146700
     5  H    0.165095
     6  H    0.147683
     7  H    0.149369
     8  H    0.159140
     9  H    0.154025
    10  H    0.156924
    11  C   -0.296231
    12  C   -0.311225
    13  C   -0.481003
    14  H    0.144119
    15  H    0.144739
    16  H    0.151183
    17  H    0.169949
    18  H    0.155048
    19  H    0.151465
    20  H    0.159484
    21  C   -0.170626
    22  C   -0.217847
    23  C   -0.171878
    24  C    0.158050
    25  C   -0.171621
    26  C   -0.216143
    27  H    0.226506
    28  H    0.224400
    29  H    0.275872
    30  H    0.276319
    31  H    0.224478
    32  N    0.490213
    33  O   -0.458440
    34  O   -0.460537
 Sum of Mulliken charges =  -0.00000

 Dipole moment (field-independent basis, Debye):
    X=             -3.3384    Y=             -1.8341    Z=             -3.4848  Tot=              5.1626
 Quadrupole moment (field-independent basis, Debye-Ang):
   XX=            -82.1255   YY=            -90.4876   ZZ=           -100.2108
   XY=              2.5571   XZ=              4.8569   YZ=              0.0780

 Normal termination of Gaussian 16 at Thu May  6 18:43:37 2021.
