 Gaussian 16, Revision A.03,
 Gaussian 16:  EM64L-G16RevA.03 25-Dec-2016

 -------------
 #p 6-31g* mp2
 -------------

 ------------------------------------------------------
 Input file generated by CHIRIPA (05-May-2021 14:51:10)
 ------------------------------------------------------
 Symbolic Z-matrix:
 Charge =  0 Multiplicity = 1

                         Standard orientation:
 ---------------------------------------------------------------------
 Center     Atomic      Atomic             Coordinates (Angstroms)
 Number     Number       Type             X           Y           Z
 ---------------------------------------------------------------------
      1          6           0       -3.203065   -0.075102   -0.341484
      2          6           0       -4.709327    0.119789   -0.164914
      3          6           0       -5.363685    0.793509   -1.371443
      4          1           0       -2.731679    0.901349   -0.518358
      5          1           0       -3.021450   -0.677615   -1.242255
      6          1           0       -4.888106    0.720590    0.736026
      7          1           0       -5.177156   -0.857217    0.011751
      8          1           0       -5.214693    0.193907   -2.275257
      9          1           0       -4.924001    1.780679   -1.546867
     10          1           0       -6.440401    0.923041   -1.223918
     11          6           0       -2.534657   -0.747429    0.856404
     12          6           0       -1.028395   -0.942319    0.679834
     13          6           0       -0.374037   -1.616039    1.886363
     14          1           0       -2.716272   -0.144915    1.757175
     15          1           0       -3.006043   -1.723879    1.033278
     16          1           0       -0.560566    0.034687    0.503169
     17          1           0       -0.849616   -1.543121   -0.221106
     18          1           0       -0.813721   -2.603209    2.061787
     19          1           0       -0.523029   -1.016437    2.790177
     20          1           0        0.702679   -1.745571    1.738838
     21          6           0        2.777213   -0.336948   -0.134130
     22          6           0        3.564588   -1.213103   -1.109003
     23          6           0        3.371029   -2.707426   -0.849527
     24          1           0        3.084732   -0.574996    0.893348
     25          1           0        1.709809   -0.587441   -0.206903
     26          1           0        4.630033   -0.960064   -1.035408
     27          1           0        3.255297   -0.972805   -2.134289
     28          1           0        2.315062   -2.981006   -0.942749
     29          1           0        3.697609   -2.968191    0.162376
     30          1           0        3.942760   -3.315233   -1.557733
     31          6           0        2.960509    1.159478   -0.380790
     32          6           0        2.173134    2.035633    0.594083
     33          6           0        2.366693    3.529956    0.334607
     34          1           0        4.027914    1.409971   -0.308017
     35          1           0        2.652990    1.397526   -1.408268
     36          1           0        2.482425    1.795336    1.619370
     37          1           0        1.107689    1.782595    0.520488
     38          1           0        2.040113    3.790721   -0.677295
     39          1           0        3.422659    3.803536    0.427829
     40          1           0        1.794963    4.137763    1.042813
 ---------------------------------------------------------------------

 SCF Done:  E(RHF) =  -470.731956866     A.U. after   11 cycles
 E2 =    -0.1584947132D+01 EUMP2 =    -0.47231690399778D+03

 The electronic state is 1-A.
 Alpha  occ. eigenvalues --  -11.21621 -11.21617 -11.21616 -11.21581 -11.21428
 Alpha  occ. eigenvalues --  -11.21377 -11.21367 -11.21273 -11.21092 -11.21089
 Alpha  occ. eigenvalues --  -11.21080 -11.20974  -1.08495  -1.08386  -1.03555
 Alpha  occ. eigenvalues --   -1.03526  -0.96030  -0.95933  -0.87027  -0.86966
 Alpha  occ. eigenvalues --   -0.79651  -0.79590  -0.78449  -0.78088  -0.65183
 Alpha  occ. eigenvalues --   -0.64983  -0.61055  -0.60831  -0.59464  -0.59276
 Alpha  occ. eigenvalues --   -0.57786  -0.57427  -0.55280  -0.55241  -0.52751
 Alpha  occ. eigenvalues --   -0.52647  -0.52509  -0.52261  -0.49955  -0.49896
 Alpha  occ. eigenvalues --   -0.48079  -0.47826  -0.46877  -0.46502  -0.46104
 Alpha  occ. eigenvalues --   -0.45762  -0.45716  -0.45159  -0.43775  -0.43774
 Alpha virt. eigenvalues --    0.21165   0.22938   0.23392   0.24257   0.25851
 Alpha virt. eigenvalues --    0.26291   0.26853   0.27734   0.27882   0.29762
 Alpha virt. eigenvalues --    0.30153   0.30897   0.31633   0.31976   0.32013

 Mulliken charges:
               1
     1  C   -0.298357
     2  C   -0.299665
     3  C   -0.475726
     4  H    0.149010
     5  H    0.149338
     6  H    0.152055
     7  H    0.152093
     8  H    0.155144
     9  H    0.155166
    10  H    0.160371
    11  C   -0.296895
    12  C   -0.309441
    13  C   -0.479966
    14  H    0.149753
    15  H    0.149849
    16  H    0.158311
    17  H    0.150562
    18  H    0.154717
    19  H    0.154774
    20  H    0.166766
    21  C   -0.310528
    22  C   -0.298630
    23  C   -0.476891
    24  H    0.148944
    25  H    0.165222
    26  H    0.151592
    27  H    0.151639
    28  H    0.155444
    29  H    0.155095
    30  H    0.160511
    31  C   -0.297222
    32  C   -0.305991
    33  C   -0.475269
    34  H    0.149348
    35  H    0.149237
    36  H    0.152192
    37  H    0.156873
    38  H    0.155128
    39  H    0.155456
    40  H    0.159991
 Sum of Mulliken charges =  -0.00000

 Dipole moment (field-independent basis, Debye):
    X=              0.0000    Y=              0.0009    Z=              0.0018  Tot=              0.0020
 Quadrupole moment (field-independent basis, Debye-Ang):
   XX=            -84.6050   YY=            -85.4576   ZZ=            -84.8534
   XY=              0.3888   XZ=              0.1258   YZ=              0.8576

 Normal termination of Gaussian 16 at Thu May  6 05:22:17 2021.
