 Gaussian 16, Revision A.03,
 Gaussian 16:  EM64L-G16RevA.03 25-Dec-2016

 -------------
 #p 6-31g* mp2
 -------------

 ------------------------------------------------------
 Input file generated by CHIRIPA (05-May-2021 14:53:18)
 ------------------------------------------------------
 Symbolic Z-matrix:
 Charge =  0 Multiplicity = 1

                         Standard orientation:
 ---------------------------------------------------------------------
 Center     Atomic      Atomic             Coordinates (Angstroms)
 Number     Number       Type             X           Y           Z
 ---------------------------------------------------------------------
      1          6           0        3.623139   -0.162826   -0.473582
      2          6           0        3.588752   -1.629311   -0.042043
      3          6           0        4.289367   -2.554928   -1.037113
      4          1           0        3.151176   -0.066615   -1.460972
      5          1           0        4.668866    0.151999   -0.594976
      6          1           0        2.543437   -1.940882    0.079842
      7          1           0        4.060680   -1.722013    0.944520
      8          1           0        5.340680   -2.271884   -1.152124
      9          1           0        3.814816   -2.491996   -2.021715
     10          1           0        4.252905   -3.598419   -0.709002
     11          6           0        2.926745    0.774897    0.511018
     12          6           0        2.961133    2.241382    0.079479
     13          6           0        2.260517    3.166999    1.074549
     14          1           0        1.881019    0.460072    0.632412
     15          1           0        3.398708    0.678686    1.498408
     16          1           0        2.489204    2.334084   -0.907084
     17          1           0        4.006448    2.552952   -0.042406
     18          1           0        2.735068    3.104067    2.059151
     19          1           0        1.209204    2.883955    1.189560
     20          1           0        2.296980    4.210490    0.746438
     21          6           0       -3.088654    2.089910   -0.827440
     22          6           0       -1.767908    1.734399   -0.534586
     23          6           0       -1.462554    0.446815   -0.083550
     24          6           0       -2.507300   -0.464249    0.063956
     25          6           0       -3.833163   -0.140235   -0.219577
     26          6           0       -4.115257    1.153110   -0.669279
     27          1           0       -3.316826    3.092374   -1.177297
     28          1           0       -0.968609    2.459869   -0.656484
     29          1           0       -0.448875    0.144953    0.150441
     30          1           0       -4.608586   -0.885144   -0.088247
     31          1           0       -5.141887    1.426411   -0.895951
     32          7           0       -2.196348   -1.830406    0.540743
     33          8           0       -3.134802   -2.614713    0.662408
     34          8           0       -1.020057   -2.091024    0.783754
 ---------------------------------------------------------------------

 SCF Done:  E(RHF) =  -669.535686083     A.U. after   15 cycles
 E2 =    -0.2092163175D+01 EUMP2 =    -0.67162784925713D+03

 The electronic state is 1-A.
 Alpha  occ. eigenvalues --  -20.60823 -20.60818 -15.85872 -11.31216 -11.27787
 Alpha  occ. eigenvalues --  -11.27778 -11.27525 -11.26799 -11.26784 -11.22136
 Alpha  occ. eigenvalues --  -11.21751 -11.21727 -11.21448 -11.21271 -11.20771
 Alpha  occ. eigenvalues --   -1.59893  -1.39448  -1.19390  -1.08787  -1.08636
 Alpha  occ. eigenvalues --   -1.04793  -1.03679  -0.96160  -0.95626  -0.87177
 Alpha  occ. eigenvalues --   -0.86190  -0.82460  -0.79780  -0.78369  -0.77504
 Alpha  occ. eigenvalues --   -0.72091  -0.71213  -0.70510  -0.65324  -0.65039
 Alpha  occ. eigenvalues --   -0.64794  -0.62155  -0.61053  -0.59562  -0.57728
 Alpha  occ. eigenvalues --   -0.55496  -0.55289  -0.53120  -0.52930  -0.52824
 Alpha  occ. eigenvalues --   -0.52532  -0.50120  -0.48849  -0.48846  -0.48071
 Alpha  occ. eigenvalues --   -0.46839  -0.45904  -0.45780  -0.44856  -0.43941
 Alpha  occ. eigenvalues --   -0.37368  -0.36392
 Alpha virt. eigenvalues --    0.05012   0.11254   0.16459   0.18437   0.23147
 Alpha virt. eigenvalues --    0.23623   0.24985   0.26554   0.27282   0.28325
 Alpha virt. eigenvalues --    0.29575   0.31090   0.31393   0.31884   0.32355

 Mulliken charges:
               1
     1  C   -0.298070
     2  C   -0.304664
     3  C   -0.475722
     4  H    0.147546
     5  H    0.149627
     6  H    0.166203
     7  H    0.152201
     8  H    0.152571
     9  H    0.154512
    10  H    0.163660
    11  C   -0.304703
    12  C   -0.301045
    13  C   -0.477626
    14  H    0.148410
    15  H    0.154852
    16  H    0.146738
    17  H    0.156101
    18  H    0.160935
    19  H    0.148314
    20  H    0.160297
    21  C   -0.170517
    22  C   -0.226091
    23  C   -0.182047
    24  C    0.158436
    25  C   -0.169710
    26  C   -0.218995
    27  H    0.226055
    28  H    0.227275
    29  H    0.290498
    30  H    0.275764
    31  H    0.223629
    32  N    0.487080
    33  O   -0.459783
    34  O   -0.461729
 Sum of Mulliken charges =  -0.00000

 Dipole moment (field-independent basis, Debye):
    X=             -1.0202    Y=              4.7101    Z=             -1.6243  Tot=              5.0857
 Quadrupole moment (field-independent basis, Debye-Ang):
   XX=            -83.5066   YY=           -100.0530   ZZ=            -95.9512
   XY=             -9.9933   XZ=              5.5837   YZ=              0.7116

 Normal termination of Gaussian 16 at Thu May  6 01:16:06 2021.
