 Gaussian 16, Revision A.03,
 Gaussian 16:  EM64L-G16RevA.03 25-Dec-2016

 -------------
 #p 6-31g* mp2
 -------------

 ------------------------------------------------------
 Input file generated by CHIRIPA (05-May-2021 14:57:22)
 ------------------------------------------------------
 Symbolic Z-matrix:
 Charge =  0 Multiplicity = 1

                         Standard orientation:
 ---------------------------------------------------------------------
 Center     Atomic      Atomic             Coordinates (Angstroms)
 Number     Number       Type             X           Y           Z
 ---------------------------------------------------------------------
      1          6           0       -2.010773    2.420400   -0.501216
      2          6           0       -1.895272    1.871890    0.780313
      3          6           0       -2.562725    0.688184    1.108787
      4          6           0       -3.340698    0.076673    0.126901
      5          6           0       -3.475578    0.598485   -1.158715
      6          6           0       -2.799168    1.783071   -1.464941
      7          1           0       -1.488801    3.340273   -0.747741
      8          1           0       -1.283690    2.364677    1.530762
      9          1           0       -2.490781    0.241767    2.093142
     10          1           0       -4.092566    0.084372   -1.885649
     11          1           0       -2.890700    2.206769   -2.461007
     12          7           0       -4.052042   -1.176929    0.462865
     13          8           0       -4.731247   -1.696356   -0.420036
     14          8           0       -3.916920   -1.616338    1.602733
     15          6           0        5.629914    0.212257    0.502355
     16          6           0        4.610455    0.570055    1.390728
     17          6           0        3.273589    0.300392    1.083127
     18          6           0        2.990813   -0.331189   -0.127011
     19          6           0        3.984192   -0.699982   -1.032815
     20          6           0        5.314086   -0.420503   -0.704453
     21          1           0        6.665716    0.425551    0.749370
     22          1           0        4.852782    1.061572    2.328669
     23          1           0        2.464651    0.566524    1.752613
     24          1           0        3.711546   -1.188835   -1.960234
     25          1           0        6.103745   -0.699512   -1.396289
     26          7           0        1.579223   -0.621864   -0.463644
     27          8           0        1.356339   -1.179230   -1.536165
     28          8           0        0.722432   -0.286827    0.351401
 ---------------------------------------------------------------------

 SCF Done:  E(RHF) =  -868.337278115     A.U. after   16 cycles
 E2 =    -0.2600419383D+01 EUMP2 =    -0.87093769749841D+03

 The electronic state is 1-A.
 Alpha  occ. eigenvalues --  -20.61123 -20.61117 -20.59607 -20.59602 -15.86163
 Alpha  occ. eigenvalues --  -15.84655 -11.31552 -11.29830 -11.28150 -11.28095
 Alpha  occ. eigenvalues --  -11.27844 -11.27143 -11.27109 -11.26438 -11.26403
 Alpha  occ. eigenvalues --  -11.26225 -11.25482 -11.25451  -1.60189  -1.58678
 Alpha  occ. eigenvalues --   -1.39747  -1.38241  -1.19721  -1.18001  -1.09108
 Alpha  occ. eigenvalues --   -1.07469  -1.05127  -1.03414  -0.95944  -0.94334
 Alpha  occ. eigenvalues --   -0.86523  -0.84859  -0.82782  -0.81191  -0.77831
 Alpha  occ. eigenvalues --   -0.76237  -0.72400  -0.71513  -0.70899  -0.70825
 Alpha  occ. eigenvalues --   -0.69976  -0.69227  -0.65374  -0.65126  -0.63715
 Alpha  occ. eigenvalues --   -0.63508  -0.62479  -0.60817  -0.55616  -0.54027
 Alpha  occ. eigenvalues --   -0.53454  -0.53220  -0.51715  -0.51587  -0.49144
 Alpha  occ. eigenvalues --   -0.49099  -0.47649  -0.47636  -0.45146  -0.43690
 Alpha  occ. eigenvalues --   -0.37697  -0.36733  -0.35983  -0.34889
 Alpha virt. eigenvalues --    0.04698   0.06332   0.10922   0.12685   0.16210
 Alpha virt. eigenvalues --    0.17841   0.21042   0.22470   0.26899   0.27741
 Alpha virt. eigenvalues --    0.28527   0.29380   0.30623   0.31735   0.32471

 Mulliken charges:
               1
     1  C   -0.170872
     2  C   -0.204189
     3  C   -0.155859
     4  C    0.161139
     5  C   -0.168663
     6  C   -0.216635
     7  H    0.217919
     8  H    0.214070
     9  H    0.271165
    10  H    0.271936
    11  H    0.218009
    12  N    0.488654
    13  O   -0.463912
    14  O   -0.463479
    15  C   -0.170791
    16  C   -0.218270
    17  C   -0.171318
    18  C    0.158513
    19  C   -0.170844
    20  C   -0.218335
    21  H    0.226632
    22  H    0.223509
    23  H    0.271517
    24  H    0.276683
    25  H    0.224694
    26  N    0.490241
    27  O   -0.457973
    28  O   -0.463539
 Sum of Mulliken charges =  -0.00000

 Dipole moment (field-independent basis, Debye):
    X=              7.7472    Y=              5.3114    Z=             -0.0046  Tot=              9.3931
 Quadrupole moment (field-independent basis, Debye-Ang):
   XX=            -92.4178   YY=           -105.9395   ZZ=            -97.8290
   XY=            -13.6342   XZ=              7.6397   YZ=              2.3591

 Normal termination of Gaussian 16 at Thu May  6 08:06:44 2021.
