 Gaussian 16, Revision A.03,
 Gaussian 16:  EM64L-G16RevA.03 25-Dec-2016

 -------------
 #p 6-31g* mp2
 -------------

 ------------------------------------------------------
 Input file generated by CHIRIPA (05-May-2021 14:57:21)
 ------------------------------------------------------
 Symbolic Z-matrix:
 Charge =  0 Multiplicity = 1

                         Standard orientation:
 ---------------------------------------------------------------------
 Center     Atomic      Atomic             Coordinates (Angstroms)
 Number     Number       Type             X           Y           Z
 ---------------------------------------------------------------------
      1          6           0        6.021072   -0.917518   -0.751252
      2          6           0        5.929086   -0.635424    0.615673
      3          6           0        4.747296   -0.120054    1.156333
      4          6           0        3.672156    0.102058    0.297246
      5          6           0        3.732849   -0.168853   -1.068848
      6          6           0        4.924593   -0.683744   -1.587675
      7          1           0        6.942981   -1.317684   -1.162769
      8          1           0        6.779025   -0.815977    1.267631
      9          1           0        4.648770    0.107287    2.210860
     10          1           0        2.868718    0.021660   -1.693669
     11          1           0        4.993167   -0.901883   -2.649634
     12          7           0        2.415779    0.647404    0.858062
     13          8           0        1.482821    0.834196    0.080029
     14          8           0        2.387777    0.877727    2.065043
     15          6           0       -2.111220    1.557584   -1.085691
     16          6           0       -1.914373    0.174275   -1.150723
     17          6           0       -2.887186   -0.704899   -0.665711
     18          6           0       -4.050145   -0.163937   -0.119657
     19          6           0       -4.275526    1.209477   -0.040736
     20          6           0       -3.289092    2.069866   -0.531881
     21          1           0       -1.350224    2.233251   -1.464843
     22          1           0       -1.000601   -0.226398   -1.580290
     23          1           0       -2.760610   -1.780055   -0.703590
     24          1           0       -5.196733    1.579102    0.393053
     25          1           0       -3.444671    3.143717   -0.480069
     26          7           0       -5.087230   -1.084736    0.397050
     27          8           0       -6.103092   -0.583002    0.873416
     28          8           0       -4.864596   -2.290756    0.315895
 ---------------------------------------------------------------------

 SCF Done:  E(RHF) =  -868.339051782     A.U. after   16 cycles
 E2 =    -0.2598888703D+01 EUMP2 =    -0.87093794048521D+03

 The electronic state is 1-A.
 Alpha  occ. eigenvalues --  -20.61632 -20.61562 -20.59968 -20.59963 -15.86644
 Alpha  occ. eigenvalues --  -15.85015 -11.31855 -11.30165 -11.28451 -11.28364
 Alpha  occ. eigenvalues --  -11.28088 -11.27391 -11.27344 -11.26734 -11.26694
 Alpha  occ. eigenvalues --  -11.26330 -11.25688 -11.25596  -1.60658  -1.59048
 Alpha  occ. eigenvalues --   -1.40224  -1.38608  -1.20005  -1.18302  -1.09422
 Alpha  occ. eigenvalues --   -1.07713  -1.05388  -1.03685  -0.96288  -0.94595
 Alpha  occ. eigenvalues --   -0.86792  -0.85081  -0.83132  -0.81450  -0.78207
 Alpha  occ. eigenvalues --   -0.76544  -0.72880  -0.71969  -0.71241  -0.71111
 Alpha  occ. eigenvalues --   -0.70367  -0.69378  -0.65664  -0.65385  -0.63952
 Alpha  occ. eigenvalues --   -0.63677  -0.62746  -0.61055  -0.55878  -0.54135
 Alpha  occ. eigenvalues --   -0.53719  -0.53478  -0.52000  -0.51782  -0.49632
 Alpha  occ. eigenvalues --   -0.49586  -0.48007  -0.47976  -0.45660  -0.44064
 Alpha  occ. eigenvalues --   -0.37964  -0.36983  -0.36201  -0.35273
 Alpha virt. eigenvalues --    0.04319   0.05998   0.10673   0.12388   0.15851
 Alpha virt. eigenvalues --    0.17577   0.20661   0.22403   0.26421   0.27250
 Alpha virt. eigenvalues --    0.28588   0.29325   0.30458   0.31437   0.32608

 Mulliken charges:
               1
     1  C   -0.170113
     2  C   -0.218173
     3  C   -0.170264
     4  C    0.158776
     5  C   -0.170742
     6  C   -0.218018
     7  H    0.227938
     8  H    0.225957
     9  H    0.277415
    10  H    0.269221
    11  H    0.224496
    12  N    0.491203
    13  O   -0.472131
    14  O   -0.454229
    15  C   -0.162829
    16  C   -0.208081
    17  C   -0.173420
    18  C    0.157865
    19  C   -0.172021
    20  C   -0.219396
    21  H    0.228061
    22  H    0.223205
    23  H    0.271150
    24  H    0.272159
    25  H    0.220274
    26  N    0.488358
    27  O   -0.463147
    28  O   -0.463513
 Sum of Mulliken charges =  -0.00000

 Dipole moment (field-independent basis, Debye):
    X=              8.6143    Y=              1.3841    Z=             -3.7256  Tot=              9.4869
 Quadrupole moment (field-independent basis, Debye-Ang):
   XX=           -100.6402   YY=           -104.4185   ZZ=           -101.8178
   XY=            -23.4418   XZ=              2.4730   YZ=              0.4452

 Normal termination of Gaussian 16 at Thu May  6 03:16:23 2021.
