 Gaussian 16, Revision A.03,
 Gaussian 16:  EM64L-G16RevA.03 25-Dec-2016

 -------------
 #p 6-31g* mp2
 -------------

 ------------------------------------------------------
 Input file generated by CHIRIPA (05-May-2021 14:57:21)
 ------------------------------------------------------
 Symbolic Z-matrix:
 Charge =  0 Multiplicity = 1

                         Standard orientation:
 ---------------------------------------------------------------------
 Center     Atomic      Atomic             Coordinates (Angstroms)
 Number     Number       Type             X           Y           Z
 ---------------------------------------------------------------------
      1          6           0        3.610304   -1.595892   -0.605507
      2          6           0        4.226018   -0.501537    0.010776
      3          6           0        3.506571    0.671353    0.258305
      4          6           0        2.167096    0.715564   -0.125288
      5          6           0        1.525494   -0.357944   -0.741094
      6          6           0        2.264380   -1.520735   -0.978817
      7          1           0        4.176738   -2.503099   -0.793984
      8          1           0        5.271142   -0.557068    0.301772
      9          1           0        3.958396    1.533412    0.733833
     10          1           0        0.482198   -0.272698   -1.019814
     11          1           0        1.783604   -2.369069   -1.457595
     12          7           0        1.395160    1.951905    0.131569
     13          8           0        0.216318    1.965620   -0.215967
     14          8           0        1.983575    2.883824    0.675566
     15          6           0       -0.943705   -2.392298    1.170363
     16          6           0       -1.329054   -1.306755    1.963851
     17          6           0       -2.077515   -0.259212    1.418867
     18          6           0       -2.424893   -0.330001    0.070680
     19          6           0       -2.056034   -1.398027   -0.745749
     20          6           0       -1.307784   -2.434395   -0.179524
     21          1           0       -0.362365   -3.201715    1.601970
     22          1           0       -1.047726   -1.271393    3.012493
     23          1           0       -2.389138    0.593116    2.010344
     24          1           0       -2.351446   -1.405163   -1.787910
     25          1           0       -1.009912   -3.276191   -0.798149
     26          7           0       -3.217143    0.773070   -0.517514
     27          8           0       -3.510545    0.686971   -1.707950
     28          8           0       -3.529707    1.702872    0.223034
 ---------------------------------------------------------------------

 SCF Done:  E(RHF) =  -868.335437663     A.U. after   16 cycles
 E2 =    -0.2605992457D+01 EUMP2 =    -0.87094143012019D+03

 The electronic state is 1-A.
 Alpha  occ. eigenvalues --  -20.60881 -20.60874 -20.60318 -20.60250 -15.85925
 Alpha  occ. eigenvalues --  -15.85359 -11.31297 -11.31135 -11.27944 -11.27823
 Alpha  occ. eigenvalues --  -11.27808 -11.27749 -11.27678 -11.27622 -11.26983
 Alpha  occ. eigenvalues --  -11.26975 -11.26952 -11.26816  -1.59945  -1.59332
 Alpha  occ. eigenvalues --   -1.39501  -1.38884  -1.19549  -1.19375  -1.08929
 Alpha  occ. eigenvalues --   -1.08685  -1.05010  -1.04805  -0.95747  -0.95450
 Alpha  occ. eigenvalues --   -0.86368  -0.86200  -0.82599  -0.82288  -0.77640
 Alpha  occ. eigenvalues --   -0.77252  -0.72190  -0.71594  -0.71282  -0.70679
 Alpha  occ. eigenvalues --   -0.70566  -0.70463  -0.65190  -0.65075  -0.65004
 Alpha  occ. eigenvalues --   -0.64798  -0.62376  -0.62165  -0.55524  -0.55334
 Alpha  occ. eigenvalues --   -0.53673  -0.53211  -0.52929  -0.52485  -0.48908
 Alpha  occ. eigenvalues --   -0.48893  -0.48378  -0.48305  -0.44907  -0.44197
 Alpha  occ. eigenvalues --   -0.37632  -0.37538  -0.36598  -0.36111
 Alpha virt. eigenvalues --    0.04853   0.05342   0.10925   0.11241   0.16362
 Alpha virt. eigenvalues --    0.16653   0.20298   0.21891   0.25764   0.27971
 Alpha virt. eigenvalues --    0.28329   0.28695   0.29808   0.31670   0.32257

 Mulliken charges:
               1
     1  C   -0.171404
     2  C   -0.220331
     3  C   -0.170338
     4  C    0.153453
     5  C   -0.165497
     6  C   -0.224987
     7  H    0.224011
     8  H    0.223169
     9  H    0.275940
    10  H    0.285838
    11  H    0.215527
    12  N    0.488494
    13  O   -0.460901
    14  O   -0.459316
    15  C   -0.167862
    16  C   -0.220916
    17  C   -0.162077
    18  C    0.177206
    19  C   -0.194189
    20  C   -0.224476
    21  H    0.223570
    22  H    0.224955
    23  H    0.281894
    24  H    0.275609
    25  H    0.217385
    26  N    0.491805
    27  O   -0.464308
    28  O   -0.452253
 Sum of Mulliken charges =  -0.00000

 Dipole moment (field-independent basis, Debye):
    X=              5.2374    Y=             -7.8184    Z=              1.3841  Tot=              9.5117
 Quadrupole moment (field-independent basis, Debye-Ang):
   XX=           -104.1279   YY=           -108.1110   ZZ=           -100.3573
   XY=              2.4974   XZ=             -5.6158   YZ=              2.1588

 Normal termination of Gaussian 16 at Wed May  5 22:34:06 2021.
