 Gaussian 16, Revision A.03,
 Gaussian 16:  EM64L-G16RevA.03 25-Dec-2016

 -------------
 #p 6-31g* mp2
 -------------

 ------------------------------------------------------
 Input file generated by CHIRIPA (05-May-2021 14:51:09)
 ------------------------------------------------------
 Symbolic Z-matrix:
 Charge =  0 Multiplicity = 1

                         Standard orientation:
 ---------------------------------------------------------------------
 Center     Atomic      Atomic             Coordinates (Angstroms)
 Number     Number       Type             X           Y           Z
 ---------------------------------------------------------------------
      1          6           0       -3.001974   -0.401258    0.353769
      2          6           0       -4.022119    0.073209   -0.681687
      3          6           0       -5.060510    1.029080   -0.093598
      4          1           0       -3.530697   -0.895385    1.180349
      5          1           0       -2.494442    0.472557    0.785340
      6          1           0       -4.526599   -0.801318   -1.112173
      7          1           0       -3.490891    0.566095   -1.505991
      8          1           0       -4.574660    1.919078    0.319265
      9          1           0       -5.616253    0.543896    0.715320
     10          1           0       -5.779855    1.355793   -0.851003
     11          6           0       -1.957311   -1.357468   -0.219005
     12          6           0       -0.937165   -1.831935    0.816451
     13          6           0        0.101226   -2.787806    0.228362
     14          1           0       -2.464843   -2.231283   -0.650577
     15          1           0       -1.428588   -0.863341   -1.045586
     16          1           0       -1.468394   -2.324821    1.640754
     17          1           0       -0.432686   -0.957408    1.246937
     18          1           0        0.656968   -2.302621   -0.580556
     19          1           0       -0.384624   -3.677803   -0.184501
     20          1           0        0.820570   -3.114519    0.985767
     21          6           0        2.469326    0.137867   -0.250437
     22          6           0        3.814110   -0.558011   -0.037606
     23          6           0        3.777550   -2.040947   -0.408224
     24          1           0        1.701214   -0.372033    0.347017
     25          1           0        2.170488    0.029094   -1.302225
     26          1           0        4.110986   -0.446768    1.013159
     27          1           0        4.579146   -0.046277   -0.635487
     28          1           0        3.505827   -2.168310   -1.461100
     29          1           0        3.035006   -2.571077    0.196913
     30          1           0        4.749145   -2.518775   -0.248399
     31          6           0        2.489958    1.620859    0.115672
     32          6           0        1.145175    2.316736   -0.097157
     33          6           0        1.181735    3.799673    0.273460
     34          1           0        2.788796    1.729631    1.167461
     35          1           0        3.258071    2.130759   -0.481782
     36          1           0        0.380138    1.805003    0.500723
     37          1           0        0.848298    2.205494   -1.147922
     38          1           0        1.924278    4.329803   -0.331677
     39          1           0        1.453457    3.927036    1.326336
     40          1           0        0.210140    4.277501    0.113634
 ---------------------------------------------------------------------

 SCF Done:  E(RHF) =  -470.730757721     A.U. after   11 cycles
 E2 =    -0.1585893058D+01 EUMP2 =    -0.47231665077898D+03

 The electronic state is 1-A.
 Alpha  occ. eigenvalues --  -11.21676 -11.21618 -11.21598 -11.21564 -11.21407
 Alpha  occ. eigenvalues --  -11.21405 -11.21345 -11.21314 -11.21124 -11.21069
 Alpha  occ. eigenvalues --  -11.20994 -11.20922  -1.08508  -1.08378  -1.03611
 Alpha  occ. eigenvalues --   -1.03469  -0.96006  -0.95963  -0.87057  -0.86954
 Alpha  occ. eigenvalues --   -0.79720  -0.79499  -0.78294  -0.78248  -0.65359
 Alpha  occ. eigenvalues --   -0.64837  -0.61143  -0.60803  -0.59425  -0.59290
 Alpha  occ. eigenvalues --   -0.57605  -0.57593  -0.55343  -0.55237  -0.52835
 Alpha  occ. eigenvalues --   -0.52662  -0.52404  -0.52274  -0.50022  -0.49869
 Alpha  occ. eigenvalues --   -0.47988  -0.47824  -0.46709  -0.46561  -0.46033
 Alpha  occ. eigenvalues --   -0.45877  -0.45542  -0.45311  -0.43787  -0.43752
 Alpha virt. eigenvalues --    0.20066   0.22801   0.23744   0.24466   0.25460
 Alpha virt. eigenvalues --    0.25950   0.26983   0.28016   0.28281   0.29150
 Alpha virt. eigenvalues --    0.30339   0.31433   0.31656   0.32008   0.32572

 Mulliken charges:
               1
     1  C   -0.299643
     2  C   -0.299628
     3  C   -0.475731
     4  H    0.149556
     5  H    0.150404
     6  H    0.151899
     7  H    0.152212
     8  H    0.155197
     9  H    0.155121
    10  H    0.160245
    11  C   -0.298460
    12  C   -0.304812
    13  C   -0.483481
    14  H    0.149718
    15  H    0.151059
    16  H    0.152508
    17  H    0.153535
    18  H    0.164388
    19  H    0.156017
    20  H    0.159611
    21  C   -0.309587
    22  C   -0.297895
    23  C   -0.481597
    24  H    0.163203
    25  H    0.147643
    26  H    0.151156
    27  H    0.151391
    28  H    0.153695
    29  H    0.163477
    30  H    0.159221
    31  C   -0.297215
    32  C   -0.302745
    33  C   -0.475616
    34  H    0.149328
    35  H    0.149761
    36  H    0.153165
    37  H    0.151681
    38  H    0.155648
    39  H    0.155434
    40  H    0.160138
 Sum of Mulliken charges =  -0.00000

 Dipole moment (field-independent basis, Debye):
    X=             -0.0180    Y=             -0.0216    Z=             -0.0030  Tot=              0.0283
 Quadrupole moment (field-independent basis, Debye-Ang):
   XX=            -85.2830   YY=            -85.7590   ZZ=            -83.9597
   XY=              1.2563   XZ=             -0.0636   YZ=             -0.8278

 Normal termination of Gaussian 16 at Thu May  6 05:18:22 2021.
