 Gaussian 16, Revision A.03,
 Gaussian 16:  EM64L-G16RevA.03 25-Dec-2016

 -------------
 #p 6-31g* mp2
 -------------

 ------------------------------------------------------
 Input file generated by CHIRIPA (05-May-2021 14:51:14)
 ------------------------------------------------------
 Symbolic Z-matrix:
 Charge =  0 Multiplicity = 1

                         Standard orientation:
 ---------------------------------------------------------------------
 Center     Atomic      Atomic             Coordinates (Angstroms)
 Number     Number       Type             X           Y           Z
 ---------------------------------------------------------------------
      1          6           0       -4.100953   -0.527145   -0.339278
      2          6           0       -3.681115   -1.889446    0.213765
      3          6           0       -4.703368   -2.987614   -0.080887
      4          1           0       -5.073802   -0.248837    0.088570
      5          1           0       -4.249072   -0.609771   -1.424925
      6          1           0       -3.532490   -1.803944    1.297839
      7          1           0       -2.709062   -2.164455   -0.215303
      8          1           0       -4.845534   -3.102000   -1.160380
      9          1           0       -5.673641   -2.739440    0.361359
     10          1           0       -4.383254   -3.953015    0.323325
     11          6           0       -3.089182    0.580970   -0.052700
     12          6           0       -3.509020    1.943271   -0.605743
     13          6           0       -2.486767    3.041439   -0.311092
     14          1           0       -2.941063    0.663597    1.032946
     15          1           0       -2.116333    0.302662   -0.480549
     16          1           0       -4.481073    2.218281   -0.176676
     17          1           0       -3.657645    1.857769   -1.689817
     18          1           0       -1.516494    2.793266   -0.753337
     19          1           0       -2.344601    3.155826    0.768401
     20          1           0       -2.806881    4.006841   -0.715303
     21          6           0        4.309406   -0.253637    0.343464
     22          6           0        5.166571   -0.412870   -0.912680
     23          6           0        6.592997   -0.866930   -0.601342
     24          1           0        4.787700    0.470981    1.016599
     25          1           0        4.281080   -1.210294    0.883279
     26          1           0        5.192137    0.543429   -1.450690
     27          1           0        4.686083   -1.137049   -1.582987
     28          1           0        6.585938   -1.832329   -0.085051
     29          1           0        7.094867   -0.142303    0.047998
     30          1           0        7.188220   -0.974365   -1.513498
     31          6           0        2.880729    0.199811    0.048515
     32          6           0        2.023564    0.359044    1.304658
     33          6           0        0.597138    0.813105    0.993321
     34          1           0        2.909055    1.156469   -0.491300
     35          1           0        2.402435   -0.524806   -0.624620
     36          1           0        2.504052    1.083223    1.974966
     37          1           0        1.997998   -0.597254    1.842668
     38          1           0        0.095267    0.088477    0.343980
     39          1           0        0.604198    1.778503    0.477029
     40          1           0        0.001916    0.920538    1.905476
 ---------------------------------------------------------------------

 SCF Done:  E(RHF) =  -470.732454578     A.U. after   11 cycles
 E2 =    -0.1583481836D+01 EUMP2 =    -0.47231593641334D+03

 The electronic state is 1-A.
 Alpha  occ. eigenvalues --  -11.21598 -11.21584 -11.21545 -11.21527 -11.21394
 Alpha  occ. eigenvalues --  -11.21335 -11.21331 -11.21237 -11.21068 -11.21058
 Alpha  occ. eigenvalues --  -11.20976 -11.20970  -1.08420  -1.08362  -1.03527
 Alpha  occ. eigenvalues --   -1.03455  -0.95956  -0.95923  -0.86982  -0.86939
 Alpha  occ. eigenvalues --   -0.79688  -0.79456  -0.78291  -0.78089  -0.65062
 Alpha  occ. eigenvalues --   -0.64995  -0.60913  -0.60884  -0.59356  -0.59261
 Alpha  occ. eigenvalues --   -0.57580  -0.57543  -0.55367  -0.55101  -0.52695
 Alpha  occ. eigenvalues --   -0.52595  -0.52406  -0.52356  -0.50017  -0.49723
 Alpha  occ. eigenvalues --   -0.48084  -0.47727  -0.46623  -0.46564  -0.45933
 Alpha  occ. eigenvalues --   -0.45696  -0.45668  -0.45353  -0.43746  -0.43712
 Alpha virt. eigenvalues --    0.21887   0.23034   0.23706   0.24506   0.25453
 Alpha virt. eigenvalues --    0.26275   0.26597   0.27637   0.27749   0.29670
 Alpha virt. eigenvalues --    0.30361   0.31277   0.31630   0.32047   0.32258

 Mulliken charges:
               1
     1  C   -0.298038
     2  C   -0.299422
     3  C   -0.475590
     4  H    0.149277
     5  H    0.149009
     6  H    0.151948
     7  H    0.150870
     8  H    0.155102
     9  H    0.155256
    10  H    0.160033
    11  C   -0.301531
    12  C   -0.299611
    13  C   -0.477199
    14  H    0.149900
    15  H    0.155340
    16  H    0.151339
    17  H    0.151195
    18  H    0.157967
    19  H    0.155430
    20  H    0.159166
    21  C   -0.298157
    22  C   -0.299623
    23  C   -0.475693
    24  H    0.149717
    25  H    0.149527
    26  H    0.151882
    27  H    0.151785
    28  H    0.155176
    29  H    0.155206
    30  H    0.160206
    31  C   -0.298278
    32  C   -0.300833
    33  C   -0.477104
    34  H    0.149249
    35  H    0.149021
    36  H    0.151527
    37  H    0.151605
    38  H    0.157044
    39  H    0.157021
    40  H    0.160280
 Sum of Mulliken charges =  -0.00000

 Dipole moment (field-independent basis, Debye):
    X=              0.0041    Y=              0.0100    Z=              0.0074  Tot=              0.0131
 Quadrupole moment (field-independent basis, Debye-Ang):
   XX=            -86.2502   YY=            -84.7762   ZZ=            -84.0440
   XY=             -0.0206   XZ=             -0.6086   YZ=              0.1825

 Normal termination of Gaussian 16 at Thu May  6 00:51:49 2021.
