 Gaussian 16, Revision A.03,
 Gaussian 16:  EM64L-G16RevA.03 25-Dec-2016

 -------------
 #p 6-31g* mp2
 -------------

 ------------------------------------------------------
 Input file generated by CHIRIPA (05-May-2021 14:57:25)
 ------------------------------------------------------
 Symbolic Z-matrix:
 Charge =  0 Multiplicity = 1

                         Standard orientation:
 ---------------------------------------------------------------------
 Center     Atomic      Atomic             Coordinates (Angstroms)
 Number     Number       Type             X           Y           Z
 ---------------------------------------------------------------------
      1          6           0        1.399320   -0.669546    1.010385
      2          6           0        1.953064    0.548765    1.417332
      3          6           0        3.219025    0.938046    0.969727
      4          6           0        3.906561    0.080769    0.112020
      5          6           0        3.381704   -1.139328   -0.311276
      6          6           0        2.114147   -1.508226    0.148898
      7          1           0        0.415271   -0.964032    1.362978
      8          1           0        1.400201    1.202100    2.086318
      9          1           0        3.671409    1.875695    1.269026
     10          1           0        3.956863   -1.769476   -0.978753
     11          1           0        1.686586   -2.454962   -0.168793
     12          7           0        5.247622    0.482094   -0.368493
     13          8           0        5.833048   -0.291007   -1.123628
     14          8           0        5.687927    1.562153    0.019115
     15          6           0       -4.658641    2.312864   -0.233540
     16          6           0       -5.387687    1.259441    0.327990
     17          6           0       -4.858405   -0.034225    0.356890
     18          6           0       -3.591462   -0.239638   -0.187123
     19          6           0       -2.840560    0.789226   -0.753581
     20          6           0       -3.389641    2.074812   -0.771585
     21          1           0       -5.077491    3.314676   -0.251758
     22          1           0       -6.373451    1.441377    0.746577
     23          1           0       -5.401159   -0.868000    0.785438
     24          1           0       -1.860443    0.576909   -1.163106
     25          1           0       -2.821185    2.891000   -1.208322
     26          7           0       -3.020654   -1.604908   -0.162295
     27          8           0       -1.902330   -1.759745   -0.648109
     28          8           0       -3.702387   -2.494319    0.342507
 ---------------------------------------------------------------------

 SCF Done:  E(RHF) =  -868.339886683     A.U. after   16 cycles
 E2 =    -0.2598713303D+01 EUMP2 =    -0.87093859998610D+03

 The electronic state is 1-A.
 Alpha  occ. eigenvalues --  -20.61846 -20.61791 -20.60424 -20.60411 -15.86844
 Alpha  occ. eigenvalues --  -15.85469 -11.31979 -11.30706 -11.28511 -11.28505
 Alpha  occ. eigenvalues --  -11.28197 -11.27465 -11.27456 -11.27309 -11.27199
 Alpha  occ. eigenvalues --  -11.26841 -11.26284 -11.26066  -1.60889  -1.59500
 Alpha  occ. eigenvalues --   -1.40447  -1.39056  -1.20128  -1.18850  -1.09563
 Alpha  occ. eigenvalues --   -1.08240  -1.05487  -1.04231  -0.96435  -0.95102
 Alpha  occ. eigenvalues --   -0.86895  -0.85610  -0.83270  -0.81943  -0.78348
 Alpha  occ. eigenvalues --   -0.77032  -0.73070  -0.72212  -0.71686  -0.71216
 Alpha  occ. eigenvalues --   -0.70824  -0.69873  -0.65775  -0.65475  -0.64481
 Alpha  occ. eigenvalues --   -0.64194  -0.62829  -0.61574  -0.55984  -0.54638
 Alpha  occ. eigenvalues --   -0.53841  -0.53565  -0.52578  -0.52292  -0.49837
 Alpha  occ. eigenvalues --   -0.49802  -0.48452  -0.48431  -0.45889  -0.44491
 Alpha  occ. eigenvalues --   -0.38096  -0.37088  -0.36787  -0.35852
 Alpha virt. eigenvalues --    0.04129   0.05494   0.10562   0.11812   0.15660
 Alpha virt. eigenvalues --    0.17021   0.20771   0.22093   0.26710   0.27579
 Alpha virt. eigenvalues --    0.27947   0.28864   0.30426   0.31519   0.32062

 Mulliken charges:
               1
     1  C   -0.171575
     2  C   -0.222071
     3  C   -0.172822
     4  C    0.157529
     5  C   -0.172961
     6  C   -0.218620
     7  H    0.233190
     8  H    0.218955
     9  H    0.272375
    10  H    0.274845
    11  H    0.234848
    12  N    0.488144
    13  O   -0.460941
    14  O   -0.463076
    15  C   -0.170061
    16  C   -0.218584
    17  C   -0.170819
    18  C    0.156178
    19  C   -0.174000
    20  C   -0.219027
    21  H    0.228466
    22  H    0.225926
    23  H    0.276721
    24  H    0.276999
    25  H    0.226552
    26  N    0.487497
    27  O   -0.467721
    28  O   -0.455946
 Sum of Mulliken charges =  -0.00000

 Dipole moment (field-independent basis, Debye):
    X=             -7.1517    Y=              3.2986    Z=              1.5580  Tot=              8.0284
 Quadrupole moment (field-independent basis, Debye-Ang):
   XX=           -124.6795   YY=           -103.4986   ZZ=           -103.3686
   XY=            -22.3580   XZ=              4.2673   YZ=              0.6030

 Normal termination of Gaussian 16 at Fri May  7 01:57:08 2021.
