 Gaussian 16, Revision A.03,
 Gaussian 16:  EM64L-G16RevA.03 25-Dec-2016

 -------------
 #p 6-31g* mp2
 -------------

 ------------------------------------------------------
 Input file generated by CHIRIPA (05-May-2021 14:53:15)
 ------------------------------------------------------
 Symbolic Z-matrix:
 Charge =  0 Multiplicity = 1

                         Standard orientation:
 ---------------------------------------------------------------------
 Center     Atomic      Atomic             Coordinates (Angstroms)
 Number     Number       Type             X           Y           Z
 ---------------------------------------------------------------------
      1          6           0        2.525181    0.719522    0.134118
      2          6           0        3.596650    1.810306    0.122758
      3          6           0        3.103053    3.130016    0.716494
      4          1           0        1.648008    1.070217   -0.426707
      5          1           0        2.190155    0.555126    1.167620
      6          1           0        3.930547    1.971624   -0.910250
      7          1           0        4.471449    1.456899    0.683514
      8          1           0        2.788150    2.990989    1.755776
      9          1           0        2.244174    3.508638    0.152957
     10          1           0        3.884892    3.895693    0.698432
     11          6           0        3.003558   -0.605752   -0.456249
     12          6           0        1.932089   -1.696536   -0.444888
     13          6           0        2.425686   -3.016246   -1.038624
     14          1           0        3.338584   -0.441356   -1.489750
     15          1           0        3.880731   -0.956447    0.104577
     16          1           0        1.057290   -1.343129   -1.005644
     17          1           0        1.598192   -1.857854    0.588120
     18          1           0        3.284565   -3.394868   -0.475087
     19          1           0        2.740589   -2.877219   -2.077907
     20          1           0        1.643847   -3.781923   -1.020563
     21          6           0       -2.942488    1.652381   -1.569427
     22          6           0       -2.467747    0.406865   -1.993494
     23          6           0       -2.031444   -0.540996   -1.063038
     24          6           0       -2.083983   -0.208484    0.289724
     25          6           0       -2.551658    1.023861    0.743482
     26          6           0       -2.982857    1.956367   -0.204699
     27          1           0       -3.279436    2.382738   -2.299112
     28          1           0       -2.435255    0.168043   -3.052717
     29          1           0       -1.659219   -1.512815   -1.363762
     30          1           0       -2.572041    1.233042    1.806142
     31          1           0       -3.351055    2.922856    0.127527
     32          7           0       -1.624790   -1.203814    1.284138
     33          8           0       -1.681214   -0.886481    2.470203
     34          8           0       -1.217147   -2.282441    0.858663
 ---------------------------------------------------------------------

 SCF Done:  E(RHF) =  -669.535741286     A.U. after   15 cycles
 E2 =    -0.2093156120D+01 EUMP2 =    -0.67162889740676D+03

 The electronic state is 1-A.
 Alpha  occ. eigenvalues --  -20.60889 -20.60860 -15.85897 -11.31256 -11.27819
 Alpha  occ. eigenvalues --  -11.27812 -11.27560 -11.26836 -11.26824 -11.21408
 Alpha  occ. eigenvalues --  -11.21075 -11.20975 -11.20918 -11.20829 -11.20434
 Alpha  occ. eigenvalues --   -1.59933  -1.39490  -1.19424  -1.08821  -1.08035
 Alpha  occ. eigenvalues --   -1.04826  -1.03109  -0.95670  -0.95581  -0.86615
 Alpha  occ. eigenvalues --   -0.86223  -0.82499  -0.79201  -0.77883  -0.77491
 Alpha  occ. eigenvalues --   -0.72130  -0.71234  -0.70534  -0.65080  -0.64846
 Alpha  occ. eigenvalues --   -0.64659  -0.62181  -0.60513  -0.58958  -0.57169
 Alpha  occ. eigenvalues --   -0.55329  -0.54899  -0.53157  -0.52918  -0.52275
 Alpha  occ. eigenvalues --   -0.52015  -0.49560  -0.48905  -0.48889  -0.47547
 Alpha  occ. eigenvalues --   -0.46231  -0.45574  -0.45288  -0.44572  -0.43358
 Alpha  occ. eigenvalues --   -0.37389  -0.36412
 Alpha virt. eigenvalues --    0.04953   0.11132   0.16450   0.21190   0.23186
 Alpha virt. eigenvalues --    0.24510   0.26550   0.27312   0.27605   0.28052
 Alpha virt. eigenvalues --    0.28800   0.30678   0.31514   0.31976   0.32289

 Mulliken charges:
               1
     1  C   -0.300197
     2  C   -0.298811
     3  C   -0.475466
     4  H    0.145963
     5  H    0.153304
     6  H    0.150032
     7  H    0.152988
     8  H    0.156504
     9  H    0.151836
    10  H    0.159217
    11  C   -0.298171
    12  C   -0.300801
    13  C   -0.477337
    14  H    0.144824
    15  H    0.149792
    16  H    0.141859
    17  H    0.169422
    18  H    0.154828
    19  H    0.148212
    20  H    0.166045
    21  C   -0.170785
    22  C   -0.219679
    23  C   -0.170905
    24  C    0.160521
    25  C   -0.170576
    26  C   -0.218381
    27  H    0.225869
    28  H    0.223780
    29  H    0.276481
    30  H    0.275810
    31  H    0.223828
    32  N    0.487992
    33  O   -0.460124
    34  O   -0.457874
 Sum of Mulliken charges =  -0.00000

 Dipole moment (field-independent basis, Debye):
    X=             -1.7611    Y=              3.4036    Z=             -3.3512  Tot=              5.0908
 Quadrupole moment (field-independent basis, Debye-Ang):
   XX=            -88.8033   YY=            -95.4650   ZZ=            -93.7686
   XY=             -7.9560   XZ=              6.8020   YZ=              3.5389

 Normal termination of Gaussian 16 at Thu May  6 07:27:36 2021.
