 Gaussian 16, Revision A.03,
 Gaussian 16:  EM64L-G16RevA.03 25-Dec-2016

 -------------
 #p 6-31g* mp2
 -------------

 ------------------------------------------------------
 Input file generated by CHIRIPA (05-May-2021 14:55:20)
 ------------------------------------------------------
 Symbolic Z-matrix:
 Charge =  0 Multiplicity = 1

                         Standard orientation:
 ---------------------------------------------------------------------
 Center     Atomic      Atomic             Coordinates (Angstroms)
 Number     Number       Type             X           Y           Z
 ---------------------------------------------------------------------
      1          6           0       -1.876027    2.492925    0.453397
      2          6           0       -3.266329    2.424857    0.591055
      3          6           0       -3.953987    1.248381    0.278680
      4          6           0       -3.216463    0.154108   -0.170668
      5          6           0       -1.830762    0.190784   -0.318245
      6          6           0       -1.163937    1.377637   -0.000014
      7          1           0       -1.349929    3.410870    0.698332
      8          1           0       -3.821942    3.289440    0.942958
      9          1           0       -5.029863    1.168207    0.376050
     10          1           0       -1.304237   -0.687560   -0.671376
     11          1           0       -0.084163    1.427619   -0.107884
     12          7           0       -3.933429   -1.096868   -0.504465
     13          8           0       -3.260588   -2.047006   -0.898369
     14          8           0       -5.154651   -1.103557   -0.365870
     15          6           0        4.639112   -0.127110    0.284123
     16          6           0        5.249387    0.533180   -0.952633
     17          6           0        6.596171    1.197183   -0.664426
     18          1           0        4.515884    0.628383    1.072153
     19          1           0        5.341660   -0.875674    0.675882
     20          1           0        4.545308    1.279301   -1.342752
     21          1           0        5.371000   -0.223932   -1.737877
     22          1           0        7.317883    0.460728   -0.296503
     23          1           0        6.487500    1.972502    0.100866
     24          1           0        7.014451    1.662914   -1.562199
     25          6           0        3.292531   -0.795217    0.011951
     26          6           0        2.682257   -1.455506    1.248708
     27          6           0        1.335471   -2.119509    0.960500
     28          1           0        2.589983   -0.046652   -0.379808
     29          1           0        3.415759   -1.550708   -0.776079
     30          1           0        2.560643   -0.698394    2.033950
     31          1           0        3.386335   -2.201627    1.638827
     32          1           0        1.444143   -2.894828    0.195207
     33          1           0        0.613760   -1.383054    0.592577
     34          1           0        0.917192   -2.585240    1.858273
 ---------------------------------------------------------------------

 SCF Done:  E(RHF) =  -669.535168776     A.U. after   15 cycles
 E2 =    -0.2091794660D+01 EUMP2 =    -0.67162696343671D+03

 The electronic state is 1-A.
 Alpha  occ. eigenvalues --  -20.60738 -20.60731 -15.85791 -11.31173 -11.27757
 Alpha  occ. eigenvalues --  -11.27727 -11.27508 -11.26780 -11.26771 -11.22115
 Alpha  occ. eigenvalues --  -11.22080 -11.22020 -11.21892 -11.21533 -11.21476
 Alpha  occ. eigenvalues --   -1.59812  -1.39365  -1.19357  -1.08971  -1.08748
 Alpha  occ. eigenvalues --   -1.04771  -1.04017  -0.96468  -0.95579  -0.87482
 Alpha  occ. eigenvalues --   -0.86160  -0.82416  -0.80080  -0.78793  -0.77453
 Alpha  occ. eigenvalues --   -0.72010  -0.71135  -0.70475  -0.65620  -0.65012
 Alpha  occ. eigenvalues --   -0.64774  -0.62199  -0.61360  -0.59821  -0.58073
 Alpha  occ. eigenvalues --   -0.55786  -0.55258  -0.53155  -0.53097  -0.52987
 Alpha  occ. eigenvalues --   -0.52716  -0.50403  -0.48772  -0.48763  -0.48386
 Alpha  occ. eigenvalues --   -0.47120  -0.46326  -0.46262  -0.44766  -0.44279
 Alpha  occ. eigenvalues --   -0.37340  -0.36352
 Alpha virt. eigenvalues --    0.05049   0.11275   0.16463   0.19105   0.22613
 Alpha virt. eigenvalues --    0.23759   0.25170   0.26285   0.26760   0.28382
 Alpha virt. eigenvalues --    0.29186   0.30274   0.31323   0.31516   0.31833

 Mulliken charges:
               1
     1  C   -0.171114
     2  C   -0.218479
     3  C   -0.170934
     4  C    0.158429
     5  C   -0.173363
     6  C   -0.221138
     7  H    0.225642
     8  H    0.223462
     9  H    0.275664
    10  H    0.279501
    11  H    0.225474
    12  N    0.488067
    13  O   -0.459770
    14  O   -0.460687
    15  C   -0.298441
    16  C   -0.299573
    17  C   -0.475931
    18  H    0.148472
    19  H    0.152459
    20  H    0.149100
    21  H    0.154018
    22  H    0.156753
    23  H    0.154648
    24  H    0.161466
    25  C   -0.298221
    26  C   -0.300839
    27  C   -0.477534
    28  H    0.139525
    29  H    0.153719
    30  H    0.150698
    31  H    0.155673
    32  H    0.160709
    33  H    0.146019
    34  H    0.166529
 Sum of Mulliken charges =  -0.00000

 Dipole moment (field-independent basis, Debye):
    X=              2.6325    Y=              4.2981    Z=              1.2116  Tot=              5.1838
 Quadrupole moment (field-independent basis, Debye-Ang):
   XX=           -107.4854   YY=            -92.1214   ZZ=            -95.5971
   XY=            -17.3023   XZ=             -5.6199   YZ=              0.1739

 Normal termination of Gaussian 16 at Wed May  5 15:52:02 2021.
