 Gaussian 16, Revision A.03,
 Gaussian 16:  EM64L-G16RevA.03 25-Dec-2016

 -------------
 #p 6-31g* mp2
 -------------

 ------------------------------------------------------
 Input file generated by CHIRIPA (05-May-2021 14:57:22)
 ------------------------------------------------------
 Symbolic Z-matrix:
 Charge =  0 Multiplicity = 1

                         Standard orientation:
 ---------------------------------------------------------------------
 Center     Atomic      Atomic             Coordinates (Angstroms)
 Number     Number       Type             X           Y           Z
 ---------------------------------------------------------------------
      1          6           0        1.962220    1.600880    1.962042
      2          6           0        1.745749    0.229278    2.130471
      3          6           0        2.082300   -0.672423    1.116461
      4          6           0        2.635928   -0.165681   -0.058273
      5          6           0        2.863781    1.195293   -0.256070
      6          6           0        2.519563    2.078668    0.771407
      7          1           0        1.697802    2.294225    2.754980
      8          1           0        1.313064   -0.144619    3.054067
      9          1           0        1.925460   -1.739202    1.220393
     10          1           0        3.296726    1.538082   -1.187989
     11          1           0        2.688803    3.143355    0.637829
     12          7           0        2.996278   -1.110571   -1.138889
     13          8           0        3.482654   -0.638862   -2.164348
     14          8           0        2.785520   -2.304993   -0.939956
     15          6           0       -2.816844   -2.353868    0.729017
     16          6           0       -1.577036   -1.709501    0.793745
     17          6           0       -1.432262   -0.399858    0.326389
     18          6           0       -2.553306    0.238477   -0.201889
     19          6           0       -3.801786   -0.376733   -0.280022
     20          6           0       -3.923311   -1.686604    0.193285
     21          1           0       -2.920277   -3.371319    1.094381
     22          1           0       -0.716014   -2.225259    1.209294
     23          1           0       -0.484117    0.122627    0.364462
     24          1           0       -4.641925    0.163204   -0.699607
     25          1           0       -4.887385   -2.184550    0.141754
     26          7           0       -2.412346    1.625058   -0.699807
     27          8           0       -3.415329    2.165646   -1.160707
     28          8           0       -1.301550    2.145018   -0.619747
 ---------------------------------------------------------------------

 SCF Done:  E(RHF) =  -868.336943648     A.U. after   16 cycles
 E2 =    -0.2603524222D+01 EUMP2 =    -0.87094046787059D+03

 The electronic state is 1-A.
 Alpha  occ. eigenvalues --  -20.61080 -20.61044 -20.60892 -20.60874 -15.86121
 Alpha  occ. eigenvalues --  -15.85933 -11.31558 -11.31166 -11.28202 -11.27994
 Alpha  occ. eigenvalues --  -11.27781 -11.27759 -11.27613 -11.27528 -11.27187
 Alpha  occ. eigenvalues --  -11.26977 -11.26786 -11.26763  -1.60137  -1.59961
 Alpha  occ. eigenvalues --   -1.39690  -1.39517  -1.19744  -1.19359  -1.09068
 Alpha  occ. eigenvalues --   -1.08790  -1.05177  -1.04724  -0.95907  -0.95632
 Alpha  occ. eigenvalues --   -0.86494  -0.86167  -0.82751  -0.82466  -0.77822
 Alpha  occ. eigenvalues --   -0.77520  -0.72332  -0.72167  -0.71472  -0.71280
 Alpha  occ. eigenvalues --   -0.70770  -0.70487  -0.65350  -0.65105  -0.65021
 Alpha  occ. eigenvalues --   -0.64793  -0.62517  -0.62122  -0.55539  -0.55342
 Alpha  occ. eigenvalues --   -0.53594  -0.53186  -0.53082  -0.52541  -0.49103
 Alpha  occ. eigenvalues --   -0.49080  -0.48917  -0.48908  -0.45080  -0.44952
 Alpha  occ. eigenvalues --   -0.37699  -0.37353  -0.36717  -0.36294
 Alpha virt. eigenvalues --    0.04711   0.04982   0.10774   0.11379   0.16103
 Alpha virt. eigenvalues --    0.16595   0.19964   0.22117   0.25290   0.27698
 Alpha virt. eigenvalues --    0.28470   0.29038   0.30498   0.31403   0.32202

 Mulliken charges:
               1
     1  C   -0.166325
     2  C   -0.225593
     3  C   -0.193557
     4  C    0.162336
     5  C   -0.165968
     6  C   -0.207746
     7  H    0.230200
     8  H    0.223333
     9  H    0.270192
    10  H    0.279923
    11  H    0.230681
    12  N    0.488770
    13  O   -0.455620
    14  O   -0.464091
    15  C   -0.169607
    16  C   -0.222142
    17  C   -0.178596
    18  C    0.157385
    19  C   -0.169631
    20  C   -0.219491
    21  H    0.226315
    22  H    0.217025
    23  H    0.289446
    24  H    0.275284
    25  H    0.223648
    26  N    0.488075
    27  O   -0.460312
    28  O   -0.463934
 Sum of Mulliken charges =  -0.00000

 Dipole moment (field-independent basis, Debye):
    X=             -1.5379    Y=             -1.1889    Z=              5.4531  Tot=              5.7893
 Quadrupole moment (field-independent basis, Debye-Ang):
   XX=           -103.9386   YY=           -105.7893   ZZ=           -105.2666
   XY=             23.8839   XZ=              5.9770   YZ=             -1.5372

 Normal termination of Gaussian 16 at Wed May  5 21:02:01 2021.
