 Gaussian 16, Revision A.03,
 Gaussian 16:  EM64L-G16RevA.03 25-Dec-2016

 -------------
 #p 6-31g* mp2
 -------------

 ------------------------------------------------------
 Input file generated by CHIRIPA (05-May-2021 14:51:10)
 ------------------------------------------------------
 Symbolic Z-matrix:
 Charge =  0 Multiplicity = 1

                         Standard orientation:
 ---------------------------------------------------------------------
 Center     Atomic      Atomic             Coordinates (Angstroms)
 Number     Number       Type             X           Y           Z
 ---------------------------------------------------------------------
      1          6           0        3.650603   -0.133672    0.201216
      2          6           0        3.915921    0.565233   -1.132622
      3          6           0        5.356117    1.061671   -1.263693
      4          1           0        3.877121    0.559752    1.022677
      5          1           0        4.342484   -0.980680    0.307393
      6          1           0        3.222815    1.409834   -1.236875
      7          1           0        3.688562   -0.129872   -1.951007
      8          1           0        6.059998    0.226769   -1.185648
      9          1           0        5.591605    1.775223   -0.467458
     10          1           0        5.523774    1.558065   -2.224601
     11          6           0        2.215154   -0.635578    0.347171
     12          6           0        1.949836   -1.334482    1.681009
     13          6           0        0.509640   -1.830920    1.812079
     14          1           0        1.523273    0.211431    0.240994
     15          1           0        1.988635   -1.329001   -0.474290
     16          1           0        2.177195   -0.639377    2.499394
     17          1           0        2.642942   -2.179084    1.785261
     18          1           0        0.274152   -2.544472    1.015845
     19          1           0       -0.194241   -0.996018    1.734034
     20          1           0        0.341983   -2.327314    2.772987
     21          6           0       -3.023509   -0.360754   -0.134091
     22          6           0       -3.165625   -1.203202   -1.402187
     23          6           0       -3.346208   -2.692221   -1.105534
     24          1           0       -2.166366   -0.726804    0.447509
     25          1           0       -3.912694   -0.505012    0.495143
     26          1           0       -2.277062   -1.056324   -2.029483
     27          1           0       -4.022413   -0.834980   -1.980930
     28          1           0       -4.242852   -2.858356   -0.499705
     29          1           0       -2.487586   -3.080959   -0.548533
     30          1           0       -3.445823   -3.275778   -2.026076
     31          6           0       -2.842247    1.130003   -0.414297
     32          6           0       -2.700132    1.972450    0.853801
     33          6           0       -2.519548    3.461470    0.557147
     34          1           0       -1.953063    1.274261   -1.043529
     35          1           0       -3.699390    1.496054   -0.995896
     36          1           0       -1.843344    1.604229    1.432544
     37          1           0       -3.588695    1.825574    1.481097
     38          1           0       -3.378171    3.850208    0.000147
     39          1           0       -1.622904    3.627606   -0.048682
     40          1           0       -2.419933    4.045027    1.477690
 ---------------------------------------------------------------------

 SCF Done:  E(RHF) =  -470.733250488     A.U. after   11 cycles
 E2 =    -0.1583246072D+01 EUMP2 =    -0.47231649656020D+03

 The electronic state is 1-A.
 Alpha  occ. eigenvalues --  -11.21683 -11.21650 -11.21623 -11.21540 -11.21478
 Alpha  occ. eigenvalues --  -11.21413 -11.21358 -11.21257 -11.21169 -11.21106
 Alpha  occ. eigenvalues --  -11.21090 -11.21018  -1.08501  -1.08391  -1.03600
 Alpha  occ. eigenvalues --   -1.03502  -0.96056  -0.95946  -0.87076  -0.86962
 Alpha  occ. eigenvalues --   -0.79680  -0.79559  -0.78333  -0.78180  -0.65167
 Alpha  occ. eigenvalues --   -0.65002  -0.61002  -0.60901  -0.59415  -0.59317
 Alpha  occ. eigenvalues --   -0.57687  -0.57545  -0.55420  -0.55168  -0.52741
 Alpha  occ. eigenvalues --   -0.52658  -0.52523  -0.52345  -0.50065  -0.49829
 Alpha  occ. eigenvalues --   -0.48066  -0.47857  -0.46733  -0.46599  -0.45991
 Alpha  occ. eigenvalues --   -0.45792  -0.45702  -0.45385  -0.43852  -0.43750
 Alpha virt. eigenvalues --    0.20283   0.23091   0.23473   0.24411   0.25516
 Alpha virt. eigenvalues --    0.26457   0.26833   0.27565   0.28110   0.29330
 Alpha virt. eigenvalues --    0.30448   0.31575   0.31709   0.31845   0.32418

 Mulliken charges:
               1
     1  C   -0.298320
     2  C   -0.299701
     3  C   -0.475760
     4  H    0.149882
     5  H    0.149823
     6  H    0.151814
     7  H    0.152009
     8  H    0.155293
     9  H    0.155306
    10  H    0.160431
    11  C   -0.298495
    12  C   -0.299595
    13  C   -0.482621
    14  H    0.148829
    15  H    0.149696
    16  H    0.152307
    17  H    0.152420
    18  H    0.155653
    19  H    0.160626
    20  H    0.161442
    21  C   -0.307111
    22  C   -0.298932
    23  C   -0.476797
    24  H    0.159637
    25  H    0.148967
    26  H    0.151780
    27  H    0.151522
    28  H    0.155132
    29  H    0.156278
    30  H    0.159787
    31  C   -0.298004
    32  C   -0.301021
    33  C   -0.475611
    34  H    0.149334
    35  H    0.149612
    36  H    0.151445
    37  H    0.152357
    38  H    0.155539
    39  H    0.154872
    40  H    0.160175
 Sum of Mulliken charges =  -0.00000

 Dipole moment (field-independent basis, Debye):
    X=              0.0364    Y=             -0.0155    Z=              0.0229  Tot=              0.0457
 Quadrupole moment (field-independent basis, Debye-Ang):
   XX=            -84.6940   YY=            -85.3646   ZZ=            -84.6674
   XY=             -0.9763   XZ=              0.0796   YZ=              0.4941

 Normal termination of Gaussian 16 at Wed May  5 15:10:38 2021.
