 Gaussian 16, Revision A.03,
 Gaussian 16:  EM64L-G16RevA.03 25-Dec-2016

 -------------
 #p 6-31g* mp2
 -------------

 ------------------------------------------------------
 Input file generated by CHIRIPA (05-May-2021 14:57:27)
 ------------------------------------------------------
 Symbolic Z-matrix:
 Charge =  0 Multiplicity = 1

                         Standard orientation:
 ---------------------------------------------------------------------
 Center     Atomic      Atomic             Coordinates (Angstroms)
 Number     Number       Type             X           Y           Z
 ---------------------------------------------------------------------
      1          6           0        1.955202   -1.741867    1.419063
      2          6           0        2.030673   -1.829392    0.025088
      3          6           0        2.806199   -0.921692   -0.702363
      4          6           0        3.496334    0.065388   -0.000454
      5          6           0        3.441245    0.178559    1.387872
      6          6           0        2.659487   -0.739937    2.094814
      7          1           0        1.350333   -2.451184    1.976199
      8          1           0        1.484785   -2.606471   -0.502358
      9          1           0        2.882366   -0.966538   -1.781995
     10          1           0        3.996681    0.964073    1.885743
     11          1           0        2.602734   -0.669562    3.177344
     12          7           0        4.320648    1.032045   -0.759718
     13          8           0        4.919144    1.892475   -0.117769
     14          8           0        4.352640    0.910976   -1.982402
     15          6           0       -4.260060    2.386726    0.422814
     16          6           0       -5.141848    1.333174    0.160134
     17          6           0       -4.654614    0.058633   -0.144322
     18          6           0       -3.273509   -0.127730   -0.177612
     19          6           0       -2.369457    0.901787    0.079438
     20          6           0       -2.879113    2.168055    0.381699
     21          1           0       -4.647264    3.373608    0.658470
     22          1           0       -6.214794    1.500084    0.191355
     23          1           0       -5.314760   -0.774782   -0.351794
     24          1           0       -1.304992    0.704701    0.040837
     25          1           0       -2.191947    2.984392    0.585267
     26          7           0       -2.745827   -1.472652   -0.498765
     27          8           0       -1.524766   -1.610918   -0.521779
     28          8           0       -3.563282   -2.363069   -0.721389
 ---------------------------------------------------------------------

 SCF Done:  E(RHF) =  -868.339957693     A.U. after   16 cycles
 E2 =    -0.2598897782D+01 EUMP2 =    -0.87093885547448D+03

 The electronic state is 1-A.
 Alpha  occ. eigenvalues --  -20.61459 -20.61414 -20.60453 -20.60440 -15.86479
 Alpha  occ. eigenvalues --  -15.85493 -11.31609 -11.30686 -11.28155 -11.28130
 Alpha  occ. eigenvalues --  -11.27848 -11.27255 -11.27118 -11.27115 -11.27091
 Alpha  occ. eigenvalues --  -11.26820 -11.26252 -11.25981  -1.60512  -1.59531
 Alpha  occ. eigenvalues --   -1.40071  -1.39088  -1.19761  -1.18813  -1.09200
 Alpha  occ. eigenvalues --   -1.08221  -1.05125  -1.04164  -0.96075  -0.95094
 Alpha  occ. eigenvalues --   -0.86533  -0.85553  -0.82914  -0.81921  -0.77985
 Alpha  occ. eigenvalues --   -0.77007  -0.72723  -0.71821  -0.71710  -0.70861
 Alpha  occ. eigenvalues --   -0.70858  -0.69876  -0.65418  -0.65120  -0.64438
 Alpha  occ. eigenvalues --   -0.64106  -0.62469  -0.61495  -0.55633  -0.54623
 Alpha  occ. eigenvalues --   -0.53473  -0.53210  -0.52533  -0.52212  -0.49471
 Alpha  occ. eigenvalues --   -0.49442  -0.48479  -0.48449  -0.45531  -0.44531
 Alpha  occ. eigenvalues --   -0.37732  -0.36763  -0.36720  -0.35760
 Alpha virt. eigenvalues --    0.04520   0.05491   0.10937   0.11886   0.16066
 Alpha virt. eigenvalues --    0.17061   0.21111   0.22145   0.27041   0.27874
 Alpha virt. eigenvalues --    0.28171   0.28958   0.30685   0.31738   0.32149

 Mulliken charges:
               1
     1  C   -0.172296
     2  C   -0.209637
     3  C   -0.176341
     4  C    0.156223
     5  C   -0.175300
     6  C   -0.221312
     7  H    0.228826
     8  H    0.239029
     9  H    0.275279
    10  H    0.271922
    11  H    0.220108
    12  N    0.487854
    13  O   -0.463585
    14  O   -0.460982
    15  C   -0.170053
    16  C   -0.218693
    17  C   -0.170825
    18  C    0.157068
    19  C   -0.171976
    20  C   -0.218850
    21  H    0.227504
    22  H    0.224681
    23  H    0.275711
    24  H    0.277404
    25  H    0.226375
    26  N    0.491001
    27  O   -0.470616
    28  O   -0.458518
 Sum of Mulliken charges =  -0.00000

 Dipole moment (field-independent basis, Debye):
    X=             -5.0988    Y=              1.1952    Z=              3.7422  Tot=              6.4367
 Quadrupole moment (field-independent basis, Debye-Ang):
   XX=           -109.6090   YY=           -105.4092   ZZ=           -102.7719
   XY=            -25.8276   XZ=              7.4754   YZ=              1.6564

 Normal termination of Gaussian 16 at Wed May  5 19:37:40 2021.
