 Gaussian 16, Revision A.03,
 Gaussian 16:  EM64L-G16RevA.03 25-Dec-2016

 -------------
 #p 6-31g* mp2
 -------------

 ------------------------------------------------------
 Input file generated by CHIRIPA (05-May-2021 14:55:23)
 ------------------------------------------------------
 Symbolic Z-matrix:
 Charge =  0 Multiplicity = 1

                         Standard orientation:
 ---------------------------------------------------------------------
 Center     Atomic      Atomic             Coordinates (Angstroms)
 Number     Number       Type             X           Y           Z
 ---------------------------------------------------------------------
      1          6           0        1.475917    1.826145    1.214884
      2          6           0        2.540383    2.024390    0.329371
      3          6           0        3.218912    0.932887   -0.220871
      4          6           0        2.804616   -0.348900    0.137838
      5          6           0        1.747819   -0.578930    1.017359
      6          6           0        1.083724    0.527407    1.555451
      7          1           0        0.954426    2.679813    1.637606
      8          1           0        2.847143    3.031880    0.063089
      9          1           0        4.046300    1.057672   -0.908821
     10          1           0        1.464972   -1.595115    1.263903
     11          1           0        0.257394    0.370440    2.242899
     12          7           0        3.515304   -1.512278   -0.438247
     13          8           0        3.130936   -2.631513   -0.106268
     14          8           0        4.443252   -1.282869   -1.210854
     15          6           0       -3.555948   -0.551392   -0.237639
     16          6           0       -4.989443   -0.914791    0.150970
     17          6           0       -5.205789   -2.423884    0.267709
     18          1           0       -3.308351   -1.033744   -1.193138
     19          1           0       -2.864771   -0.965105    0.509698
     20          1           0       -5.677808   -0.499335   -0.596136
     21          1           0       -5.233721   -0.431363    1.105560
     22          1           0       -4.542397   -2.850570    1.026951
     23          1           0       -4.989005   -2.918929   -0.684412
     24          1           0       -6.237238   -2.661214    0.546363
     25          6           0       -3.324016    0.953725   -0.358287
     26          6           0       -1.890521    1.317124   -0.746897
     27          6           0       -1.674174    2.826217   -0.863636
     28          1           0       -4.015193    1.367438   -1.105624
     29          1           0       -3.571614    1.436077    0.597211
     30          1           0       -1.646242    0.833695   -1.701486
     31          1           0       -1.202157    0.901669    0.000210
     32          1           0       -1.890959    3.321262    0.088486
     33          1           0       -2.337567    3.252903   -1.622878
     34          1           0       -0.642726    3.063547   -1.142289
 ---------------------------------------------------------------------

 SCF Done:  E(RHF) =  -669.534738804     A.U. after   15 cycles
 E2 =    -0.2093266766D+01 EUMP2 =    -0.67162800556932D+03

 The electronic state is 1-A.
 Alpha  occ. eigenvalues --  -20.60805 -20.60800 -15.85860 -11.31250 -11.27831
 Alpha  occ. eigenvalues --  -11.27828 -11.27572 -11.26846 -11.26836 -11.21930
 Alpha  occ. eigenvalues --  -11.21928 -11.21816 -11.21753 -11.21669 -11.21319
 Alpha  occ. eigenvalues --   -1.59880  -1.39433  -1.19440  -1.08878  -1.08783
 Alpha  occ. eigenvalues --   -1.04853  -1.03922  -0.96398  -0.95648  -0.87411
 Alpha  occ. eigenvalues --   -0.86248  -0.82485  -0.79981  -0.78638  -0.77527
 Alpha  occ. eigenvalues --   -0.72079  -0.71203  -0.70534  -0.65512  -0.65089
 Alpha  occ. eigenvalues --   -0.64839  -0.62199  -0.61343  -0.59774  -0.58004
 Alpha  occ. eigenvalues --   -0.55734  -0.55315  -0.53263  -0.52976  -0.52941
 Alpha  occ. eigenvalues --   -0.52804  -0.50340  -0.48841  -0.48831  -0.48294
 Alpha  occ. eigenvalues --   -0.47021  -0.46177  -0.46119  -0.44833  -0.44184
 Alpha  occ. eigenvalues --   -0.37348  -0.36389
 Alpha virt. eigenvalues --    0.04999   0.11081   0.16421   0.20352   0.22862
 Alpha virt. eigenvalues --    0.23993   0.25728   0.26466   0.27289   0.28029
 Alpha virt. eigenvalues --    0.28929   0.30665   0.31111   0.31409   0.31853

 Mulliken charges:
               1
     1  C   -0.165664
     2  C   -0.219914
     3  C   -0.170395
     4  C    0.158640
     5  C   -0.170064
     6  C   -0.221381
     7  H    0.227719
     8  H    0.224061
     9  H    0.275989
    10  H    0.276058
    11  H    0.224059
    12  N    0.488094
    13  O   -0.460167
    14  O   -0.460292
    15  C   -0.297062
    16  C   -0.299852
    17  C   -0.475814
    18  H    0.153124
    19  H    0.144216
    20  H    0.153218
    21  H    0.150563
    22  H    0.154510
    23  H    0.157212
    24  H    0.161182
    25  C   -0.298100
    26  C   -0.305936
    27  C   -0.476948
    28  H    0.151022
    29  H    0.145648
    30  H    0.155380
    31  H    0.156066
    32  H    0.147817
    33  H    0.158236
    34  H    0.158776
 Sum of Mulliken charges =  -0.00000

 Dipole moment (field-independent basis, Debye):
    X=             -2.4603    Y=              4.0422    Z=              1.9846  Tot=              5.1314
 Quadrupole moment (field-independent basis, Debye-Ang):
   XX=           -107.4182   YY=            -97.3945   ZZ=            -92.4532
   XY=             14.5769   XZ=              4.1378   YZ=             -1.7313

 Normal termination of Gaussian 16 at Thu May  6 17:37:52 2021.
