 Gaussian 16, Revision A.03,
 Gaussian 16:  EM64L-G16RevA.03 25-Dec-2016

 -------------
 #p 6-31g* mp2
 -------------

 ------------------------------------------------------
 Input file generated by CHIRIPA (05-May-2021 14:55:23)
 ------------------------------------------------------
 Symbolic Z-matrix:
 Charge =  0 Multiplicity = 1

                         Standard orientation:
 ---------------------------------------------------------------------
 Center     Atomic      Atomic             Coordinates (Angstroms)
 Number     Number       Type             X           Y           Z
 ---------------------------------------------------------------------
      1          6           0        0.991509   -1.895168    0.709861
      2          6           0        0.986638   -1.364150   -0.584171
      3          6           0        1.926060   -0.399041   -0.959137
      4          6           0        2.860233    0.014088   -0.010488
      5          6           0        2.890772   -0.496014    1.286490
      6          6           0        1.941885   -1.460172    1.639422
      7          1           0        0.258067   -2.644518    0.992585
      8          1           0        0.249739   -1.700099   -1.308162
      9          1           0        1.944955    0.028787   -1.954136
     10          1           0        3.637737   -0.141372    1.986269
     11          1           0        1.948043   -1.870813    2.645097
     12          7           0        3.859767    1.035303   -0.395784
     13          8           0        4.672316    1.382594    0.458493
     14          8           0        3.811726    1.469101   -1.544761
     15          6           0       -3.878604    0.765296    0.210404
     16          6           0       -3.255115    2.147530    0.013745
     17          6           0       -4.123877    3.273289    0.575630
     18          1           0       -4.865912    0.743559   -0.270943
     19          1           0       -4.049874    0.597182    1.282691
     20          1           0       -3.083796    2.312427   -1.057738
     21          1           0       -2.269095    2.165918    0.495451
     22          1           0       -4.284633    3.136281    1.649868
     23          1           0       -5.103964    3.283621    0.087854
     24          1           0       -3.659268    4.252624    0.424305
     25          6           0       -3.021869   -0.370493   -0.346120
     26          6           0       -3.645357   -1.752727   -0.149460
     27          6           0       -2.776596   -2.878486   -0.711346
     28          1           0       -2.850599   -0.202378   -1.418406
     29          1           0       -2.034561   -0.348756    0.135228
     30          1           0       -4.631378   -1.771115   -0.631167
     31          1           0       -3.816676   -1.917624    0.922023
     32          1           0       -1.796509   -2.888819   -0.223570
     33          1           0       -2.615840   -2.741478   -1.785584
     34          1           0       -3.241205   -3.857822   -0.560021
 ---------------------------------------------------------------------

 SCF Done:  E(RHF) =  -669.535099910     A.U. after   15 cycles
 E2 =    -0.2092679806D+01 EUMP2 =    -0.67162777971596D+03

 The electronic state is 1-A.
 Alpha  occ. eigenvalues --  -20.60759 -20.60754 -15.85811 -11.31184 -11.27745
 Alpha  occ. eigenvalues --  -11.27728 -11.27483 -11.26773 -11.26717 -11.22498
 Alpha  occ. eigenvalues --  -11.22334 -11.22085 -11.21957 -11.21877 -11.21330
 Alpha  occ. eigenvalues --   -1.59834  -1.39387  -1.19353  -1.09089  -1.08748
 Alpha  occ. eigenvalues --   -1.04752  -1.04208  -0.96683  -0.95587  -0.87706
 Alpha  occ. eigenvalues --   -0.86152  -0.82412  -0.80293  -0.78851  -0.77450
 Alpha  occ. eigenvalues --   -0.72030  -0.71156  -0.70499  -0.65734  -0.65002
 Alpha  occ. eigenvalues --   -0.64756  -0.62118  -0.61592  -0.60056  -0.58262
 Alpha  occ. eigenvalues --   -0.56061  -0.55214  -0.53368  -0.53159  -0.53066
 Alpha  occ. eigenvalues --   -0.52806  -0.50637  -0.48801  -0.48785  -0.48570
 Alpha  occ. eigenvalues --   -0.47307  -0.46390  -0.46282  -0.44791  -0.44427
 Alpha  occ. eigenvalues --   -0.37318  -0.36335
 Alpha virt. eigenvalues --    0.05058   0.11206   0.16530   0.19762   0.22629
 Alpha virt. eigenvalues --    0.23978   0.25242   0.26014   0.27123   0.27337
 Alpha virt. eigenvalues --    0.28956   0.30376   0.30825   0.31570   0.32256

 Mulliken charges:
               1
     1  C   -0.176424
     2  C   -0.219047
     3  C   -0.172028
     4  C    0.158445
     5  C   -0.171191
     6  C   -0.218456
     7  H    0.228959
     8  H    0.229129
     9  H    0.275797
    10  H    0.275506
    11  H    0.223470
    12  N    0.488055
    13  O   -0.460461
    14  O   -0.460285
    15  C   -0.298373
    16  C   -0.300573
    17  C   -0.476200
    18  H    0.150858
    19  H    0.149862
    20  H    0.152693
    21  H    0.154177
    22  H    0.155241
    23  H    0.155414
    24  H    0.162953
    25  C   -0.304199
    26  C   -0.299200
    27  C   -0.481135
    28  H    0.148181
    29  H    0.152512
    30  H    0.156321
    31  H    0.152939
    32  H    0.144735
    33  H    0.156503
    34  H    0.165824
 Sum of Mulliken charges =  -0.00000

 Dipole moment (field-independent basis, Debye):
    X=             -3.6560    Y=             -3.5287    Z=              1.3503  Tot=              5.2575
 Quadrupole moment (field-independent basis, Debye-Ang):
   XX=           -114.3432   YY=            -96.3130   ZZ=            -89.9586
   XY=            -10.0625   XZ=              6.6730   YZ=             -0.5515

 Normal termination of Gaussian 16 at Thu May  6 17:35:54 2021.
