 Gaussian 16, Revision A.03,
 Gaussian 16:  EM64L-G16RevA.03 25-Dec-2016

 -------------
 #p 6-31g* mp2
 -------------

 ------------------------------------------------------
 Input file generated by CHIRIPA (05-May-2021 14:53:16)
 ------------------------------------------------------
 Symbolic Z-matrix:
 Charge =  0 Multiplicity = 1

                         Standard orientation:
 ---------------------------------------------------------------------
 Center     Atomic      Atomic             Coordinates (Angstroms)
 Number     Number       Type             X           Y           Z
 ---------------------------------------------------------------------
      1          6           0        3.980791    0.073137   -0.008053
      2          6           0        5.291900   -0.210508    0.725790
      3          6           0        6.225658    0.999827    0.757059
      4          1           0        4.204511    0.392076   -1.035269
      5          1           0        3.472104    0.917403    0.477587
      6          1           0        5.797295   -1.054879    0.239756
      7          1           0        5.065025   -0.528994    1.751320
      8          1           0        5.744591    1.844615    1.260556
      9          1           0        6.481021    1.315741   -0.259596
     10          1           0        7.156826    0.774927    1.286404
     11          6           0        3.036788   -1.127285   -0.047734
     12          6           0        1.725680   -0.843639   -0.781577
     13          6           0        0.791922   -2.053975   -0.812847
     14          1           0        3.545476   -1.971551   -0.533375
     15          1           0        2.813069   -1.446224    0.979481
     16          1           0        1.952554   -0.525154   -1.807107
     17          1           0        1.220284    0.000731   -0.295543
     18          1           0        0.536558   -2.369889    0.203809
     19          1           0        1.272989   -2.898762   -1.316343
     20          1           0       -0.139247   -1.829075   -1.342191
     21          6           0       -4.038015   -1.558082    0.918430
     22          6           0       -3.965406   -0.372824    1.657628
     23          6           0       -3.249730    0.724975    1.170603
     24          6           0       -2.615875    0.602216   -0.064892
     25          6           0       -2.669704   -0.565170   -0.824895
     26          6           0       -3.391073   -1.650310   -0.318290
     27          1           0       -4.596181   -2.405962    1.304369
     28          1           0       -4.466840   -0.298343    2.618389
     29          1           0       -3.177185    1.654490    1.722109
     30          1           0       -2.159413   -0.609330   -1.779395
     31          1           0       -3.445749   -2.569546   -0.894537
     32          7           0       -1.855207    1.757705   -0.590847
     33          8           0       -1.305593    1.624153   -1.682050
     34          8           0       -1.823014    2.775050    0.098071
 ---------------------------------------------------------------------

 SCF Done:  E(RHF) =  -669.534910771     A.U. after   15 cycles
 E2 =    -0.2092549207D+01 EUMP2 =    -0.67162745997866D+03

 The electronic state is 1-A.
 Alpha  occ. eigenvalues --  -20.60843 -20.60822 -15.85874 -11.31215 -11.27790
 Alpha  occ. eigenvalues --  -11.27786 -11.27525 -11.26793 -11.26781 -11.21287
 Alpha  occ. eigenvalues --  -11.21216 -11.21076 -11.21025 -11.20965 -11.20746
 Alpha  occ. eigenvalues --   -1.59901  -1.39455  -1.19394  -1.08789  -1.08098
 Alpha  occ. eigenvalues --   -1.04801  -1.03246  -0.95755  -0.95609  -0.86763
 Alpha  occ. eigenvalues --   -0.86189  -0.82463  -0.79290  -0.77883  -0.77516
 Alpha  occ. eigenvalues --   -0.72094  -0.71223  -0.70520  -0.65047  -0.64811
 Alpha  occ. eigenvalues --   -0.64727  -0.62198  -0.60644  -0.59100  -0.57335
 Alpha  occ. eigenvalues --   -0.55296  -0.55028  -0.53207  -0.52932  -0.52337
 Alpha  occ. eigenvalues --   -0.52105  -0.49659  -0.48855  -0.48851  -0.47612
 Alpha  occ. eigenvalues --   -0.46315  -0.45455  -0.45364  -0.44805  -0.43512
 Alpha  occ. eigenvalues --   -0.37368  -0.36341
 Alpha virt. eigenvalues --    0.04997   0.11208   0.16478   0.20988   0.23163
 Alpha virt. eigenvalues --    0.24337   0.26507   0.26972   0.27718   0.28008
 Alpha virt. eigenvalues --    0.28834   0.30782   0.31559   0.31645   0.32234

 Mulliken charges:
               1
     1  C   -0.298680
     2  C   -0.299414
     3  C   -0.475649
     4  H    0.151504
     5  H    0.153252
     6  H    0.150464
     7  H    0.150410
     8  H    0.156437
     9  H    0.155760
    10  H    0.158720
    11  C   -0.298939
    12  C   -0.297808
    13  C   -0.475831
    14  H    0.147390
    15  H    0.147030
    16  H    0.157256
    17  H    0.156188
    18  H    0.153242
    19  H    0.153281
    20  H    0.151715
    21  C   -0.170783
    22  C   -0.218570
    23  C   -0.171422
    24  C    0.157662
    25  C   -0.168445
    26  C   -0.217637
    27  H    0.225803
    28  H    0.223455
    29  H    0.275527
    30  H    0.275877
    31  H    0.224090
    32  N    0.487957
    33  O   -0.459626
    34  O   -0.460215
 Sum of Mulliken charges =  -0.00000

 Dipole moment (field-independent basis, Debye):
    X=             -2.7239    Y=             -3.9643    Z=              1.8321  Tot=              5.1470
 Quadrupole moment (field-independent basis, Debye-Ang):
   XX=            -81.7001   YY=            -99.5522   ZZ=            -91.1641
   XY=              8.0546   XZ=             -6.5577   YZ=              3.9810

 Normal termination of Gaussian 16 at Thu May  6 13:54:33 2021.
