 Gaussian 16, Revision A.03,
 Gaussian 16:  EM64L-G16RevA.03 25-Dec-2016

 -------------
 #p 6-31g* mp2
 -------------

 ------------------------------------------------------
 Input file generated by CHIRIPA (05-May-2021 14:51:09)
 ------------------------------------------------------
 Symbolic Z-matrix:
 Charge =  0 Multiplicity = 1

                         Standard orientation:
 ---------------------------------------------------------------------
 Center     Atomic      Atomic             Coordinates (Angstroms)
 Number     Number       Type             X           Y           Z
 ---------------------------------------------------------------------
      1          6           0        4.118768    0.850468   -0.216926
      2          6           0        2.731652    1.444796    0.029383
      3          6           0        2.669043    2.943118   -0.268788
      4          1           0        4.853424    1.380478    0.404617
      5          1           0        4.406441    1.029593   -1.262179
      6          1           0        2.446096    1.263388    1.073493
      7          1           0        2.000185    0.913182   -0.592676
      8          1           0        2.928429    3.139031   -1.314225
      9          1           0        3.376875    3.491227    0.361411
     10          1           0        1.668529    3.347368   -0.085992
     11          6           0        4.197260   -0.646638    0.076739
     12          6           0        5.584376   -1.240966   -0.169571
     13          6           0        5.646985   -2.739288    0.128601
     14          1           0        3.909586   -0.825763    1.121992
     15          1           0        3.462604   -1.176649   -0.544804
     16          1           0        6.315843   -0.709352    0.452488
     17          1           0        5.869932   -1.059559   -1.213680
     18          1           0        4.939153   -3.287398   -0.501598
     19          1           0        5.387599   -2.935201    1.174037
     20          1           0        6.647499   -3.143538   -0.054196
     21          6           0       -4.677615   -0.624767   -0.130089
     22          6           0       -6.118915   -0.143740    0.040942
     23          6           0       -7.146863   -1.200832   -0.363628
     24          1           0       -4.515991   -0.913394   -1.177714
     25          1           0       -4.527580   -1.532355    0.470884
     26          1           0       -6.265793    0.763457   -0.559089
     27          1           0       -6.277070    0.143955    1.088240
     28          1           0       -7.029053   -2.104694    0.242798
     29          1           0       -7.017712   -1.481674   -1.413889
     30          1           0       -8.170471   -0.835959   -0.233420
     31          6           0       -3.638413    0.420937    0.270276
     32          6           0       -2.197113   -0.060089    0.099246
     33          6           0       -1.169165    0.997002    0.503816
     34          1           0       -3.788447    1.328525   -0.330697
     35          1           0       -3.800036    0.709564    1.317901
     36          1           0       -2.038957   -0.347786   -0.948053
     37          1           0       -2.050234   -0.967286    0.699276
     38          1           0       -1.298316    1.277845    1.554077
     39          1           0       -1.286976    1.900865   -0.102612
     40          1           0       -0.145557    0.632130    0.373608
 ---------------------------------------------------------------------

 SCF Done:  E(RHF) =  -470.732942691     A.U. after   11 cycles
 E2 =    -0.1582708118D+01 EUMP2 =    -0.47231565080911D+03

 The electronic state is 1-A.
 Alpha  occ. eigenvalues --  -11.21603 -11.21587 -11.21576 -11.21563 -11.21401
 Alpha  occ. eigenvalues --  -11.21380 -11.21339 -11.21320 -11.21072 -11.21061
 Alpha  occ. eigenvalues --  -11.21033 -11.20952  -1.08432  -1.08398  -1.03548
 Alpha  occ. eigenvalues --   -1.03472  -0.95997  -0.95915  -0.86995  -0.86954
 Alpha  occ. eigenvalues --   -0.79673  -0.79493  -0.78258  -0.78205  -0.65064
 Alpha  occ. eigenvalues --   -0.65029  -0.60948  -0.60875  -0.59560  -0.59137
 Alpha  occ. eigenvalues --   -0.57675  -0.57449  -0.55269  -0.55215  -0.52735
 Alpha  occ. eigenvalues --   -0.52564  -0.52447  -0.52321  -0.49919  -0.49877
 Alpha  occ. eigenvalues --   -0.48053  -0.47725  -0.46643  -0.46573  -0.45794
 Alpha  occ. eigenvalues --   -0.45748  -0.45708  -0.45682  -0.43814  -0.43641
 Alpha virt. eigenvalues --    0.22174   0.23036   0.23522   0.24809   0.26523
 Alpha virt. eigenvalues --    0.26621   0.26713   0.27260   0.27854   0.28910
 Alpha virt. eigenvalues --    0.30609   0.30917   0.31372   0.31730   0.32354

 Mulliken charges:
               1
     1  C   -0.297346
     2  C   -0.302985
     3  C   -0.476930
     4  H    0.149586
     5  H    0.149373
     6  H    0.152903
     7  H    0.154170
     8  H    0.154728
     9  H    0.155011
    10  H    0.162594
    11  C   -0.298484
    12  C   -0.299582
    13  C   -0.475713
    14  H    0.149458
    15  H    0.149279
    16  H    0.152005
    17  H    0.151948
    18  H    0.155172
    19  H    0.155169
    20  H    0.160267
    21  C   -0.298184
    22  C   -0.299597
    23  C   -0.475679
    24  H    0.149497
    25  H    0.149452
    26  H    0.151882
    27  H    0.151907
    28  H    0.155155
    29  H    0.155126
    30  H    0.160198
    31  C   -0.298371
    32  C   -0.299349
    33  C   -0.483695
    34  H    0.149365
    35  H    0.149555
    36  H    0.151280
    37  H    0.151721
    38  H    0.154288
    39  H    0.154118
    40  H    0.170706
 Sum of Mulliken charges =  -0.00000

 Dipole moment (field-independent basis, Debye):
    X=              0.0318    Y=              0.0066    Z=              0.0038  Tot=              0.0327
 Quadrupole moment (field-independent basis, Debye-Ang):
   XX=            -85.6637   YY=            -86.2345   ZZ=            -82.9950
   XY=             -0.2576   XZ=              0.0158   YZ=             -0.1291

 Normal termination of Gaussian 16 at Wed May  5 22:57:38 2021.
