 Gaussian 16, Revision A.03,
 Gaussian 16:  EM64L-G16RevA.03 25-Dec-2016

 -------------
 #p 6-31g* mp2
 -------------

 ------------------------------------------------------
 Input file generated by CHIRIPA (05-May-2021 14:53:16)
 ------------------------------------------------------
 Symbolic Z-matrix:
 Charge =  0 Multiplicity = 1

                         Standard orientation:
 ---------------------------------------------------------------------
 Center     Atomic      Atomic             Coordinates (Angstroms)
 Number     Number       Type             X           Y           Z
 ---------------------------------------------------------------------
      1          6           0        3.535119   -0.172801   -0.523424
      2          6           0        3.244022   -1.572458    0.018986
      3          6           0        3.721979   -2.681205   -0.919114
      4          1           0        3.052757   -0.058794   -1.503870
      5          1           0        4.615922   -0.070325   -0.693004
      6          1           0        2.164247   -1.671791    0.188798
      7          1           0        3.726973   -1.683080    0.998341
      8          1           0        4.802579   -2.610465   -1.080049
      9          1           0        3.230974   -2.599111   -1.894192
     10          1           0        3.503859   -3.673403   -0.511897
     11          6           0        3.063171    0.946272    0.403220
     12          6           0        3.354269    2.345929   -0.139189
     13          6           0        2.876312    3.454676    0.798911
     14          1           0        1.982368    0.843795    0.572800
     15          1           0        3.545533    0.832264    1.383666
     16          1           0        2.871317    2.456551   -1.118544
     17          1           0        4.434043    2.445261   -0.309001
     18          1           0        3.367316    3.372582    1.773988
     19          1           0        1.795711    3.383935    0.959845
     20          1           0        3.094431    4.446874    0.391694
     21          6           0       -0.865808   -1.853241    1.061968
     22          6           0       -0.772974   -1.494830   -0.286900
     23          6           0       -1.715748   -0.636099   -0.859879
     24          6           0       -2.742933   -0.152181   -0.051174
     25          6           0       -2.862422   -0.490823    1.295799
     26          6           0       -1.908397   -1.350979    1.847627
     27          1           0       -0.129068   -2.520878    1.498857
     28          1           0        0.035645   -1.883367   -0.899451
     29          1           0       -1.667701   -0.342346   -1.901425
     30          1           0       -3.679772   -0.087430    1.881147
     31          1           0       -1.982989   -1.627620    2.895459
     32          7           0       -3.746962    0.757673   -0.646565
     33          8           0       -4.642390    1.170429    0.087244
     34          8           0       -3.619478    1.040833   -1.835769
 ---------------------------------------------------------------------

 SCF Done:  E(RHF) =  -669.535276154     A.U. after   15 cycles
 E2 =    -0.2092424355D+01 EUMP2 =    -0.67162770050912D+03

 The electronic state is 1-A.
 Alpha  occ. eigenvalues --  -20.60808 -20.60803 -15.85862 -11.31245 -11.27819
 Alpha  occ. eigenvalues --  -11.27812 -11.27555 -11.26825 -11.26815 -11.22541
 Alpha  occ. eigenvalues --  -11.22070 -11.21992 -11.21933 -11.21833 -11.21285
 Alpha  occ. eigenvalues --   -1.59884  -1.39437  -1.19423  -1.09054  -1.08807
 Alpha  occ. eigenvalues --   -1.04829  -1.04138  -0.96563  -0.95643  -0.87581
 Alpha  occ. eigenvalues --   -0.86229  -0.82472  -0.80241  -0.78819  -0.77519
 Alpha  occ. eigenvalues --   -0.72081  -0.71207  -0.70525  -0.65794  -0.65070
 Alpha  occ. eigenvalues --   -0.64781  -0.62229  -0.61466  -0.59964  -0.58166
 Alpha  occ. eigenvalues --   -0.55846  -0.55316  -0.53286  -0.53143  -0.52992
 Alpha  occ. eigenvalues --   -0.52903  -0.50509  -0.48847  -0.48835  -0.48523
 Alpha  occ. eigenvalues --   -0.47283  -0.46358  -0.46255  -0.44838  -0.44371
 Alpha  occ. eigenvalues --   -0.37374  -0.36416
 Alpha virt. eigenvalues --    0.05008   0.11075   0.16487   0.19644   0.22755
 Alpha virt. eigenvalues --    0.23770   0.25835   0.26170   0.27364   0.27918
 Alpha virt. eigenvalues --    0.28799   0.29953   0.31034   0.31528   0.32054

 Mulliken charges:
               1
     1  C   -0.297534
     2  C   -0.306523
     3  C   -0.476854
     4  H    0.148404
     5  H    0.152764
     6  H    0.144679
     7  H    0.154546
     8  H    0.160801
     9  H    0.153538
    10  H    0.158999
    11  C   -0.301014
    12  C   -0.300108
    13  C   -0.476289
    14  H    0.152257
    15  H    0.149371
    16  H    0.153335
    17  H    0.152297
    18  H    0.154589
    19  H    0.157302
    20  H    0.162378
    21  C   -0.170900
    22  C   -0.219906
    23  C   -0.172408
    24  C    0.158295
    25  C   -0.170806
    26  C   -0.218910
    27  H    0.227412
    28  H    0.227057
    29  H    0.275785
    30  H    0.275911
    31  H    0.223917
    32  N    0.488100
    33  O   -0.460169
    34  O   -0.460320
 Sum of Mulliken charges =  -0.00000

 Dipole moment (field-independent basis, Debye):
    X=              3.5982    Y=             -3.1276    Z=              2.1182  Tot=              5.2168
 Quadrupole moment (field-independent basis, Debye-Ang):
   XX=           -112.4945   YY=            -95.2455   ZZ=            -91.3024
   XY=              8.5033   XZ=             -7.8616   YZ=             -0.4539

 Normal termination of Gaussian 16 at Thu May  6 09:03:39 2021.
