 Gaussian 16, Revision A.03,
 Gaussian 16:  EM64L-G16RevA.03 25-Dec-2016

 -------------
 #p 6-31g* mp2
 -------------

 ------------------------------------------------------
 Input file generated by CHIRIPA (05-May-2021 14:53:12)
 ------------------------------------------------------
 Symbolic Z-matrix:
 Charge =  0 Multiplicity = 1

                         Standard orientation:
 ---------------------------------------------------------------------
 Center     Atomic      Atomic             Coordinates (Angstroms)
 Number     Number       Type             X           Y           Z
 ---------------------------------------------------------------------
      1          6           0        5.226327    0.288624    0.399767
      2          6           0        5.954642   -0.882606   -0.260357
      3          6           0        7.360686   -1.096415    0.300997
      4          1           0        5.819395    1.203582    0.265358
      5          1           0        5.166774    0.110972    1.482490
      6          1           0        6.011583   -0.703456   -1.341689
      7          1           0        5.359678   -1.794847   -0.124526
      8          1           0        7.319476   -1.300221    1.375877
      9          1           0        7.975086   -0.202629    0.151798
     10          1           0        7.863212   -1.938540   -0.184959
     11          6           0        3.819428    0.514965   -0.150807
     12          6           0        3.091113    1.686195    0.509316
     13          6           0        1.685069    1.900004   -0.052038
     14          1           0        3.878981    0.692617   -1.233530
     15          1           0        3.226360   -0.399994   -0.016398
     16          1           0        3.686077    2.598436    0.373486
     17          1           0        3.034172    1.507045    1.590648
     18          1           0        1.070669    1.006217    0.097161
     19          1           0        1.726279    2.103809   -1.126917
     20          1           0        1.182543    2.742128    0.433919
     21          6           0       -5.796865    0.605439    0.533546
     22          6           0       -4.879798    1.410878   -0.149666
     23          6           0       -3.622835    0.911993   -0.504217
     24          6           0       -3.314684   -0.402780   -0.158232
     25          6           0       -4.206807   -1.230023    0.522264
     26          6           0       -5.458041   -0.710121    0.866743
     27          1           0       -6.771080    1.001148    0.805056
     28          1           0       -5.140212    2.432933   -0.409727
     29          1           0       -2.893837    1.513684   -1.033315
     30          1           0       -3.918534   -2.244913    0.767851
     31          1           0       -6.168252   -1.337925    1.397314
     32          7           0       -1.987026   -0.942052   -0.528248
     33          8           0       -1.739759   -2.103699   -0.211909
     34          8           0       -1.218815   -0.192875   -1.127599
 ---------------------------------------------------------------------

 SCF Done:  E(RHF) =  -669.536032066     A.U. after   15 cycles
 E2 =    -0.2090739712D+01 EUMP2 =    -0.67162677177834D+03

 The electronic state is 1-A.
 Alpha  occ. eigenvalues --  -20.60919 -20.60904 -15.85939 -11.31262 -11.27829
 Alpha  occ. eigenvalues --  -11.27819 -11.27568 -11.26836 -11.26825 -11.20911
 Alpha  occ. eigenvalues --  -11.20651 -11.20623 -11.20510 -11.20400 -11.19808
 Alpha  occ. eigenvalues --   -1.59977  -1.39531  -1.19432  -1.08838  -1.07582
 Alpha  occ. eigenvalues --   -1.04828  -1.02672  -0.95681  -0.95105  -0.86229
 Alpha  occ. eigenvalues --   -0.86118  -0.82511  -0.78747  -0.77566  -0.77367
 Alpha  occ. eigenvalues --   -0.72162  -0.71291  -0.70541  -0.65088  -0.64832
 Alpha  occ. eigenvalues --   -0.64217  -0.62174  -0.60072  -0.58513  -0.56716
 Alpha  occ. eigenvalues --   -0.55335  -0.54384  -0.53161  -0.52920  -0.51835
 Alpha  occ. eigenvalues --   -0.51509  -0.49090  -0.48925  -0.48869  -0.47052
 Alpha  occ. eigenvalues --   -0.45813  -0.45039  -0.44880  -0.44680  -0.42942
 Alpha  occ. eigenvalues --   -0.37412  -0.36430
 Alpha virt. eigenvalues --    0.04935   0.11225   0.16412   0.21351   0.23688
 Alpha virt. eigenvalues --    0.25187   0.27265   0.27516   0.28091   0.28381
 Alpha virt. eigenvalues --    0.28990   0.30911   0.32258   0.32385   0.32737

 Mulliken charges:
               1
     1  C   -0.297731
     2  C   -0.299384
     3  C   -0.475255
     4  H    0.146876
     5  H    0.147720
     6  H    0.151530
     7  H    0.153794
     8  H    0.154126
     9  H    0.153595
    10  H    0.158878
    11  C   -0.298540
    12  C   -0.299427
    13  C   -0.480004
    14  H    0.149299
    15  H    0.156812
    16  H    0.146618
    17  H    0.148065
    18  H    0.175654
    19  H    0.154289
    20  H    0.149181
    21  C   -0.170601
    22  C   -0.218622
    23  C   -0.170709
    24  C    0.158060
    25  C   -0.170837
    26  C   -0.218616
    27  H    0.225876
    28  H    0.223826
    29  H    0.276619
    30  H    0.275663
    31  H    0.223659
    32  N    0.488125
    33  O   -0.459786
    34  O   -0.458752
 Sum of Mulliken charges =  -0.00000

 Dipole moment (field-independent basis, Debye):
    X=             -4.9511    Y=              1.7705    Z=              1.2359  Tot=              5.4014
 Quadrupole moment (field-independent basis, Debye-Ang):
   XX=            -65.9455   YY=            -92.7307   ZZ=            -94.6940
   XY=             -3.1798   XZ=             -5.0880   YZ=             -3.4816

 Normal termination of Gaussian 16 at Thu May  6 07:17:24 2021.
