 Gaussian 16, Revision A.03,
 Gaussian 16:  EM64L-G16RevA.03 25-Dec-2016

 -------------
 #p 6-31g* mp2
 -------------

 ------------------------------------------------------
 Input file generated by CHIRIPA (05-May-2021 14:57:24)
 ------------------------------------------------------
 Symbolic Z-matrix:
 Charge =  0 Multiplicity = 1

                         Standard orientation:
 ---------------------------------------------------------------------
 Center     Atomic      Atomic             Coordinates (Angstroms)
 Number     Number       Type             X           Y           Z
 ---------------------------------------------------------------------
      1          6           0        3.867714    1.314139   -1.626989
      2          6           0        2.931205    1.979973   -0.829408
      3          6           0        2.307726    1.320632    0.234120
      4          6           0        2.645997   -0.010497    0.472781
      5          6           0        3.575036   -0.701090   -0.303915
      6          6           0        4.186080   -0.021912   -1.362164
      7          1           0        4.347218    1.834036   -2.451113
      8          1           0        2.682009    3.017567   -1.032744
      9          1           0        1.579158    1.812092    0.867423
     10          1           0        3.802908   -1.735426   -0.076669
     11          1           0        4.913013   -0.541523   -1.979916
     12          7           0        1.992530   -0.719013    1.595896
     13          8           0        2.307887   -1.891729    1.785429
     14          8           0        1.177359   -0.088215    2.265394
     15          6           0       -3.899200    1.994764    0.511935
     16          6           0       -2.503886    1.947624    0.425925
     17          6           0       -1.858502    0.788779   -0.015783
     18          6           0       -2.642953   -0.309395   -0.364981
     19          6           0       -4.034869   -0.293379   -0.290142
     20          6           0       -4.658899    0.876084    0.154258
     21          1           0       -4.392255    2.899107    0.856110
     22          1           0       -1.911346    2.814890    0.703040
     23          1           0       -0.779824    0.724976   -0.091946
     24          1           0       -4.598700   -1.173890   -0.573365
     25          1           0       -5.742678    0.909830    0.220051
     26          7           0       -1.971017   -1.541833   -0.834023
     27          8           0       -2.684782   -2.495837   -1.135773
     28          8           0       -0.743312   -1.530477   -0.891026
 ---------------------------------------------------------------------

 SCF Done:  E(RHF) =  -868.337949049     A.U. after   16 cycles
 E2 =    -0.2601358188D+01 EUMP2 =    -0.87093930723645D+03

 The electronic state is 1-A.
 Alpha  occ. eigenvalues --  -20.60549 -20.60467 -20.60425 -20.60419 -15.85558
 Alpha  occ. eigenvalues --  -15.85478 -11.31039 -11.30804 -11.27719 -11.27496
 Alpha  occ. eigenvalues --  -11.27409 -11.27390 -11.27336 -11.27186 -11.26738
 Alpha  occ. eigenvalues --  -11.26587 -11.26448 -11.26421  -1.59551  -1.59483
 Alpha  occ. eigenvalues --   -1.39118  -1.39044  -1.19192  -1.18997  -1.08561
 Alpha  occ. eigenvalues --   -1.08404  -1.04641  -1.04411  -0.95395  -0.95241
 Alpha  occ. eigenvalues --   -0.86039  -0.85812  -0.82243  -0.82093  -0.77312
 Alpha  occ. eigenvalues --   -0.77110  -0.71797  -0.71733  -0.70879  -0.70717
 Alpha  occ. eigenvalues --   -0.70348  -0.70113  -0.64867  -0.64695  -0.64650
 Alpha  occ. eigenvalues --   -0.64434  -0.62074  -0.61709  -0.55130  -0.54938
 Alpha  occ. eigenvalues --   -0.52935  -0.52759  -0.52718  -0.52492  -0.48567
 Alpha  occ. eigenvalues --   -0.48527  -0.48454  -0.48449  -0.44514  -0.44442
 Alpha  occ. eigenvalues --   -0.37129  -0.36982  -0.36229  -0.35990
 Alpha virt. eigenvalues --    0.05284   0.05430   0.11257   0.11657   0.16755
 Alpha virt. eigenvalues --    0.16946   0.20601   0.22089   0.25874   0.27828
 Alpha virt. eigenvalues --    0.28352   0.29148   0.31025   0.31439   0.32386

 Mulliken charges:
               1
     1  C   -0.170755
     2  C   -0.217298
     3  C   -0.180940
     4  C    0.171394
     5  C   -0.165400
     6  C   -0.216436
     7  H    0.225025
     8  H    0.219743
     9  H    0.265370
    10  H    0.278754
    11  H    0.224667
    12  N    0.492741
    13  O   -0.452674
    14  O   -0.470036
    15  C   -0.170093
    16  C   -0.219430
    17  C   -0.163501
    18  C    0.157394
    19  C   -0.169652
    20  C   -0.219246
    21  H    0.224029
    22  H    0.217776
    23  H    0.275504
    24  H    0.275021
    25  H    0.222261
    26  N    0.489761
    27  O   -0.460321
    28  O   -0.463655
 Sum of Mulliken charges =  -0.00000

 Dipole moment (field-independent basis, Debye):
    X=              0.1225    Y=              6.4938    Z=             -2.3282  Tot=              6.8997
 Quadrupole moment (field-independent basis, Debye-Ang):
   XX=            -74.8349   YY=           -104.0813   ZZ=           -111.1276
   XY=             -4.9274   XZ=            -13.4789   YZ=              0.3066

 Normal termination of Gaussian 16 at Thu May  6 03:30:06 2021.
