 Gaussian 16, Revision A.03,
 Gaussian 16:  EM64L-G16RevA.03 25-Dec-2016

 -------------
 #p 6-31g* mp2
 -------------

 ------------------------------------------------------
 Input file generated by CHIRIPA (05-May-2021 14:57:27)
 ------------------------------------------------------
 Symbolic Z-matrix:
 Charge =  0 Multiplicity = 1

                         Standard orientation:
 ---------------------------------------------------------------------
 Center     Atomic      Atomic             Coordinates (Angstroms)
 Number     Number       Type             X           Y           Z
 ---------------------------------------------------------------------
      1          6           0       -0.893435    2.772824    0.489334
      2          6           0       -1.609364    2.537727   -0.689096
      3          6           0       -2.331068    1.352173   -0.856882
      4          6           0       -2.314884    0.419241    0.178814
      5          6           0       -1.611350    0.624399    1.364663
      6          6           0       -0.896707    1.817094    1.510652
      7          1           0       -0.335541    3.696564    0.611207
      8          1           0       -1.608621    3.278176   -1.483942
      9          1           0       -2.893931    1.144515   -1.758814
     10          1           0       -1.631039   -0.132512    2.139335
     11          1           0       -0.341610    1.996983    2.426923
     12          7           0       -3.075182   -0.839632    0.012724
     13          8           0       -3.044925   -1.645678    0.940092
     14          8           0       -3.686964   -0.996453   -1.041679
     15          6           0        4.287979    0.758031    0.006195
     16          6           0        3.918179   -0.114776    1.034775
     17          6           0        2.757591   -0.886888    0.927873
     18          6           0        1.986712   -0.760591   -0.226719
     19          6           0        2.328625    0.100044   -1.268685
     20          6           0        3.493422    0.862471   -1.140231
     21          1           0        5.191187    1.354063    0.097610
     22          1           0        4.533323   -0.197944    1.926250
     23          1           0        2.447898   -1.570496    1.709019
     24          1           0        1.695191    0.161274   -2.145286
     25          1           0        3.778160    1.539476   -1.940628
     26          7           0        0.755821   -1.572865   -0.351300
     27          8           0        0.093756   -1.443298   -1.378684
     28          8           0        0.476423   -2.323709    0.580797
 ---------------------------------------------------------------------

 SCF Done:  E(RHF) =  -868.336757493     A.U. after   16 cycles
 E2 =    -0.2604415734D+01 EUMP2 =    -0.87094117322714D+03

 The electronic state is 1-A.
 Alpha  occ. eigenvalues --  -20.60912 -20.60883 -20.59510 -20.59455 -15.85910
 Alpha  occ. eigenvalues --  -15.84559 -11.31415 -11.30374 -11.28007 -11.27995
 Alpha  occ. eigenvalues --  -11.27781 -11.27058 -11.27048 -11.27007 -11.26987
 Alpha  occ. eigenvalues --  -11.26929 -11.26209 -11.26191  -1.59956  -1.58521
 Alpha  occ. eigenvalues --   -1.39508  -1.38075  -1.19604  -1.18625  -1.08977
 Alpha  occ. eigenvalues --   -1.07934  -1.05031  -1.04114  -0.95787  -0.94692
 Alpha  occ. eigenvalues --   -0.86421  -0.85478  -0.82622  -0.81544  -0.77652
 Alpha  occ. eigenvalues --   -0.76479  -0.72134  -0.71402  -0.70807  -0.70717
 Alpha  occ. eigenvalues --   -0.69747  -0.69696  -0.65258  -0.65036  -0.64277
 Alpha  occ. eigenvalues --   -0.64137  -0.62376  -0.61442  -0.55531  -0.54632
 Alpha  occ. eigenvalues --   -0.53366  -0.53126  -0.52397  -0.52213  -0.48907
 Alpha  occ. eigenvalues --   -0.48887  -0.47592  -0.47508  -0.44922  -0.43355
 Alpha  occ. eigenvalues --   -0.37655  -0.36734  -0.36471  -0.35718
 Alpha virt. eigenvalues --    0.04836   0.06154   0.11001   0.11892   0.16343
 Alpha virt. eigenvalues --    0.17483   0.21126   0.21924   0.27016   0.27784
 Alpha virt. eigenvalues --    0.28042   0.28899   0.30657   0.31425   0.32251

 Mulliken charges:
               1
     1  C   -0.173073
     2  C   -0.222355
     3  C   -0.165985
     4  C    0.168300
     5  C   -0.178796
     6  C   -0.220181
     7  H    0.219729
     8  H    0.218629
     9  H    0.275850
    10  H    0.279790
    11  H    0.218585
    12  N    0.494291
    13  O   -0.454925
    14  O   -0.462166
    15  C   -0.172033
    16  C   -0.219673
    17  C   -0.173676
    18  C    0.161647
    19  C   -0.169070
    20  C   -0.219946
    21  H    0.225133
    22  H    0.223244
    23  H    0.275895
    24  H    0.275746
    25  H    0.222433
    26  N    0.485945
    27  O   -0.459861
    28  O   -0.453475
 Sum of Mulliken charges =  -0.00000

 Dipole moment (field-independent basis, Debye):
    X=              6.9042    Y=              6.8780    Z=              0.9518  Tot=              9.7919
 Quadrupole moment (field-independent basis, Debye-Ang):
   XX=           -100.8199   YY=           -105.8940   ZZ=            -97.0145
   XY=             -7.1959   XZ=              1.5218   YZ=             -3.8169

 Normal termination of Gaussian 16 at Wed May  5 16:33:43 2021.
