 Gaussian 16, Revision A.03,
 Gaussian 16:  EM64L-G16RevA.03 25-Dec-2016

 -------------
 #p 6-31g* mp2
 -------------

 ------------------------------------------------------
 Input file generated by CHIRIPA (05-May-2021 14:53:15)
 ------------------------------------------------------
 Symbolic Z-matrix:
 Charge =  0 Multiplicity = 1

                         Standard orientation:
 ---------------------------------------------------------------------
 Center     Atomic      Atomic             Coordinates (Angstroms)
 Number     Number       Type             X           Y           Z
 ---------------------------------------------------------------------
      1          6           0       -3.046990   -0.340449   -0.233961
      2          6           0       -3.933728   -1.581962   -0.132345
      3          6           0       -3.231672   -2.851076   -0.616352
      4          1           0       -2.728222   -0.209728   -1.277150
      5          1           0       -2.133042   -0.502050    0.354239
      6          1           0       -4.846361   -1.417525   -0.719438
      7          1           0       -4.250578   -1.709634    0.910690
      8          1           0       -2.330830   -3.042614   -0.024408
      9          1           0       -2.929998   -2.748845   -1.663797
     10          1           0       -3.883590   -3.726425   -0.534945
     11          6           0       -3.734849    0.936267    0.246219
     12          6           0       -2.848111    2.177780    0.144604
     13          6           0       -3.550166    3.446894    0.628610
     14          1           0       -4.648797    1.097868   -0.341980
     15          1           0       -4.053617    0.805546    1.289409
     16          1           0       -2.531261    2.305452   -0.898431
     17          1           0       -1.935478    2.013343    0.731696
     18          1           0       -3.851841    3.344663    1.676056
     19          1           0       -4.451009    3.638432    0.036667
     20          1           0       -2.898249    4.322243    0.547203
     21          6           0        0.764406   -1.866208    0.376566
     22          6           0        1.896932   -1.900233    1.196779
     23          6           0        2.947284   -0.999982    0.994652
     24          6           0        2.831366   -0.074824   -0.041657
     25          6           0        1.715958   -0.015900   -0.875731
     26          6           0        0.677687   -0.925807   -0.655252
     27          1           0       -0.046841   -2.569295    0.540711
     28          1           0        1.967010   -2.629470    1.998868
     29          1           0        3.835478   -1.004244    1.614743
     30          1           0        1.674866    0.722525   -1.667221
     31          1           0       -0.200650   -0.897068   -1.293801
     32          7           0        3.936932    0.883342   -0.265353
     33          8           0        3.810522    1.688711   -1.185157
     34          8           0        4.908951    0.810843    0.483353
 ---------------------------------------------------------------------

 SCF Done:  E(RHF) =  -669.534631768     A.U. after   15 cycles
 E2 =    -0.2093311936D+01 EUMP2 =    -0.67162794370442D+03

 The electronic state is 1-A.
 Alpha  occ. eigenvalues --  -20.60722 -20.60717 -15.85773 -11.31131 -11.27689
 Alpha  occ. eigenvalues --  -11.27662 -11.27397 -11.26714 -11.26621 -11.22619
 Alpha  occ. eigenvalues --  -11.22386 -11.22372 -11.22144 -11.22072 -11.21449
 Alpha  occ. eigenvalues --   -1.59798  -1.39351  -1.19293  -1.09295  -1.08687
 Alpha  occ. eigenvalues --   -1.04689  -1.04345  -0.96822  -0.95532  -0.87839
 Alpha  occ. eigenvalues --   -0.86093  -0.82360  -0.80444  -0.79108  -0.77391
 Alpha  occ. eigenvalues --   -0.71992  -0.71120  -0.70430  -0.65919  -0.64936
 Alpha  occ. eigenvalues --   -0.64689  -0.62046  -0.61739  -0.60197  -0.58434
 Alpha  occ. eigenvalues --   -0.56189  -0.55177  -0.53490  -0.53288  -0.52996
 Alpha  occ. eigenvalues --   -0.52745  -0.50766  -0.48784  -0.48749  -0.48689
 Alpha  occ. eigenvalues --   -0.47463  -0.46585  -0.46500  -0.44759  -0.44591
 Alpha  occ. eigenvalues --   -0.37250  -0.36270
 Alpha virt. eigenvalues --    0.05096   0.11263   0.16561   0.19396   0.22572
 Alpha virt. eigenvalues --    0.23776   0.24021   0.25929   0.26938   0.28127
 Alpha virt. eigenvalues --    0.29055   0.30109   0.30831   0.31541   0.32009

 Mulliken charges:
               1
     1  C   -0.307047
     2  C   -0.299309
     3  C   -0.480983
     4  H    0.144787
     5  H    0.152474
     6  H    0.156669
     7  H    0.155057
     8  H    0.145913
     9  H    0.156038
    10  H    0.167416
    11  C   -0.297801
    12  C   -0.301344
    13  C   -0.476347
    14  H    0.151665
    15  H    0.151804
    16  H    0.150585
    17  H    0.154960
    18  H    0.156064
    19  H    0.155794
    20  H    0.163824
    21  C   -0.178374
    22  C   -0.219657
    23  C   -0.171281
    24  C    0.158503
    25  C   -0.173297
    26  C   -0.221149
    27  H    0.232744
    28  H    0.223487
    29  H    0.275209
    30  H    0.275468
    31  H    0.231280
    32  N    0.487998
    33  O   -0.460505
    34  O   -0.460645
 Sum of Mulliken charges =  -0.00000

 Dipole moment (field-independent basis, Debye):
    X=             -4.1128    Y=             -3.2946    Z=              0.8138  Tot=              5.3321
 Quadrupole moment (field-independent basis, Debye-Ang):
   XX=           -115.4081   YY=            -94.7685   ZZ=            -91.4440
   XY=            -10.1599   XZ=              5.0034   YZ=             -2.1124

 Normal termination of Gaussian 16 at Thu May  6 01:04:14 2021.
