 Gaussian 16, Revision A.03,
 Gaussian 16:  EM64L-G16RevA.03 25-Dec-2016

 -------------
 #p 6-31g* mp2
 -------------

 ------------------------------------------------------
 Input file generated by CHIRIPA (05-May-2021 14:55:21)
 ------------------------------------------------------
 Symbolic Z-matrix:
 Charge =  0 Multiplicity = 1

                         Standard orientation:
 ---------------------------------------------------------------------
 Center     Atomic      Atomic             Coordinates (Angstroms)
 Number     Number       Type             X           Y           Z
 ---------------------------------------------------------------------
      1          6           0       -1.988941   -2.046046   -1.304127
      2          6           0       -3.248279   -1.868877   -0.721718
      3          6           0       -3.608782   -0.635355   -0.171255
      4          6           0       -2.681204    0.404091   -0.220667
      5          6           0       -1.418879    0.258759   -0.793992
      6          6           0       -1.079863   -0.983536   -1.338345
      7          1           0       -1.717239   -3.007683   -1.729367
      8          1           0       -3.956300   -2.692264   -0.693727
      9          1           0       -4.576999   -0.470680    0.285753
     10          1           0       -0.734372    1.098223   -0.806965
     11          1           0       -0.101140   -1.118244   -1.790009
     12          7           0       -3.051479    1.714609    0.358850
     13          8           0       -2.216312    2.614599    0.302714
     14          8           0       -4.169856    1.816988    0.858238
     15          6           0        2.791305   -0.757452    0.398358
     16          6           0        2.126925   -0.947298    1.762376
     17          6           0        1.003525   -1.984089    1.733566
     18          1           0        2.030326   -0.455379   -0.334178
     19          1           0        3.190079   -1.722095    0.055085
     20          1           0        1.730739    0.017697    2.103603
     21          1           0        2.889609   -1.248766    2.491791
     22          1           0        1.387488   -2.959465    1.417632
     23          1           0        0.222033   -1.685806    1.027238
     24          1           0        0.542470   -2.103951    2.718919
     25          6           0        3.916353    0.275910    0.411057
     26          6           0        4.580732    0.465756   -0.952960
     27          6           0        5.704132    1.502548   -0.924151
     28          1           0        3.517578    1.240554    0.754330
     29          1           0        4.677331   -0.026162    1.143593
     30          1           0        3.818049    0.767225   -1.682376
     31          1           0        4.976919   -0.499238   -1.294188
     32          1           0        6.485624    1.204265   -0.217823
     33          1           0        5.320170    2.477924   -0.608217
     34          1           0        6.165187    1.622409   -1.909504
 ---------------------------------------------------------------------

 SCF Done:  E(RHF) =  -669.534678925     A.U. after   15 cycles
 E2 =    -0.2093346515D+01 EUMP2 =    -0.67162802543941D+03

 The electronic state is 1-A.
 Alpha  occ. eigenvalues --  -20.60828 -20.60822 -15.85882 -11.31273 -11.27835
 Alpha  occ. eigenvalues --  -11.27827 -11.27563 -11.26851 -11.26826 -11.21985
 Alpha  occ. eigenvalues --  -11.21951 -11.21862 -11.21730 -11.21323 -11.21190
 Alpha  occ. eigenvalues --   -1.59902  -1.39455  -1.19452  -1.08853  -1.08803
 Alpha  occ. eigenvalues --   -1.04866  -1.03833  -0.96289  -0.95663  -0.87306
 Alpha  occ. eigenvalues --   -0.86246  -0.82501  -0.79909  -0.78670  -0.77536
 Alpha  occ. eigenvalues --   -0.72099  -0.71225  -0.70538  -0.65485  -0.65090
 Alpha  occ. eigenvalues --   -0.64839  -0.62207  -0.61236  -0.59658  -0.57923
 Alpha  occ. eigenvalues --   -0.55646  -0.55335  -0.53314  -0.52971  -0.52921
 Alpha  occ. eigenvalues --   -0.52594  -0.50203  -0.48861  -0.48853  -0.48209
 Alpha  occ. eigenvalues --   -0.46934  -0.46196  -0.46111  -0.44855  -0.44122
 Alpha  occ. eigenvalues --   -0.37397  -0.36376
 Alpha virt. eigenvalues --    0.04969   0.11152   0.16358   0.20028   0.22818
 Alpha virt. eigenvalues --    0.24145   0.25065   0.26722   0.27620   0.28293
 Alpha virt. eigenvalues --    0.29310   0.30490   0.31343   0.31647   0.31809

 Mulliken charges:
               1
     1  C   -0.169114
     2  C   -0.217840
     3  C   -0.170787
     4  C    0.159780
     5  C   -0.171426
     6  C   -0.222846
     7  H    0.226834
     8  H    0.224086
     9  H    0.276020
    10  H    0.275712
    11  H    0.227914
    12  N    0.488132
    13  O   -0.460475
    14  O   -0.460013
    15  C   -0.298865
    16  C   -0.299840
    17  C   -0.485645
    18  H    0.138801
    19  H    0.148567
    20  H    0.156227
    21  H    0.153480
    22  H    0.149941
    23  H    0.164487
    24  H    0.161985
    25  C   -0.299056
    26  C   -0.299280
    27  C   -0.476087
    28  H    0.153266
    29  H    0.152074
    30  H    0.148207
    31  H    0.151175
    32  H    0.156252
    33  H    0.157575
    34  H    0.160761
 Sum of Mulliken charges =  -0.00000

 Dipole moment (field-independent basis, Debye):
    X=              1.2692    Y=             -4.5778    Z=             -2.0173  Tot=              5.1611
 Quadrupole moment (field-independent basis, Debye-Ang):
   XX=            -97.6348   YY=            -98.4341   ZZ=            -94.2088
   XY=             14.1811   XZ=              4.3514   YZ=             -0.2019

 Normal termination of Gaussian 16 at Thu May  6 07:46:52 2021.
