 Gaussian 16, Revision A.03,
 Gaussian 16:  EM64L-G16RevA.03 25-Dec-2016

 -------------
 #p 6-31g* mp2
 -------------

 ------------------------------------------------------
 Input file generated by CHIRIPA (05-May-2021 14:51:08)
 ------------------------------------------------------
 Symbolic Z-matrix:
 Charge =  0 Multiplicity = 1

                         Standard orientation:
 ---------------------------------------------------------------------
 Center     Atomic      Atomic             Coordinates (Angstroms)
 Number     Number       Type             X           Y           Z
 ---------------------------------------------------------------------
      1          6           0       -2.958572    0.183666   -0.341076
      2          6           0       -2.663169    1.652890   -0.037590
      3          6           0       -3.499192    2.611474   -0.886104
      4          1           0       -2.771391   -0.008923   -1.406354
      5          1           0       -4.026565   -0.011067   -0.171180
      6          1           0       -1.595777    1.844463   -0.206678
      7          1           0       -2.850891    1.841958    1.027130
      8          1           0       -4.567635    2.449199   -0.710893
      9          1           0       -3.305390    2.451718   -1.951712
     10          1           0       -3.272018    3.656396   -0.652886
     11          6           0       -2.130560   -0.786876    0.499264
     12          6           0       -2.425962   -2.256100    0.195778
     13          6           0       -1.589939   -3.214684    1.044292
     14          1           0       -1.062567   -0.592144    0.329368
     15          1           0       -2.317740   -0.594287    1.564542
     16          1           0       -2.238240   -2.445169   -0.868942
     17          1           0       -3.493354   -2.447673    0.364866
     18          1           0       -1.783742   -3.054929    2.109900
     19          1           0       -0.521497   -3.052410    0.869081
     20          1           0       -1.817113   -4.259606    0.811074
     21          6           0        2.259800   -0.324912   -0.410480
     22          6           0        3.182016   -1.539855   -0.303628
     23          6           0        2.598519   -2.785469   -0.971288
     24          1           0        1.290288   -0.567206    0.045902
     25          1           0        2.062422   -0.115273   -1.470899
     26          1           0        3.378709   -1.746297    0.756235
     27          1           0        4.149509   -1.294576   -0.760148
     28          1           0        2.418519   -2.603464   -2.035748
     29          1           0        1.643339   -3.057751   -0.510751
     30          1           0        3.274084   -3.642023   -0.883051
     31          6           0        2.829331    0.928123    0.252293
     32          6           0        1.907115    2.143065    0.145440
     33          6           0        2.490613    3.388679    0.813101
     34          1           0        3.026709    0.718483    1.312711
     35          1           0        3.798843    1.170417   -0.204091
     36          1           0        0.939621    1.897787    0.601959
     37          1           0        1.710423    2.349507   -0.914423
     38          1           0        3.445792    3.660962    0.352563
     39          1           0        2.670612    3.206675    1.877561
     40          1           0        1.815048    4.245234    0.724864
 ---------------------------------------------------------------------

 SCF Done:  E(RHF) =  -470.732977988     A.U. after   11 cycles
 E2 =    -0.1584659425D+01 EUMP2 =    -0.47231763741232D+03

 The electronic state is 1-A.
 Alpha  occ. eigenvalues --  -11.21646 -11.21638 -11.21614 -11.21568 -11.21454
 Alpha  occ. eigenvalues --  -11.21395 -11.21393 -11.21336 -11.21114 -11.21112
 Alpha  occ. eigenvalues --  -11.21095 -11.21055  -1.08497  -1.08416  -1.03585
 Alpha  occ. eigenvalues --   -1.03520  -0.96038  -0.95970  -0.87063  -0.86978
 Alpha  occ. eigenvalues --   -0.79703  -0.79532  -0.78453  -0.78112  -0.65286
 Alpha  occ. eigenvalues --   -0.64899  -0.61119  -0.60799  -0.59424  -0.59309
 Alpha  occ. eigenvalues --   -0.57715  -0.57536  -0.55499  -0.55107  -0.52718
 Alpha  occ. eigenvalues --   -0.52671  -0.52539  -0.52322  -0.50137  -0.49725
 Alpha  occ. eigenvalues --   -0.48166  -0.47772  -0.46865  -0.46554  -0.46365
 Alpha  occ. eigenvalues --   -0.45785  -0.45755  -0.44965  -0.43825  -0.43778
 Alpha virt. eigenvalues --    0.19873   0.22148   0.23503   0.24491   0.25337
 Alpha virt. eigenvalues --    0.26452   0.26901   0.27072   0.28580   0.29425
 Alpha virt. eigenvalues --    0.31114   0.31428   0.31688   0.31824   0.32051

 Mulliken charges:
               1
     1  C   -0.297161
     2  C   -0.305738
     3  C   -0.475414
     4  H    0.149767
     5  H    0.149461
     6  H    0.158306
     7  H    0.151311
     8  H    0.155067
     9  H    0.155147
    10  H    0.160127
    11  C   -0.309031
    12  C   -0.298910
    13  C   -0.481503
    14  H    0.158878
    15  H    0.149145
    16  H    0.152456
    17  H    0.152226
    18  H    0.155354
    19  H    0.158943
    20  H    0.160922
    21  C   -0.308752
    22  C   -0.298674
    23  C   -0.481418
    24  H    0.158431
    25  H    0.149119
    26  H    0.152150
    27  H    0.152321
    28  H    0.155232
    29  H    0.159857
    30  H    0.160910
    31  C   -0.297308
    32  C   -0.305734
    33  C   -0.475487
    34  H    0.149744
    35  H    0.149969
    36  H    0.157564
    37  H    0.151560
    38  H    0.155278
    39  H    0.155384
    40  H    0.160499
 Sum of Mulliken charges =  -0.00000

 Dipole moment (field-independent basis, Debye):
    X=              0.0212    Y=              0.0035    Z=              0.0001  Tot=              0.0215
 Quadrupole moment (field-independent basis, Debye-Ang):
   XX=            -84.4271   YY=            -86.3345   ZZ=            -83.9573
   XY=              0.2999   XZ=             -1.3001   YZ=             -0.2056

 Normal termination of Gaussian 16 at Wed May  5 18:06:10 2021.
