 Gaussian 16, Revision A.03,
 Gaussian 16:  EM64L-G16RevA.03 25-Dec-2016

 -------------
 #p 6-31g* mp2
 -------------

 ------------------------------------------------------
 Input file generated by CHIRIPA (05-May-2021 14:51:08)
 ------------------------------------------------------
 Symbolic Z-matrix:
 Charge =  0 Multiplicity = 1

                         Standard orientation:
 ---------------------------------------------------------------------
 Center     Atomic      Atomic             Coordinates (Angstroms)
 Number     Number       Type             X           Y           Z
 ---------------------------------------------------------------------
      1          6           0        3.786762    1.071353    0.044746
      2          6           0        2.586327    1.989941   -0.185766
      3          6           0        2.922917    3.466543    0.024352
      4          1           0        4.164369    1.221176    1.065486
      5          1           0        4.599089    1.363550   -0.635063
      6          1           0        1.776015    1.695213    0.493311
      7          1           0        2.211416    1.837775   -1.206013
      8          1           0        3.714197    3.782878   -0.662968
      9          1           0        3.276323    3.639506    1.046011
     10          1           0        2.050566    4.105282   -0.145576
     11          6           0        3.466046   -0.407944   -0.161531
     12          6           0        4.666481   -1.326532    0.068981
     13          6           0        4.329891   -2.803133   -0.141137
     14          1           0        2.653719   -0.700141    0.518278
     15          1           0        3.088439   -0.557766   -1.182272
     16          1           0        5.041392   -1.174366    1.089228
     17          1           0        5.476793   -1.031804   -0.610096
     18          1           0        3.976485   -2.976096   -1.162797
     19          1           0        3.538610   -3.119468    0.546183
     20          1           0        5.202242   -3.441873    0.028791
     21          6           0       -4.268944   -0.041137    0.351898
     22          6           0       -5.462661   -0.125441   -0.599899
     23          6           0       -6.740745    0.459871    0.001519
     24          1           0       -4.512935   -0.569696    1.283584
     25          1           0       -4.099344    1.009862    0.623989
     26          1           0       -5.629097   -1.175826   -0.871206
     27          1           0       -5.215728    0.403216   -1.529503
     28          1           0       -6.598584    1.515161    0.255984
     29          1           0       -7.014301   -0.072852    0.918020
     30          1           0       -7.581435    0.389282   -0.695702
     31          6           0       -2.983865   -0.622272   -0.235112
     32          6           0       -1.790147   -0.537969    0.716684
     33          6           0       -0.512062   -1.123280    0.115266
     34          1           0       -3.153464   -1.673271   -0.507203
     35          1           0       -2.739873   -0.093714   -1.166798
     36          1           0       -2.037079   -1.066626    1.646288
     37          1           0       -1.623711    0.512415    0.987991
     38          1           0       -0.238507   -0.590558   -0.801235
     39          1           0       -0.654223   -2.178571   -0.139199
     40          1           0        0.328627   -1.052691    0.812487
 ---------------------------------------------------------------------

 SCF Done:  E(RHF) =  -470.733009349     A.U. after   11 cycles
 E2 =    -0.1582999137D+01 EUMP2 =    -0.47231600848555D+03

 The electronic state is 1-A.
 Alpha  occ. eigenvalues --  -11.21598 -11.21587 -11.21584 -11.21552 -11.21397
 Alpha  occ. eigenvalues --  -11.21356 -11.21338 -11.21273 -11.21069 -11.21066
 Alpha  occ. eigenvalues --  -11.21025 -11.21015  -1.08427  -1.08385  -1.03518
 Alpha  occ. eigenvalues --   -1.03497  -0.95988  -0.95925  -0.87005  -0.86943
 Alpha  occ. eigenvalues --   -0.79605  -0.79547  -0.78259  -0.78167  -0.65063
 Alpha  occ. eigenvalues --   -0.65025  -0.60930  -0.60880  -0.59366  -0.59306
 Alpha  occ. eigenvalues --   -0.57630  -0.57511  -0.55254  -0.55234  -0.52779
 Alpha  occ. eigenvalues --   -0.52611  -0.52399  -0.52309  -0.49908  -0.49885
 Alpha  occ. eigenvalues --   -0.47928  -0.47856  -0.46628  -0.46594  -0.45816
 Alpha  occ. eigenvalues --   -0.45724  -0.45669  -0.45654  -0.43766  -0.43663
 Alpha virt. eigenvalues --    0.21343   0.23093   0.23985   0.24236   0.25797
 Alpha virt. eigenvalues --    0.26294   0.26856   0.27629   0.27984   0.29456
 Alpha virt. eigenvalues --    0.30761   0.31196   0.31791   0.31879   0.32278

 Mulliken charges:
               1
     1  C   -0.298111
     2  C   -0.300870
     3  C   -0.475694
     4  H    0.149154
     5  H    0.149284
     6  H    0.153619
     7  H    0.151512
     8  H    0.155211
     9  H    0.155140
    10  H    0.159879
    11  C   -0.303152
    12  C   -0.299340
    13  C   -0.475515
    14  H    0.155831
    15  H    0.149757
    16  H    0.151405
    17  H    0.151603
    18  H    0.155332
    19  H    0.155105
    20  H    0.159925
    21  C   -0.298226
    22  C   -0.299624
    23  C   -0.475693
    24  H    0.149577
    25  H    0.149492
    26  H    0.151922
    27  H    0.151931
    28  H    0.155169
    29  H    0.155157
    30  H    0.160238
    31  C   -0.298604
    32  C   -0.300071
    33  C   -0.478412
    34  H    0.149536
    35  H    0.149717
    36  H    0.151524
    37  H    0.151808
    38  H    0.156970
    39  H    0.154723
    40  H    0.162790
 Sum of Mulliken charges =  -0.00000

 Dipole moment (field-independent basis, Debye):
    X=             -0.0070    Y=             -0.0105    Z=             -0.0076  Tot=              0.0147
 Quadrupole moment (field-independent basis, Debye-Ang):
   XX=            -85.8667   YY=            -85.3547   ZZ=            -83.7506
   XY=              0.5254   XZ=             -0.0538   YZ=             -0.6785

 Normal termination of Gaussian 16 at Wed May  5 16:34:57 2021.
