 Gaussian 16, Revision A.03,
 Gaussian 16:  EM64L-G16RevA.03 25-Dec-2016

 -------------
 #p 6-31g* mp2
 -------------

 ------------------------------------------------------
 Input file generated by CHIRIPA (05-May-2021 14:57:26)
 ------------------------------------------------------
 Symbolic Z-matrix:
 Charge =  0 Multiplicity = 1

                         Standard orientation:
 ---------------------------------------------------------------------
 Center     Atomic      Atomic             Coordinates (Angstroms)
 Number     Number       Type             X           Y           Z
 ---------------------------------------------------------------------
      1          6           0       -2.799278   -2.317219   -0.213644
      2          6           0       -2.712596   -1.476775   -1.328391
      3          6           0       -2.779644   -0.088473   -1.177821
      4          6           0       -2.934354    0.427721    0.107829
      5          6           0       -3.023748   -0.383418    1.238030
      6          6           0       -2.954304   -1.768825    1.063756
      7          1           0       -2.746263   -3.394561   -0.339817
      8          1           0       -2.592177   -1.899873   -2.321634
      9          1           0       -2.715210    0.585304   -2.023570
     10          1           0       -3.143539    0.067765    2.215528
     11          1           0       -3.021903   -2.419101    1.931291
     12          7           0       -3.006603    1.895922    0.279778
     13          8           0       -3.143112    2.325854    1.423089
     14          8           0       -2.925354    2.588965   -0.732016
     15          6           0        0.859867   -1.605945   -0.387255
     16          6           0        1.871014   -2.020094    0.486007
     17          6           0        3.018208   -1.241189    0.664342
     18          6           0        3.121849   -0.048444   -0.049737
     19          6           0        2.131696    0.391162   -0.927024
     20          6           0        0.993201   -0.403759   -1.089745
     21          1           0       -0.027921   -2.217238   -0.519725
     22          1           0        1.770166   -2.953263    1.032879
     23          1           0        3.816248   -1.538003    1.334006
     24          1           0        2.260684    1.326286   -1.458364
     25          1           0        0.209528   -0.079631   -1.768599
     26          7           0        4.331728    0.784625    0.130793
     27          8           0        4.399009    1.831302   -0.509969
     28          8           0        5.189839    0.375133    0.909638
 ---------------------------------------------------------------------

 SCF Done:  E(RHF) =  -868.335642887     A.U. after   16 cycles
 E2 =    -0.2603722626D+01 EUMP2 =    -0.87093936551292D+03

 The electronic state is 1-A.
 Alpha  occ. eigenvalues --  -20.61621 -20.61603 -20.60688 -20.60676 -15.86678
 Alpha  occ. eigenvalues --  -15.85742 -11.32349 -11.31141 -11.28976 -11.28883
 Alpha  occ. eigenvalues --  -11.28728 -11.28061 -11.27973 -11.27760 -11.27710
 Alpha  occ. eigenvalues --  -11.27392 -11.26782 -11.26705  -1.60682  -1.59760
 Alpha  occ. eigenvalues --   -1.40229  -1.39312  -1.20567  -1.19329  -1.09917
 Alpha  occ. eigenvalues --   -1.08713  -1.06000  -1.04747  -0.96689  -0.95542
 Alpha  occ. eigenvalues --   -0.87374  -0.86149  -0.83499  -0.82382  -0.78484
 Alpha  occ. eigenvalues --   -0.77425  -0.72889  -0.72013  -0.71956  -0.71665
 Alpha  occ. eigenvalues --   -0.71084  -0.70481  -0.66199  -0.65967  -0.64982
 Alpha  occ. eigenvalues --   -0.64809  -0.63304  -0.62112  -0.56490  -0.55581
 Alpha  occ. eigenvalues --   -0.54070  -0.54046  -0.53011  -0.52813  -0.49670
 Alpha  occ. eigenvalues --   -0.49628  -0.48726  -0.48710  -0.45567  -0.44710
 Alpha  occ. eigenvalues --   -0.38541  -0.37613  -0.37293  -0.36336
 Alpha virt. eigenvalues --    0.03969   0.05126   0.09921   0.11301   0.15320
 Alpha virt. eigenvalues --    0.16594   0.19776   0.21936   0.25518   0.26553
 Alpha virt. eigenvalues --    0.28005   0.29020   0.29940   0.30894   0.32331

 Mulliken charges:
               1
     1  C   -0.184760
     2  C   -0.225276
     3  C   -0.176432
     4  C    0.164289
     5  C   -0.167565
     6  C   -0.214982
     7  H    0.228357
     8  H    0.227028
     9  H    0.277569
    10  H    0.280821
    11  H    0.227700
    12  N    0.488006
    13  O   -0.455020
    14  O   -0.458848
    15  C   -0.169482
    16  C   -0.221668
    17  C   -0.170359
    18  C    0.158111
    19  C   -0.169847
    20  C   -0.222134
    21  H    0.225145
    22  H    0.219121
    23  H    0.274981
    24  H    0.278010
    25  H    0.219254
    26  N    0.488102
    27  O   -0.458876
    28  O   -0.461245
 Sum of Mulliken charges =  -0.00000

 Dipole moment (field-independent basis, Debye):
    X=             -4.3263    Y=             -7.8855    Z=             -1.0725  Tot=              9.0581
 Quadrupole moment (field-independent basis, Debye-Ang):
   XX=           -132.9599   YY=           -107.7543   ZZ=            -98.2272
   XY=              5.1220   XZ=              0.3699   YZ=             -3.9356

 Normal termination of Gaussian 16 at Fri May  7 09:39:54 2021.
