 Gaussian 16, Revision A.03,
 Gaussian 16:  EM64L-G16RevA.03 25-Dec-2016

 -------------
 #p 6-31g* mp2
 -------------

 ------------------------------------------------------
 Input file generated by CHIRIPA (05-May-2021 14:53:14)
 ------------------------------------------------------
 Symbolic Z-matrix:
 Charge =  0 Multiplicity = 1

                         Standard orientation:
 ---------------------------------------------------------------------
 Center     Atomic      Atomic             Coordinates (Angstroms)
 Number     Number       Type             X           Y           Z
 ---------------------------------------------------------------------
      1          6           0       -4.983531   -0.442775   -0.176340
      2          6           0       -6.190353    0.441727    0.138658
      3          6           0       -7.515048   -0.318498    0.067698
      4          1           0       -5.106082   -0.876004   -1.178458
      5          1           0       -4.961750   -1.285789    0.528108
      6          1           0       -6.209068    1.283577   -0.565299
      7          1           0       -6.064824    0.873053    1.140065
      8          1           0       -7.521759   -1.148262    0.781875
      9          1           0       -7.666823   -0.735406   -0.933178
     10          1           0       -8.364426    0.332770    0.296318
     11          6           0       -3.651942    0.302962   -0.109452
     12          6           0       -2.445120   -0.581539   -0.424450
     13          6           0       -1.120425    0.178686   -0.353490
     14          1           0       -3.673723    1.145976   -0.813900
     15          1           0       -3.529392    0.736191    0.892665
     16          1           0       -2.570650   -1.012865   -1.425857
     17          1           0       -2.426406   -1.423389    0.279506
     18          1           0       -0.968650    0.595593    0.647386
     19          1           0       -1.113714    1.008450   -1.067667
     20          1           0       -0.271047   -0.472582   -0.582110
     21          6           0        2.874659    2.527338    0.166272
     22          6           0        3.980569    2.051804   -0.546015
     23          6           0        4.266409    0.683791   -0.583195
     24          6           0        3.421432   -0.184440    0.106356
     25          6           0        2.312060    0.258627    0.824879
     26          6           0        2.045396    1.630812    0.848244
     27          1           0        2.660061    3.591664    0.189789
     28          1           0        4.626321    2.745747   -1.076576
     29          1           0        5.115925    0.288543   -1.126810
     30          1           0        1.686627   -0.457494    1.343940
     31          1           0        1.185837    1.997277    1.402234
     32          7           0        3.713887   -1.634903    0.074308
     33          8           0        2.954025   -2.379244    0.690101
     34          8           0        4.697438   -1.999969   -0.565998
 ---------------------------------------------------------------------

 SCF Done:  E(RHF) =  -669.534803643     A.U. after   15 cycles
 E2 =    -0.2092109375D+01 EUMP2 =    -0.67162691301800D+03

 The electronic state is 1-A.
 Alpha  occ. eigenvalues --  -20.60745 -20.60740 -15.85797 -11.31130 -11.27701
 Alpha  occ. eigenvalues --  -11.27677 -11.27439 -11.26713 -11.26682 -11.21843
 Alpha  occ. eigenvalues --  -11.21783 -11.21663 -11.21553 -11.21528 -11.21203
 Alpha  occ. eigenvalues --   -1.59821  -1.39375  -1.19309  -1.08709  -1.08666
 Alpha  occ. eigenvalues --   -1.04714  -1.03778  -0.96258  -0.95544  -0.87283
 Alpha  occ. eigenvalues --   -0.86106  -0.82381  -0.79853  -0.78476  -0.77421
 Alpha  occ. eigenvalues --   -0.72015  -0.71146  -0.70422  -0.65303  -0.64958
 Alpha  occ. eigenvalues --   -0.64719  -0.62099  -0.61160  -0.59609  -0.57850
 Alpha  occ. eigenvalues --   -0.55569  -0.55200  -0.53343  -0.52924  -0.52615
 Alpha  occ. eigenvalues --   -0.52560  -0.50204  -0.48772  -0.48771  -0.48161
 Alpha  occ. eigenvalues --   -0.46875  -0.46022  -0.45936  -0.44789  -0.44031
 Alpha  occ. eigenvalues --   -0.37291  -0.36231
 Alpha virt. eigenvalues --    0.05095   0.11286   0.16544   0.20630   0.22728
 Alpha virt. eigenvalues --    0.23994   0.25762   0.26646   0.27317   0.28155
 Alpha virt. eigenvalues --    0.29106   0.29903   0.31325   0.31736   0.32253

 Mulliken charges:
               1
     1  C   -0.298544
     2  C   -0.299674
     3  C   -0.475863
     4  H    0.150948
     5  H    0.150931
     6  H    0.151460
     7  H    0.151233
     8  H    0.155939
     9  H    0.155837
    10  H    0.160365
    11  C   -0.298413
    12  C   -0.300815
    13  C   -0.476711
    14  H    0.148620
    15  H    0.147070
    16  H    0.155147
    17  H    0.155064
    18  H    0.142236
    19  H    0.155364
    20  H    0.168032
    21  C   -0.171925
    22  C   -0.218677
    23  C   -0.171269
    24  C    0.156713
    25  C   -0.168643
    26  C   -0.215027
    27  H    0.225343
    28  H    0.223076
    29  H    0.275272
    30  H    0.276263
    31  H    0.223927
    32  N    0.488389
    33  O   -0.461212
    34  O   -0.460456
 Sum of Mulliken charges =  -0.00000

 Dipole moment (field-independent basis, Debye):
    X=             -1.0916    Y=              5.0706    Z=              0.0614  Tot=              5.1872
 Quadrupole moment (field-independent basis, Debye-Ang):
   XX=            -99.9296   YY=            -97.2494   ZZ=            -92.6794
   XY=             18.4095   XZ=             -2.2237   YZ=             -0.2908

 Normal termination of Gaussian 16 at Thu May  6 13:46:39 2021.
