 Gaussian 16, Revision A.03,
 Gaussian 16:  EM64L-G16RevA.03 25-Dec-2016

 -------------
 #p 6-31g* mp2
 -------------

 ------------------------------------------------------
 Input file generated by CHIRIPA (05-May-2021 14:53:12)
 ------------------------------------------------------
 Symbolic Z-matrix:
 Charge =  0 Multiplicity = 1

                         Standard orientation:
 ---------------------------------------------------------------------
 Center     Atomic      Atomic             Coordinates (Angstroms)
 Number     Number       Type             X           Y           Z
 ---------------------------------------------------------------------
      1          6           0        2.813663    0.872148    0.178569
      2          6           0        2.998911   -0.619963    0.456552
      3          6           0        4.438860   -0.978285    0.825261
      4          1           0        3.487795    1.173551   -0.634848
      5          1           0        3.119108    1.443982    1.065758
      6          1           0        2.691901   -1.188881   -0.430405
      7          1           0        2.324121   -0.917889    1.269272
      8          1           0        4.752850   -0.436338    1.723206
      9          1           0        5.122720   -0.708870    0.013872
     10          1           0        4.548707   -2.049698    1.019854
     11          6           0        1.379395    1.245968   -0.191382
     12          6           0        1.194147    2.738078   -0.469365
     13          6           0       -0.245802    3.096400   -0.838074
     14          1           0        1.073950    0.674134   -1.078571
     15          1           0        0.705262    0.944565    0.622035
     16          1           0        1.868937    3.036005   -1.282085
     17          1           0        1.501157    3.306997    0.417592
     18          1           0       -0.929662    2.826986   -0.026685
     19          1           0       -0.559793    2.554454   -1.736019
     20          1           0       -0.355650    4.167814   -1.032667
     21          6           0       -3.130276    0.666688    1.385770
     22          6           0       -2.237416   -0.206183    2.016182
     23          6           0       -1.405776   -1.038570    1.261164
     24          6           0       -1.493637   -0.971831   -0.128482
     25          6           0       -2.372905   -0.112775   -0.785902
     26          6           0       -3.195057    0.710529   -0.010798
     27          1           0       -3.772628    1.309778    1.980088
     28          1           0       -2.184950   -0.242363    3.100610
     29          1           0       -0.705457   -1.723677    1.723333
     30          1           0       -2.402480   -0.099182   -1.868657
     31          1           0       -3.887509    1.387430   -0.503096
     32          7           0       -0.618240   -1.848234   -0.938419
     33          8           0       -0.714832   -1.770463   -2.161226
     34          8           0        0.147914   -2.596335   -0.335102
 ---------------------------------------------------------------------

 SCF Done:  E(RHF) =  -669.534215287     A.U. after   15 cycles
 E2 =    -0.2097438083D+01 EUMP2 =    -0.67163165337036D+03

 The electronic state is 1-A.
 Alpha  occ. eigenvalues --  -20.60944 -20.60902 -15.85913 -11.31214 -11.27794
 Alpha  occ. eigenvalues --  -11.27786 -11.27570 -11.26863 -11.26826 -11.21462
 Alpha  occ. eigenvalues --  -11.21058 -11.21045 -11.20892 -11.20741 -11.20416
 Alpha  occ. eigenvalues --   -1.59970  -1.39528  -1.19434  -1.08838  -1.08040
 Alpha  occ. eigenvalues --   -1.04836  -1.03116  -0.95683  -0.95619  -0.86648
 Alpha  occ. eigenvalues --   -0.86230  -0.82518  -0.79221  -0.77913  -0.77526
 Alpha  occ. eigenvalues --   -0.72162  -0.71243  -0.70545  -0.65089  -0.64840
 Alpha  occ. eigenvalues --   -0.64682  -0.62179  -0.60521  -0.59020  -0.57227
 Alpha  occ. eigenvalues --   -0.55341  -0.54938  -0.53272  -0.52922  -0.52318
 Alpha  occ. eigenvalues --   -0.52076  -0.49596  -0.48942  -0.48925  -0.47500
 Alpha  occ. eigenvalues --   -0.46253  -0.45455  -0.45227  -0.44655  -0.43379
 Alpha  occ. eigenvalues --   -0.37336  -0.36357
 Alpha virt. eigenvalues --    0.04913   0.11070   0.16418   0.21064   0.23265
 Alpha virt. eigenvalues --    0.24406   0.26370   0.26837   0.27475   0.28454
 Alpha virt. eigenvalues --    0.28704   0.30642   0.31298   0.31993   0.32363

 Mulliken charges:
               1
     1  C   -0.297340
     2  C   -0.301981
     3  C   -0.476192
     4  H    0.149598
     5  H    0.144806
     6  H    0.170937
     7  H    0.145922
     8  H    0.149644
     9  H    0.154098
    10  H    0.162531
    11  C   -0.308966
    12  C   -0.297377
    13  C   -0.478681
    14  H    0.152533
    15  H    0.150626
    16  H    0.153290
    17  H    0.149730
    18  H    0.155423
    19  H    0.152409
    20  H    0.157033
    21  C   -0.172621
    22  C   -0.217983
    23  C   -0.174694
    24  C    0.164063
    25  C   -0.168421
    26  C   -0.216070
    27  H    0.226159
    28  H    0.223857
    29  H    0.276200
    30  H    0.275277
    31  H    0.224561
    32  N    0.489469
    33  O   -0.460887
    34  O   -0.456952
 Sum of Mulliken charges =  -0.00000

 Dipole moment (field-independent basis, Debye):
    X=             -3.1975    Y=              2.8633    Z=              2.7733  Tot=              5.1102
 Quadrupole moment (field-independent basis, Debye-Ang):
   XX=            -86.4000   YY=           -101.1960   ZZ=            -91.4142
   XY=             -2.5038   XZ=             -2.8802   YZ=             -4.6460

 Normal termination of Gaussian 16 at Wed May  5 18:33:11 2021.
