 Gaussian 16, Revision A.03,
 Gaussian 16:  EM64L-G16RevA.03 25-Dec-2016

 -------------
 #p 6-31g* mp2
 -------------

 ------------------------------------------------------
 Input file generated by CHIRIPA (05-May-2021 14:55:21)
 ------------------------------------------------------
 Symbolic Z-matrix:
 Charge =  0 Multiplicity = 1

                         Standard orientation:
 ---------------------------------------------------------------------
 Center     Atomic      Atomic             Coordinates (Angstroms)
 Number     Number       Type             X           Y           Z
 ---------------------------------------------------------------------
      1          6           0        4.243188    1.670625    0.289849
      2          6           0        4.695276    0.448886   -0.219556
      3          6           0        3.814027   -0.625246   -0.375083
      4          6           0        2.481362   -0.441878   -0.009473
      5          6           0        2.000639    0.763004    0.500875
      6          6           0        2.899681    1.823515    0.647807
      7          1           0        4.934674    2.499745    0.407327
      8          1           0        5.738115    0.327279   -0.498381
      9          1           0        4.137286   -1.581986   -0.766962
     10          1           0        0.955331    0.853977    0.770083
     11          1           0        2.545781    2.771189    1.043678
     12          7           0        1.539005   -1.571803   -0.169573
     13          8           0        0.369784   -1.384716    0.159907
     14          8           0        1.987451   -2.623130   -0.621508
     15          6           0       -3.085390   -0.360781    0.140289
     16          6           0       -4.124967   -1.481285    0.098580
     17          6           0       -3.530462   -2.851682    0.424721
     18          1           0       -2.279138   -0.590668   -0.569680
     19          1           0       -2.625277   -0.333914    1.137770
     20          1           0       -4.583964   -1.505134   -0.898100
     21          1           0       -4.928933   -1.248611    0.808592
     22          1           0       -3.089002   -2.851553    1.426577
     23          1           0       -2.742074   -3.109534   -0.289810
     24          1           0       -4.290950   -3.637976    0.389191
     25          6           0       -3.664496    1.015252   -0.183588
     26          6           0       -2.624919    2.135755   -0.141877
     27          6           0       -3.219423    3.506152   -0.468020
     28          1           0       -4.124608    0.988384   -1.181069
     29          1           0       -4.470747    1.245137    0.526382
     30          1           0       -1.820953    1.903081   -0.851889
     31          1           0       -2.165921    2.159604    0.854801
     32          1           0       -4.007812    3.764004    0.246513
     33          1           0       -3.660883    3.506023   -1.469876
     34          1           0       -2.458936    4.292446   -0.432488
 ---------------------------------------------------------------------

 SCF Done:  E(RHF) =  -669.535990040     A.U. after   15 cycles
 E2 =    -0.2091693129D+01 EUMP2 =    -0.67162768316895D+03

 The electronic state is 1-A.
 Alpha  occ. eigenvalues --  -20.60884 -20.60878 -15.85915 -11.31242 -11.27812
 Alpha  occ. eigenvalues --  -11.27792 -11.27551 -11.26820 -11.26806 -11.21403
 Alpha  occ. eigenvalues --  -11.20971 -11.20784 -11.20583 -11.20221 -11.19781
 Alpha  occ. eigenvalues --   -1.59951  -1.39505  -1.19414  -1.08820  -1.07702
 Alpha  occ. eigenvalues --   -1.04809  -1.02835  -0.95660  -0.95249  -0.86269
 Alpha  occ. eigenvalues --   -0.86208  -0.82495  -0.78985  -0.77641  -0.77285
 Alpha  occ. eigenvalues --   -0.72131  -0.71267  -0.70521  -0.65069  -0.64812
 Alpha  occ. eigenvalues --   -0.64344  -0.62154  -0.60240  -0.58705  -0.56841
 Alpha  occ. eigenvalues --   -0.55316  -0.54525  -0.53144  -0.52900  -0.52021
 Alpha  occ. eigenvalues --   -0.51639  -0.49187  -0.48909  -0.48893  -0.47259
 Alpha  occ. eigenvalues --   -0.46039  -0.45142  -0.44920  -0.44564  -0.43055
 Alpha  occ. eigenvalues --   -0.37397  -0.36412
 Alpha virt. eigenvalues --    0.04958   0.11234   0.16440   0.20934   0.23282
 Alpha virt. eigenvalues --    0.24950   0.25835   0.27478   0.27629   0.28684
 Alpha virt. eigenvalues --    0.29347   0.31253   0.32027   0.32165   0.32303

 Mulliken charges:
               1
     1  C   -0.170601
     2  C   -0.218697
     3  C   -0.170745
     4  C    0.157467
     5  C   -0.172756
     6  C   -0.218926
     7  H    0.225801
     8  H    0.223585
     9  H    0.275610
    10  H    0.278604
    11  H    0.223989
    12  N    0.491565
    13  O   -0.462921
    14  O   -0.459816
    15  C   -0.300491
    16  C   -0.300220
    17  C   -0.474651
    18  H    0.167893
    19  H    0.148942
    20  H    0.147859
    21  H    0.145970
    22  H    0.155727
    23  H    0.167797
    24  H    0.153169
    25  C   -0.297952
    26  C   -0.299758
    27  C   -0.474517
    28  H    0.148028
    29  H    0.146685
    30  H    0.151223
    31  H    0.145558
    32  H    0.155441
    33  H    0.156301
    34  H    0.154837
 Sum of Mulliken charges =  -0.00000

 Dipole moment (field-independent basis, Debye):
    X=              3.5279    Y=              3.8194    Z=              0.5163  Tot=              5.2250
 Quadrupole moment (field-independent basis, Debye-Ang):
   XX=            -76.7966   YY=            -98.5796   ZZ=            -94.0242
   XY=              6.5881   XZ=             -0.2512   YZ=              1.3789

 Normal termination of Gaussian 16 at Wed May  5 23:51:04 2021.
