 Gaussian 16, Revision A.03,
 Gaussian 16:  EM64L-G16RevA.03 25-Dec-2016

 -------------
 #p 6-31g* mp2
 -------------

 ------------------------------------------------------
 Input file generated by CHIRIPA (05-May-2021 14:57:26)
 ------------------------------------------------------
 Symbolic Z-matrix:
 Charge =  0 Multiplicity = 1

                         Standard orientation:
 ---------------------------------------------------------------------
 Center     Atomic      Atomic             Coordinates (Angstroms)
 Number     Number       Type             X           Y           Z
 ---------------------------------------------------------------------
      1          6           0       -4.086062    1.901054    1.462114
      2          6           0       -4.805186    0.710423    1.609691
      3          6           0       -4.505446   -0.402768    0.818798
      4          6           0       -3.475668   -0.289753   -0.113980
      5          6           0       -2.741050    0.882640   -0.284628
      6          6           0       -3.058102    1.983218    0.517092
      7          1           0       -4.325631    2.760908    2.080704
      8          1           0       -5.604031    0.643732    2.342797
      9          1           0       -5.046164   -1.336747    0.912212
     10          1           0       -1.950175    0.918760   -1.023972
     11          1           0       -2.497943    2.906596    0.400298
     12          7           0       -3.149184   -1.461562   -0.956993
     13          8           0       -2.237344   -1.336364   -1.771555
     14          8           0       -3.811307   -2.483035   -0.787223
     15          6           0        2.073482    1.547749   -1.487916
     16          6           0        3.411286    1.892967   -1.269677
     17          6           0        4.227284    1.096330   -0.460934
     18          6           0        3.670237   -0.043665    0.116474
     19          6           0        2.341069   -0.414122   -0.081931
     20          6           0        1.543578    0.397335   -0.894393
     21          1           0        1.446784    2.172351   -2.117611
     22          1           0        3.825508    2.785821   -1.729326
     23          1           0        5.266248    1.340196   -0.275187
     24          1           0        1.956503   -1.310196    0.389851
     25          1           0        0.504967    0.126783   -1.062119
     26          7           0        4.524302   -0.894872    0.974623
     27          8           0        4.009606   -1.894115    1.471855
     28          8           0        5.692240   -0.546689    1.133758
 ---------------------------------------------------------------------

 SCF Done:  E(RHF) =  -868.338138437     A.U. after   16 cycles
 E2 =    -0.2599745224D+01 EUMP2 =    -0.87093788366118D+03

 The electronic state is 1-A.
 Alpha  occ. eigenvalues --  -20.61660 -20.61601 -20.60616 -20.60606 -15.86662
 Alpha  occ. eigenvalues --  -15.85665 -11.31960 -11.31040 -11.28606 -11.28440
 Alpha  occ. eigenvalues --  -11.28172 -11.27625 -11.27556 -11.27525 -11.27436
 Alpha  occ. eigenvalues --  -11.27399 -11.26675 -11.26565  -1.60687  -1.59689
 Alpha  occ. eigenvalues --   -1.40250  -1.39241  -1.20106  -1.19215  -1.09500
 Alpha  occ. eigenvalues --   -1.08625  -1.05504  -1.04604  -0.96358  -0.95455
 Alpha  occ. eigenvalues --   -0.86906  -0.86016  -0.83196  -0.82272  -0.78281
 Alpha  occ. eigenvalues --   -0.77303  -0.72880  -0.71999  -0.71885  -0.71215
 Alpha  occ. eigenvalues --   -0.71011  -0.70356  -0.65759  -0.65525  -0.64869
 Alpha  occ. eigenvalues --   -0.64604  -0.62881  -0.61913  -0.55974  -0.55161
 Alpha  occ. eigenvalues --   -0.53819  -0.53612  -0.52952  -0.52665  -0.49653
 Alpha  occ. eigenvalues --   -0.49615  -0.48645  -0.48636  -0.45660  -0.44644
 Alpha  occ. eigenvalues --   -0.38050  -0.37238  -0.37089  -0.36199
 Alpha virt. eigenvalues --    0.04231   0.05209   0.10493   0.11428   0.15785
 Alpha virt. eigenvalues --    0.16693   0.19409   0.21881   0.25284   0.27085
 Alpha virt. eigenvalues --    0.28214   0.28926   0.30175   0.31060   0.31977

 Mulliken charges:
               1
     1  C   -0.169992
     2  C   -0.217548
     3  C   -0.169821
     4  C    0.158864
     5  C   -0.173177
     6  C   -0.217407
     7  H    0.228564
     8  H    0.226786
     9  H    0.278138
    10  H    0.268095
    11  H    0.223759
    12  N    0.489349
    13  O   -0.469144
    14  O   -0.453483
    15  C   -0.173337
    16  C   -0.218397
    17  C   -0.171759
    18  C    0.158767
    19  C   -0.171679
    20  C   -0.228178
    21  H    0.221178
    22  H    0.222060
    23  H    0.274978
    24  H    0.279162
    25  H    0.236875
    26  N    0.487888
    27  O   -0.459137
    28  O   -0.461404
 Sum of Mulliken charges =  -0.00000

 Dipole moment (field-independent basis, Debye):
    X=             -4.4811    Y=              7.0185    Z=              0.1080  Tot=              8.3277
 Quadrupole moment (field-independent basis, Debye-Ang):
   XX=           -112.8229   YY=           -104.9098   ZZ=           -106.4225
   XY=              1.8703   XZ=            -24.8937   YZ=             -2.5538

 Normal termination of Gaussian 16 at Fri May  7 02:01:41 2021.
