 Gaussian 16, Revision A.03,
 Gaussian 16:  EM64L-G16RevA.03 25-Dec-2016

 -------------
 #p 6-31g* mp2
 -------------

 ------------------------------------------------------
 Input file generated by CHIRIPA (05-May-2021 14:57:23)
 ------------------------------------------------------
 Symbolic Z-matrix:
 Charge =  0 Multiplicity = 1

                         Standard orientation:
 ---------------------------------------------------------------------
 Center     Atomic      Atomic             Coordinates (Angstroms)
 Number     Number       Type             X           Y           Z
 ---------------------------------------------------------------------
      1          6           0        4.396759    0.113769   -1.413092
      2          6           0        4.244009    0.999384   -0.341236
      3          6           0        3.271685    0.769528    0.636669
      4          6           0        2.465694   -0.360900    0.510958
      5          6           0        2.593483   -1.261798   -0.545139
      6          6           0        3.572462   -1.012011   -1.511449
      7          1           0        5.154669    0.300068   -2.168248
      8          1           0        4.882757    1.874492   -0.262287
      9          1           0        3.131900    1.438784    1.476892
     10          1           0        1.941858   -2.125588   -0.596829
     11          1           0        3.688833   -1.701506   -2.342773
     12          7           0        1.432815   -0.614788    1.540085
     13          8           0        0.735308   -1.617925    1.406529
     14          8           0        1.340310    0.194158    2.460783
     15          6           0       -1.288900    2.451778   -0.395581
     16          6           0       -2.610915    2.470250    0.060990
     17          6           0       -3.366678    1.294587    0.095415
     18          6           0       -2.766151    0.112872   -0.336102
     19          6           0       -1.451289    0.062150   -0.796381
     20          6           0       -0.714320    1.249906   -0.822056
     21          1           0       -0.709104    3.369759   -0.418925
     22          1           0       -3.059737    3.402184    0.392807
     23          1           0       -4.392163    1.280370    0.444123
     24          1           0       -1.031227   -0.882187   -1.120712
     25          1           0        0.312163    1.232571   -1.177133
     26          7           0       -3.556296   -1.138151   -0.304289
     27          8           0       -3.004144   -2.166292   -0.689894
     28          8           0       -4.712803   -1.066874    0.105649
 ---------------------------------------------------------------------

 SCF Done:  E(RHF) =  -868.337259586     A.U. after   16 cycles
 E2 =    -0.2602877562D+01 EUMP2 =    -0.87094013714786D+03

 The electronic state is 1-A.
 Alpha  occ. eigenvalues --  -20.61292 -20.61284 -20.60080 -20.60059 -15.86319
 Alpha  occ. eigenvalues --  -15.85132 -11.31914 -11.30527 -11.28471 -11.28450
 Alpha  occ. eigenvalues --  -11.28195 -11.27522 -11.27493 -11.27166 -11.27163
 Alpha  occ. eigenvalues --  -11.26979 -11.26187 -11.26173  -1.60345  -1.59139
 Alpha  occ. eigenvalues --   -1.39897  -1.38694  -1.20098  -1.18740  -1.09431
 Alpha  occ. eigenvalues --   -1.08134  -1.05502  -1.04184  -0.96228  -0.94963
 Alpha  occ. eigenvalues --   -0.86877  -0.85577  -0.83044  -0.81821  -0.78077
 Alpha  occ. eigenvalues --   -0.76843  -0.72532  -0.71700  -0.71361  -0.71137
 Alpha  occ. eigenvalues --   -0.70442  -0.69889  -0.65710  -0.65464  -0.64421
 Alpha  occ. eigenvalues --   -0.64227  -0.62822  -0.61543  -0.55947  -0.54734
 Alpha  occ. eigenvalues --   -0.53877  -0.53557  -0.52460  -0.52251  -0.49314
 Alpha  occ. eigenvalues --   -0.49289  -0.48123  -0.48104  -0.45249  -0.44093
 Alpha  occ. eigenvalues --   -0.38087  -0.37143  -0.36699  -0.35743
 Alpha virt. eigenvalues --    0.04401   0.05731   0.10434   0.11923   0.15904
 Alpha virt. eigenvalues --    0.17164   0.20661   0.21811   0.26262   0.27191
 Alpha virt. eigenvalues --    0.27775   0.28743   0.30369   0.30989   0.31966

 Mulliken charges:
               1
     1  C   -0.172245
     2  C   -0.219250
     3  C   -0.175857
     4  C    0.155875
     5  C   -0.180306
     6  C   -0.218436
     7  H    0.228245
     8  H    0.225245
     9  H    0.276677
    10  H    0.280265
    11  H    0.227503
    12  N    0.490362
    13  O   -0.455393
    14  O   -0.458079
    15  C   -0.166580
    16  C   -0.217937
    17  C   -0.168767
    18  C    0.160435
    19  C   -0.161461
    20  C   -0.230124
    21  H    0.221456
    22  H    0.221354
    23  H    0.274807
    24  H    0.273683
    25  H    0.221429
    26  N    0.489196
    27  O   -0.459405
    28  O   -0.462693
 Sum of Mulliken charges =  -0.00000

 Dipole moment (field-independent basis, Debye):
    X=              6.5183    Y=              5.1375    Z=             -3.6010  Tot=              9.0471
 Quadrupole moment (field-independent basis, Debye-Ang):
   XX=            -99.3007   YY=           -100.4634   ZZ=           -107.8274
   XY=            -11.9752   XZ=             -9.0033   YZ=              3.7856

 Normal termination of Gaussian 16 at Fri May  7 09:32:04 2021.
