 Gaussian 16, Revision A.03,
 Gaussian 16:  EM64L-G16RevA.03 25-Dec-2016

 -------------
 #p 6-31g* mp2
 -------------

 ------------------------------------------------------
 Input file generated by CHIRIPA (05-May-2021 14:51:14)
 ------------------------------------------------------
 Symbolic Z-matrix:
 Charge =  0 Multiplicity = 1

                         Standard orientation:
 ---------------------------------------------------------------------
 Center     Atomic      Atomic             Coordinates (Angstroms)
 Number     Number       Type             X           Y           Z
 ---------------------------------------------------------------------
      1          6           0       -3.900246    0.169441    0.495697
      2          6           0       -5.188786   -0.296011   -0.183277
      3          6           0       -6.117742   -1.052339    0.766882
      4          1           0       -3.374581   -0.702900    0.907572
      5          1           0       -4.155491    0.812372    1.349444
      6          1           0       -4.931151   -0.936752   -1.036325
      7          1           0       -5.711350    0.577520   -0.593750
      8          1           0       -6.403585   -0.418066    1.612218
      9          1           0       -5.618954   -1.940941    1.167129
     10          1           0       -7.032695   -1.375856    0.260860
     11          6           0       -2.961283    0.927091   -0.441343
     12          6           0       -1.672744    1.392543    0.237630
     13          6           0       -0.743787    2.148871   -0.712529
     14          1           0       -2.706039    0.284160   -1.295091
     15          1           0       -3.486949    1.799433   -0.853218
     16          1           0       -1.150180    0.519013    0.648104
     17          1           0       -1.930379    2.033285    1.090678
     18          1           0       -1.242576    3.037474   -1.112775
     19          1           0       -0.457944    1.514598   -1.557864
     20          1           0        0.171165    2.472388   -0.206506
     21          6           0        2.981910   -1.119462   -0.263181
     22          6           0        1.492939   -0.773069   -0.232181
     23          6           0        0.607820   -1.925794   -0.707140
     24          1           0        3.264614   -1.403275   -1.286153
     25          1           0        3.159009   -2.002435    0.366413
     26          1           0        1.318918    0.109820   -0.860543
     27          1           0        1.213790   -0.489863    0.790798
     28          1           0        0.752126   -2.808003   -0.075093
     29          1           0        0.857851   -2.204913   -1.735818
     30          1           0       -0.452580   -1.656545   -0.676871
     31          6           0        3.879620    0.022929    0.208827
     32          6           0        5.368591   -0.323463    0.177827
     33          6           0        6.253710    0.829261    0.652787
     34          1           0        3.702521    0.905902   -0.420766
     35          1           0        3.596916    0.306743    1.231801
     36          1           0        5.647741   -0.606670   -0.845151
     37          1           0        5.542611   -1.206352    0.806191
     38          1           0        6.003678    1.108381    1.681464
     39          1           0        6.109404    1.711471    0.020740
     40          1           0        7.314110    0.560012    0.622517
 ---------------------------------------------------------------------

 SCF Done:  E(RHF) =  -470.731979711     A.U. after   11 cycles
 E2 =    -0.1584498433D+01 EUMP2 =    -0.47231647814467D+03

 The electronic state is 1-A.
 Alpha  occ. eigenvalues --  -11.21599 -11.21597 -11.21537 -11.21523 -11.21400
 Alpha  occ. eigenvalues --  -11.21394 -11.21340 -11.21333 -11.21115 -11.21069
 Alpha  occ. eigenvalues --  -11.21065 -11.21026  -1.08471  -1.08378  -1.03631
 Alpha  occ. eigenvalues --   -1.03422  -0.96035  -0.95930  -0.87054  -0.86943
 Alpha  occ. eigenvalues --   -0.79609  -0.79578  -0.78286  -0.78197  -0.65128
 Alpha  occ. eigenvalues --   -0.65033  -0.61143  -0.60876  -0.59418  -0.59182
 Alpha  occ. eigenvalues --   -0.57645  -0.57482  -0.55359  -0.55174  -0.52728
 Alpha  occ. eigenvalues --   -0.52625  -0.52439  -0.52366  -0.50096  -0.49811
 Alpha  occ. eigenvalues --   -0.47918  -0.47840  -0.46908  -0.46365  -0.45869
 Alpha  occ. eigenvalues --   -0.45771  -0.45658  -0.45496  -0.43783  -0.43762
 Alpha virt. eigenvalues --    0.20229   0.22953   0.23744   0.25220   0.25902
 Alpha virt. eigenvalues --    0.26311   0.26590   0.27467   0.28285   0.29293
 Alpha virt. eigenvalues --    0.30612   0.31265   0.31621   0.31778   0.32535

 Mulliken charges:
               1
     1  C   -0.298750
     2  C   -0.299600
     3  C   -0.475729
     4  H    0.149506
     5  H    0.149668
     6  H    0.151981
     7  H    0.151974
     8  H    0.155137
     9  H    0.155261
    10  H    0.160270
    11  C   -0.299477
    12  C   -0.305639
    13  C   -0.477240
    14  H    0.149848
    15  H    0.149816
    16  H    0.159293
    17  H    0.151827
    18  H    0.155175
    19  H    0.155710
    20  H    0.161039
    21  C   -0.297307
    22  C   -0.306188
    23  C   -0.480363
    24  H    0.149262
    25  H    0.149032
    26  H    0.161038
    27  H    0.151742
    28  H    0.155483
    29  H    0.155364
    30  H    0.162159
    31  C   -0.298530
    32  C   -0.299577
    33  C   -0.475729
    34  H    0.149585
    35  H    0.149463
    36  H    0.151953
    37  H    0.151942
    38  H    0.155133
    39  H    0.155215
    40  H    0.160255
 Sum of Mulliken charges =  -0.00000

 Dipole moment (field-independent basis, Debye):
    X=              0.0111    Y=              0.0172    Z=             -0.0019  Tot=              0.0205
 Quadrupole moment (field-independent basis, Debye-Ang):
   XX=            -85.8882   YY=            -84.8402   ZZ=            -84.2058
   XY=             -1.3269   XZ=             -0.0222   YZ=             -0.0294

 Normal termination of Gaussian 16 at Wed May  5 15:22:59 2021.
