 Gaussian 16, Revision A.03,
 Gaussian 16:  EM64L-G16RevA.03 25-Dec-2016

 -------------
 #p 6-31g* mp2
 -------------

 ------------------------------------------------------
 Input file generated by CHIRIPA (05-May-2021 14:51:13)
 ------------------------------------------------------
 Symbolic Z-matrix:
 Charge =  0 Multiplicity = 1

                         Standard orientation:
 ---------------------------------------------------------------------
 Center     Atomic      Atomic             Coordinates (Angstroms)
 Number     Number       Type             X           Y           Z
 ---------------------------------------------------------------------
      1          6           0       -3.092085    0.371099    0.127416
      2          6           0       -3.024439    1.898633    0.134461
      3          6           0       -3.932984    2.525725    1.192334
      4          1           0       -4.130465    0.057198   -0.046298
      5          1           0       -2.813689   -0.005893    1.121281
      6          1           0       -3.301541    2.272572   -0.859521
      7          1           0       -1.986066    2.208933    0.307988
      8          1           0       -3.653923    2.180860    2.193231
      9          1           0       -4.976872    2.244861    1.019089
     10          1           0       -3.869055    3.618253    1.179856
     11          6           0       -2.189283   -0.270441   -0.924774
     12          6           0       -2.256928   -1.797975   -0.931819
     13          6           0       -1.348384   -2.425067   -1.989692
     14          1           0       -2.467678    0.106551   -1.918639
     15          1           0       -1.150902    0.043460   -0.751060
     16          1           0       -3.295301   -2.108275   -1.105346
     17          1           0       -1.979826   -2.171914    0.062162
     18          1           0       -0.304495   -2.144203   -1.816447
     19          1           0       -1.627445   -2.080202   -2.990589
     20          1           0       -1.412312   -3.517595   -1.977214
     21          6           0        3.269227    0.220427    0.059480
     22          6           0        3.105079    1.644041   -0.473776
     23          6           0        4.370985    2.171780   -1.149622
     24          1           0        4.104441    0.196906    0.772788
     25          1           0        3.547639   -0.444481   -0.769844
     26          1           0        2.825708    2.305817    0.356056
     27          1           0        2.270036    1.664216   -1.185754
     28          1           0        4.650011    1.535262   -1.995547
     29          1           0        5.208840    2.180507   -0.444977
     30          1           0        4.231445    3.190924   -1.523432
     31          6           0        2.012140   -0.321085    0.737878
     32          6           0        2.176288   -1.744700    1.271135
     33          6           0        0.910382   -2.272438    1.946980
     34          1           0        1.733729    0.343824    1.567203
     35          1           0        1.176927   -0.297564    0.024570
     36          1           0        3.011331   -1.764875    1.983112
     37          1           0        2.455660   -2.406475    0.441302
     38          1           0        0.072528   -2.281166    1.242335
     39          1           0        0.631357   -1.635919    2.792905
     40          1           0        1.049923   -3.291582    2.320791
 ---------------------------------------------------------------------

 SCF Done:  E(RHF) =  -470.732943405     A.U. after   11 cycles
 E2 =    -0.1584368616D+01 EUMP2 =    -0.47231731202078D+03

 The electronic state is 1-A.
 Alpha  occ. eigenvalues --  -11.21655 -11.21638 -11.21624 -11.21581 -11.21464
 Alpha  occ. eigenvalues --  -11.21401 -11.21401 -11.21339 -11.21135 -11.21102
 Alpha  occ. eigenvalues --  -11.21093 -11.21056  -1.08502  -1.08423  -1.03598
 Alpha  occ. eigenvalues --   -1.03523  -0.96037  -0.95982  -0.87046  -0.87009
 Alpha  occ. eigenvalues --   -0.79656  -0.79590  -0.78354  -0.78208  -0.65338
 Alpha  occ. eigenvalues --   -0.64890  -0.61211  -0.60718  -0.59386  -0.59361
 Alpha  occ. eigenvalues --   -0.57638  -0.57604  -0.55451  -0.55158  -0.52715
 Alpha  occ. eigenvalues --   -0.52689  -0.52496  -0.52382  -0.50040  -0.49914
 Alpha  occ. eigenvalues --   -0.48075  -0.47837  -0.46742  -0.46551  -0.46187
 Alpha  occ. eigenvalues --   -0.45795  -0.45687  -0.45309  -0.43830  -0.43791
 Alpha virt. eigenvalues --    0.19248   0.23140   0.23694   0.24804   0.25247
 Alpha virt. eigenvalues --    0.26126   0.26814   0.28055   0.28821   0.29934
 Alpha virt. eigenvalues --    0.30482   0.31425   0.31672   0.31719   0.31966

 Mulliken charges:
               1
     1  C   -0.297957
     2  C   -0.299978
     3  C   -0.475722
     4  H    0.149577
     5  H    0.150255
     6  H    0.151709
     7  H    0.152618
     8  H    0.155241
     9  H    0.155100
    10  H    0.160178
    11  C   -0.305547
    12  C   -0.304838
    13  C   -0.477741
    14  H    0.149623
    15  H    0.155821
    16  H    0.153058
    17  H    0.156068
    18  H    0.155332
    19  H    0.155719
    20  H    0.160852
    21  C   -0.297687
    22  C   -0.299984
    23  C   -0.475730
    24  H    0.150016
    25  H    0.149671
    26  H    0.151843
    27  H    0.152028
    28  H    0.155378
    29  H    0.155250
    30  H    0.160450
    31  C   -0.307663
    32  C   -0.298805
    33  C   -0.483857
    34  H    0.149380
    35  H    0.157209
    36  H    0.152365
    37  H    0.152187
    38  H    0.162991
    39  H    0.154808
    40  H    0.160782
 Sum of Mulliken charges =  -0.00000

 Dipole moment (field-independent basis, Debye):
    X=              0.0050    Y=             -0.0020    Z=             -0.0003  Tot=              0.0054
 Quadrupole moment (field-independent basis, Debye-Ang):
   XX=            -85.1149   YY=            -85.2586   ZZ=            -84.2995
   XY=              0.0558   XZ=              1.6709   YZ=              0.1558

 Normal termination of Gaussian 16 at Wed May  5 18:23:20 2021.
