 Gaussian 16, Revision A.03,
 Gaussian 16:  EM64L-G16RevA.03 25-Dec-2016

 -------------
 #p 6-31g* mp2
 -------------

 ------------------------------------------------------
 Input file generated by CHIRIPA (05-May-2021 14:57:26)
 ------------------------------------------------------
 Symbolic Z-matrix:
 Charge =  0 Multiplicity = 1

                         Standard orientation:
 ---------------------------------------------------------------------
 Center     Atomic      Atomic             Coordinates (Angstroms)
 Number     Number       Type             X           Y           Z
 ---------------------------------------------------------------------
      1          6           0        6.116059   -0.065964    0.332700
      2          6           0        5.313359   -1.133838    0.747234
      3          6           0        3.938768   -1.129585    0.492222
      4          6           0        3.397648   -0.036456   -0.182721
      5          6           0        4.171032    1.042404   -0.608429
      6          6           0        5.543344    1.016840   -0.342617
      7          1           0        7.182989   -0.077545    0.534994
      8          1           0        5.755410   -1.976080    1.271890
      9          1           0        3.294080   -1.943140    0.801937
     10          1           0        3.701634    1.868052   -1.129378
     11          1           0        6.164293    1.847544   -0.665724
     12          7           0        1.943637   -0.020673   -0.458406
     13          8           0        1.491174    0.954144   -1.054766
     14          8           0        1.283978   -0.983419   -0.072909
     15          6           0       -3.313298    2.506533    0.552638
     16          6           0       -4.509922    2.041331   -0.002519
     17          6           0       -4.700406    0.676313   -0.237019
     18          6           0       -3.668608   -0.199489    0.097129
     19          6           0       -2.464998    0.233223    0.651542
     20          6           0       -2.296448    1.602588    0.877325
     21          1           0       -3.173845    3.568600    0.731418
     22          1           0       -5.301349    2.741050   -0.255659
     23          1           0       -5.616747    0.289009   -0.665660
     24          1           0       -1.694274   -0.488483    0.893501
     25          1           0       -1.366081    1.961023    1.308587
     26          7           0       -3.858656   -1.646874   -0.146511
     27          8           0       -2.934267   -2.398034    0.156642
     28          8           0       -4.928404   -2.002767   -0.636016
 ---------------------------------------------------------------------

 SCF Done:  E(RHF) =  -868.339133424     A.U. after   16 cycles
 E2 =    -0.2598930070D+01 EUMP2 =    -0.87093806349398D+03

 The electronic state is 1-A.
 Alpha  occ. eigenvalues --  -20.61329 -20.61294 -20.59613 -20.59573 -15.86332
 Alpha  occ. eigenvalues --  -15.84645 -11.31545 -11.29896 -11.28111 -11.28070
 Alpha  occ. eigenvalues --  -11.27810 -11.27084 -11.27053 -11.26574 -11.26322
 Alpha  occ. eigenvalues --  -11.26307 -11.25596 -11.25433  -1.60381  -1.58675
 Alpha  occ. eigenvalues --   -1.39933  -1.38227  -1.19704  -1.18093  -1.09130
 Alpha  occ. eigenvalues --   -1.07533  -1.05080  -1.03471  -0.95986  -0.94370
 Alpha  occ. eigenvalues --   -0.86485  -0.84891  -0.82816  -0.81199  -0.77885
 Alpha  occ. eigenvalues --   -0.76234  -0.72542  -0.71698  -0.70873  -0.70806
 Alpha  occ. eigenvalues --   -0.69994  -0.69231  -0.65355  -0.65079  -0.63757
 Alpha  occ. eigenvalues --   -0.63500  -0.62425  -0.60805  -0.55587  -0.54052
 Alpha  occ. eigenvalues --   -0.53423  -0.53167  -0.51826  -0.51579  -0.49313
 Alpha  occ. eigenvalues --   -0.49291  -0.47640  -0.47610  -0.45368  -0.43657
 Alpha  occ. eigenvalues --   -0.37680  -0.36677  -0.36120  -0.35049
 Alpha virt. eigenvalues --    0.04614   0.06285   0.10979   0.12588   0.16133
 Alpha virt. eigenvalues --    0.17766   0.21144   0.22621   0.27072   0.27996
 Alpha virt. eigenvalues --    0.28546   0.29546   0.30745   0.32042   0.32292

 Mulliken charges:
               1
     1  C   -0.170197
     2  C   -0.218640
     3  C   -0.170847
     4  C    0.157088
     5  C   -0.171255
     6  C   -0.218647
     7  H    0.226932
     8  H    0.225434
     9  H    0.278402
    10  H    0.274810
    11  H    0.224101
    12  N    0.487503
    13  O   -0.462357
    14  O   -0.459269
    15  C   -0.171287
    16  C   -0.219799
    17  C   -0.172009
    18  C    0.155271
    19  C   -0.166868
    20  C   -0.215148
    21  H    0.220604
    22  H    0.218215
    23  H    0.271480
    24  H    0.289675
    25  H    0.222513
    26  N    0.487781
    27  O   -0.456831
    28  O   -0.466655
 Sum of Mulliken charges =  -0.00000

 Dipole moment (field-independent basis, Debye):
    X=              6.3018    Y=              4.9002    Z=              1.8550  Tot=              8.1955
 Quadrupole moment (field-independent basis, Debye-Ang):
   XX=            -72.5090   YY=           -103.8421   ZZ=           -104.8392
   XY=            -19.6992   XZ=              1.0381   YZ=             -2.5438

 Normal termination of Gaussian 16 at Fri May  7 09:39:29 2021.
