 Gaussian 16, Revision A.03,
 Gaussian 16:  EM64L-G16RevA.03 25-Dec-2016

 -------------
 #p 6-31g* mp2
 -------------

 ------------------------------------------------------
 Input file generated by CHIRIPA (05-May-2021 14:51:09)
 ------------------------------------------------------
 Symbolic Z-matrix:
 Charge =  0 Multiplicity = 1

                         Standard orientation:
 ---------------------------------------------------------------------
 Center     Atomic      Atomic             Coordinates (Angstroms)
 Number     Number       Type             X           Y           Z
 ---------------------------------------------------------------------
      1          6           0       -5.275190   -0.027489   -0.249852
      2          6           0       -6.344674   -1.019031    0.209531
      3          6           0       -7.683750   -0.814888   -0.499691
      4          1           0       -5.633054    0.996053   -0.073104
      5          1           0       -5.135188   -0.126612   -1.335195
      6          1           0       -6.481629   -0.919031    1.293901
      7          1           0       -5.984143   -2.040335    0.031845
      8          1           0       -7.568819   -0.935057   -1.581796
      9          1           0       -8.069131    0.192618   -0.312569
     10          1           0       -8.433725   -1.534211   -0.156223
     11          6           0       -3.930904   -0.218923    0.450132
     12          6           0       -2.861420    0.772619   -0.009251
     13          6           0       -1.522345    0.568476    0.699971
     14          1           0       -4.070906   -0.119800    1.535474
     15          1           0       -3.573040   -1.242465    0.273383
     16          1           0       -3.221951    1.793923    0.168435
     17          1           0       -2.724465    0.672619   -1.093622
     18          1           0       -1.136963   -0.439030    0.512849
     19          1           0       -1.637275    0.688645    1.782076
     20          1           0       -0.772369    1.287799    0.356502
     21          6           0        4.926270   -0.551544   -0.253993
     22          6           0        6.365743   -0.663201    0.249428
     23          6           0        6.998804   -2.018784   -0.065883
     24          1           0        4.324012   -1.352640    0.195983
     25          1           0        4.910675   -0.720933   -1.339562
     26          1           0        6.378799   -0.492283    1.333510
     27          1           0        6.964602    0.138370   -0.201649
     28          1           0        7.015121   -2.194348   -1.146398
     29          1           0        6.425989   -2.828584    0.397484
     30          1           0        8.027651   -2.076896    0.302842
     31          6           0        4.279824    0.797957    0.053714
     32          6           0        2.840350    0.909613   -0.449707
     33          6           0        2.207290    2.265196   -0.134396
     34          1           0        4.295419    0.967344    1.139282
     35          1           0        4.882082    1.599051   -0.396262
     36          1           0        2.241493    0.108042    0.001370
     37          1           0        2.827295    0.738695   -1.533790
     38          1           0        2.780104    3.074996   -0.597763
     39          1           0        2.190974    2.440761    0.946118
     40          1           0        1.178444    2.323308   -0.503121
 ---------------------------------------------------------------------

 SCF Done:  E(RHF) =  -470.733209763     A.U. after   11 cycles
 E2 =    -0.1582317477D+01 EUMP2 =    -0.47231552724034D+03

 The electronic state is 1-A.
 Alpha  occ. eigenvalues --  -11.21596 -11.21590 -11.21590 -11.21572 -11.21396
 Alpha  occ. eigenvalues --  -11.21388 -11.21337 -11.21329 -11.21067 -11.21062
 Alpha  occ. eigenvalues --  -11.21060 -11.21022  -1.08424  -1.08410  -1.03540
 Alpha  occ. eigenvalues --   -1.03494  -0.96017  -0.95921  -0.87045  -0.86928
 Alpha  occ. eigenvalues --   -0.79594  -0.79564  -0.78235  -0.78222  -0.65053
 Alpha  occ. eigenvalues --   -0.65039  -0.60933  -0.60899  -0.59637  -0.59121
 Alpha  occ. eigenvalues --   -0.57731  -0.57414  -0.55263  -0.55243  -0.52954
 Alpha  occ. eigenvalues --   -0.52513  -0.52439  -0.52176  -0.49925  -0.49886
 Alpha  occ. eigenvalues --   -0.47975  -0.47813  -0.46642  -0.46578  -0.45786
 Alpha  occ. eigenvalues --   -0.45757  -0.45705  -0.45681  -0.43904  -0.43617
 Alpha virt. eigenvalues --    0.21822   0.23004   0.23433   0.25000   0.26431
 Alpha virt. eigenvalues --    0.26714   0.26970   0.27312   0.27700   0.28846
 Alpha virt. eigenvalues --    0.30294   0.31095   0.31557   0.31809   0.32151

 Mulliken charges:
               1
     1  C   -0.298235
     2  C   -0.299632
     3  C   -0.475698
     4  H    0.149639
     5  H    0.149499
     6  H    0.151905
     7  H    0.151917
     8  H    0.155175
     9  H    0.155178
    10  H    0.160227
    11  C   -0.298414
    12  C   -0.299255
    13  C   -0.483110
    14  H    0.149488
    15  H    0.149585
    16  H    0.151864
    17  H    0.151711
    18  H    0.154822
    19  H    0.154931
    20  H    0.168243
    21  C   -0.298275
    22  C   -0.299648
    23  C   -0.475699
    24  H    0.149711
    25  H    0.149430
    26  H    0.151961
    27  H    0.151904
    28  H    0.155132
    29  H    0.155174
    30  H    0.160218
    31  C   -0.298380
    32  C   -0.300721
    33  C   -0.478716
    34  H    0.149653
    35  H    0.149552
    36  H    0.153972
    37  H    0.151599
    38  H    0.155213
    39  H    0.155628
    40  H    0.162454
 Sum of Mulliken charges =  -0.00000

 Dipole moment (field-independent basis, Debye):
    X=              0.0101    Y=              0.0062    Z=              0.0039  Tot=              0.0125
 Quadrupole moment (field-independent basis, Debye-Ang):
   XX=            -86.0996   YY=            -85.0967   ZZ=            -83.6469
   XY=              0.4954   XZ=             -0.8551   YZ=              0.0332

 Normal termination of Gaussian 16 at Wed May  5 22:57:05 2021.
