 Gaussian 16, Revision A.03,
 Gaussian 16:  EM64L-G16RevA.03 25-Dec-2016

 -------------
 #p 6-31g* mp2
 -------------

 ------------------------------------------------------
 Input file generated by CHIRIPA (05-May-2021 14:51:09)
 ------------------------------------------------------
 Symbolic Z-matrix:
 Charge =  0 Multiplicity = 1

                         Standard orientation:
 ---------------------------------------------------------------------
 Center     Atomic      Atomic             Coordinates (Angstroms)
 Number     Number       Type             X           Y           Z
 ---------------------------------------------------------------------
      1          6           0        3.045915    0.150280   -0.047206
      2          6           0        2.733929    1.461371    0.675075
      3          6           0        3.993639    2.212505    1.107188
      4          1           0        3.648217   -0.489768    0.611972
      5          1           0        3.666925    0.363864   -0.928185
      6          1           0        2.112539    1.245529    1.553654
      7          1           0        2.132138    2.098295    0.014172
      8          1           0        4.613666    2.456579    0.238513
      9          1           0        4.593955    1.598968    1.786743
     10          1           0        3.747456    3.146693    1.621529
     11          6           0        1.796719   -0.612093   -0.485411
     12          6           0        2.108706   -1.923185   -1.207692
     13          6           0        0.848995   -2.674318   -1.639805
     14          1           0        1.175709   -0.825677    0.395567
     15          1           0        1.194418    0.027955   -1.144590
     16          1           0        2.710496   -2.560108   -0.546789
     17          1           0        2.730096   -1.707343   -2.086272
     18          1           0        0.248680   -2.060781   -2.319360
     19          1           0        0.228969   -2.918392   -0.771130
     20          1           0        1.095179   -3.608506   -2.154146
     21          6           0       -2.712959    0.665106   -0.290332
     22          6           0       -2.358031    2.146050   -0.153160
     23          6           0       -2.948683    3.001792   -1.274154
     24          1           0       -2.355115    0.297286   -1.261723
     25          1           0       -3.806363    0.556504   -0.298497
     26          1           0       -1.265617    2.251696   -0.143865
     27          1           0       -2.716593    2.510339    0.818099
     28          1           0       -4.040840    2.926059   -1.281954
     29          1           0       -2.581620    2.665945   -2.249383
     30          1           0       -2.682605    4.056884   -1.156497
     31          6           0       -2.129676   -0.203292    0.822949
     32          6           0       -2.484604   -1.684237    0.685778
     33          6           0       -1.893951   -2.539979    1.806771
     34          1           0       -1.036272   -0.094690    0.831113
     35          1           0       -2.487520    0.164527    1.794340
     36          1           0       -2.126042   -2.048526   -0.285482
     37          1           0       -3.577018   -1.789882    0.676481
     38          1           0       -2.261014   -2.204132    2.782001
     39          1           0       -0.801795   -2.464245    1.814571
     40          1           0       -2.160030   -3.595071    1.689114
 ---------------------------------------------------------------------

 SCF Done:  E(RHF) =  -470.732733915     A.U. after   11 cycles
 E2 =    -0.1585045285D+01 EUMP2 =    -0.47231777919990D+03

 The electronic state is 1-A.
 Alpha  occ. eigenvalues --  -11.21690 -11.21676 -11.21551 -11.21510 -11.21503
 Alpha  occ. eigenvalues --  -11.21438 -11.21321 -11.21227 -11.21136 -11.21120
 Alpha  occ. eigenvalues --  -11.21091 -11.21046  -1.08540  -1.08348  -1.03622
 Alpha  occ. eigenvalues --   -1.03478  -0.96073  -0.95932  -0.87080  -0.86960
 Alpha  occ. eigenvalues --   -0.79676  -0.79547  -0.78438  -0.78101  -0.65242
 Alpha  occ. eigenvalues --   -0.64935  -0.61147  -0.60778  -0.59408  -0.59311
 Alpha  occ. eigenvalues --   -0.57688  -0.57551  -0.55465  -0.55131  -0.52747
 Alpha  occ. eigenvalues --   -0.52647  -0.52528  -0.52328  -0.50032  -0.49873
 Alpha  occ. eigenvalues --   -0.48112  -0.47771  -0.46713  -0.46605  -0.46306
 Alpha  occ. eigenvalues --   -0.45817  -0.45640  -0.45094  -0.43865  -0.43726
 Alpha virt. eigenvalues --    0.19745   0.22114   0.23255   0.24500   0.25328
 Alpha virt. eigenvalues --    0.25937   0.26801   0.27521   0.28973   0.30446
 Alpha virt. eigenvalues --    0.31012   0.31276   0.31576   0.31676   0.32173

 Mulliken charges:
               1
     1  C   -0.297658
     2  C   -0.301177
     3  C   -0.475719
     4  H    0.149979
     5  H    0.149924
     6  H    0.152600
     7  H    0.152246
     8  H    0.155357
     9  H    0.155432
    10  H    0.160695
    11  C   -0.305888
    12  C   -0.299080
    13  C   -0.482095
    14  H    0.155579
    15  H    0.150004
    16  H    0.152208
    17  H    0.152332
    18  H    0.154702
    19  H    0.162378
    20  H    0.160927
    21  C   -0.297775
    22  C   -0.301060
    23  C   -0.475596
    24  H    0.149273
    25  H    0.149175
    26  H    0.153094
    27  H    0.151850
    28  H    0.155195
    29  H    0.154650
    30  H    0.160020
    31  C   -0.305377
    32  C   -0.303658
    33  C   -0.478351
    34  H    0.158022
    35  H    0.148591
    36  H    0.156527
    37  H    0.151879
    38  H    0.155578
    39  H    0.154726
    40  H    0.160487
 Sum of Mulliken charges =  -0.00000

 Dipole moment (field-independent basis, Debye):
    X=              0.0613    Y=             -0.0159    Z=             -0.0044  Tot=              0.0635
 Quadrupole moment (field-independent basis, Debye-Ang):
   XX=            -84.8765   YY=            -85.4986   ZZ=            -84.3890
   XY=             -0.3682   XZ=             -1.0211   YZ=              0.0052

 Normal termination of Gaussian 16 at Wed May  5 18:10:56 2021.
