 Gaussian 16, Revision A.03,
 Gaussian 16:  EM64L-G16RevA.03 25-Dec-2016

 -------------
 #p 6-31g* mp2
 -------------

 ------------------------------------------------------
 Input file generated by CHIRIPA (05-May-2021 14:53:14)
 ------------------------------------------------------
 Symbolic Z-matrix:
 Charge =  0 Multiplicity = 1

                         Standard orientation:
 ---------------------------------------------------------------------
 Center     Atomic      Atomic             Coordinates (Angstroms)
 Number     Number       Type             X           Y           Z
 ---------------------------------------------------------------------
      1          6           0       -3.300228    0.022060    0.103226
      2          6           0       -2.220024   -0.335766   -0.918100
      3          6           0       -0.806607   -0.233805   -0.343949
      4          1           0       -3.124893    1.042464    0.470620
      5          1           0       -3.207772   -0.643406    0.972709
      6          1           0       -2.315363    0.329269   -1.786002
      7          1           0       -2.398062   -1.355367   -1.283247
      8          1           0       -0.687630   -0.909662    0.509082
      9          1           0       -0.604462    0.784546    0.003471
     10          1           0       -0.050126   -0.493863   -1.090920
     11          6           0       -4.718575   -0.075161   -0.455850
     12          6           0       -5.798778    0.282666    0.565475
     13          6           0       -7.212196    0.180704   -0.008675
     14          1           0       -4.811031    0.590306   -1.325334
     15          1           0       -4.893910   -1.095565   -0.823245
     16          1           0       -5.620740    1.302267    0.930623
     17          1           0       -5.703439   -0.382369    1.433378
     18          1           0       -7.414341   -0.837646   -0.356095
     19          1           0       -7.331172    0.856562   -0.861706
     20          1           0       -7.968677    0.440762    0.738296
     21          6           0        3.306511    2.534823    0.015311
     22          6           0        2.537861    1.934391    1.017898
     23          6           0        2.434221    0.542339    1.095334
     24          6           0        3.115507   -0.222309    0.149580
     25          6           0        3.889155    0.346270   -0.861101
     26          6           0        3.978520    1.740246   -0.919342
     27          1           0        3.381477    3.616949   -0.037388
     28          1           0        2.014884    2.548972    1.745106
     29          1           0        1.846061    0.051348    1.861111
     30          1           0        4.399035   -0.292694   -1.571849
     31          1           0        4.576186    2.203807   -1.699053
     32          7           0        3.013344   -1.697032    0.221398
     33          8           0        3.623223   -2.348467   -0.623774
     34          8           0        2.325323   -2.173559    1.121501
 ---------------------------------------------------------------------

 SCF Done:  E(RHF) =  -669.535613008     A.U. after   15 cycles
 E2 =    -0.2092195954D+01 EUMP2 =    -0.67162780896240D+03

 The electronic state is 1-A.
 Alpha  occ. eigenvalues --  -20.60765 -20.60757 -15.85807 -11.31140 -11.27740
 Alpha  occ. eigenvalues --  -11.27719 -11.27486 -11.26738 -11.26728 -11.21576
 Alpha  occ. eigenvalues --  -11.21463 -11.21350 -11.21291 -11.21045 -11.20906
 Alpha  occ. eigenvalues --   -1.59830  -1.39385  -1.19333  -1.08731  -1.08363
 Alpha  occ. eigenvalues --   -1.04738  -1.03450  -0.95912  -0.95564  -0.86937
 Alpha  occ. eigenvalues --   -0.86128  -0.82404  -0.79527  -0.78185  -0.77445
 Alpha  occ. eigenvalues --   -0.72030  -0.71147  -0.70448  -0.65008  -0.64974
 Alpha  occ. eigenvalues --   -0.64742  -0.62088  -0.60841  -0.59280  -0.57519
 Alpha  occ. eigenvalues --   -0.55251  -0.55192  -0.53221  -0.52841  -0.52481
 Alpha  occ. eigenvalues --   -0.52283  -0.49840  -0.48787  -0.48781  -0.47840
 Alpha  occ. eigenvalues --   -0.46546  -0.45730  -0.45647  -0.44775  -0.43712
 Alpha  occ. eigenvalues --   -0.37298  -0.36292
 Alpha virt. eigenvalues --    0.05065   0.11284   0.16524   0.21307   0.22938
 Alpha virt. eigenvalues --    0.24293   0.26602   0.26799   0.27638   0.27821
 Alpha virt. eigenvalues --    0.28778   0.30363   0.31500   0.31829   0.31860

 Mulliken charges:
               1
     1  C   -0.298404
     2  C   -0.300575
     3  C   -0.479424
     4  H    0.145819
     5  H    0.151171
     6  H    0.149833
     7  H    0.155470
     8  H    0.164157
     9  H    0.147885
    10  H    0.160026
    11  C   -0.298205
    12  C   -0.299546
    13  C   -0.475676
    14  H    0.148665
    15  H    0.151239
    16  H    0.150342
    17  H    0.152596
    18  H    0.155991
    19  H    0.154676
    20  H    0.159934
    21  C   -0.170474
    22  C   -0.220218
    23  C   -0.164182
    24  C    0.158490
    25  C   -0.171649
    26  C   -0.218777
    27  H    0.225398
    28  H    0.223211
    29  H    0.276188
    30  H    0.275447
    31  H    0.223175
    32  N    0.488772
    33  O   -0.460671
    34  O   -0.460683
 Sum of Mulliken charges =  -0.00000

 Dipole moment (field-independent basis, Debye):
    X=              0.3962    Y=              5.1253    Z=             -0.2320  Tot=              5.1458
 Quadrupole moment (field-independent basis, Debye-Ang):
   XX=            -92.6028   YY=            -96.7171   ZZ=            -91.9578
   XY=             16.2430   XZ=             -3.8027   YZ=              0.9189

 Normal termination of Gaussian 16 at Thu May  6 08:57:15 2021.
