 Gaussian 16, Revision A.03,
 Gaussian 16:  EM64L-G16RevA.03 25-Dec-2016

 -------------
 #p 6-31g* mp2
 -------------

 ------------------------------------------------------
 Input file generated by CHIRIPA (05-May-2021 14:51:09)
 ------------------------------------------------------
 Symbolic Z-matrix:
 Charge =  0 Multiplicity = 1

                         Standard orientation:
 ---------------------------------------------------------------------
 Center     Atomic      Atomic             Coordinates (Angstroms)
 Number     Number       Type             X           Y           Z
 ---------------------------------------------------------------------
      1          6           0        2.978598   -0.376025   -0.139898
      2          6           0        3.820145   -1.652519   -0.158548
      3          6           0        2.971501   -2.918299   -0.282636
      4          1           0        2.267195   -0.425619    0.695800
      5          1           0        2.378282   -0.327471   -1.058950
      6          1           0        4.419730   -1.697959    0.759630
      7          1           0        4.529759   -1.599797   -0.994183
      8          1           0        2.384426   -2.899462   -1.206535
      9          1           0        2.273772   -2.998182    0.557242
     10          1           0        3.593222   -3.818961   -0.294041
     11          6           0        3.812776    0.897784   -0.016268
     12          6           0        2.971229    2.174278    0.002382
     13          6           0        3.819873    3.440058    0.126470
     14          1           0        4.413092    0.849230    0.902785
     15          1           0        4.524179    0.947378   -0.851965
     16          1           0        2.261615    2.121556    0.838017
     17          1           0        2.371644    2.219718   -0.915795
     18          1           0        4.517602    3.519941   -0.713408
     19          1           0        4.406948    3.421221    1.050370
     20          1           0        3.198152    4.340720    0.137876
     21          6           0       -2.782874   -0.609603   -0.215659
     22          6           0       -1.798345   -1.101682    0.845728
     23          6           0       -0.577579   -1.797164    0.242544
     24          1           0       -3.109509   -1.461994   -0.826956
     25          1           0       -2.264255    0.081409   -0.894578
     26          1           0       -2.319020   -1.790488    1.523267
     27          1           0       -1.474162   -0.248051    1.454691
     28          1           0       -0.032966   -1.115020   -0.418273
     29          1           0       -0.882625   -2.666222   -0.349307
     30          1           0        0.113021   -2.140917    1.018923
     31          6           0       -4.008500    0.087844    0.371825
     32          6           0       -4.993030    0.579923   -0.689564
     33          6           0       -6.213795    1.275405   -0.086378
     34          1           0       -4.527120   -0.603168    1.050744
     35          1           0       -3.681866    0.940235    0.983121
     36          1           0       -5.317211   -0.273708   -1.298526
     37          1           0       -4.472354    1.268729   -1.367103
     38          1           0       -5.908749    2.144463    0.505472
     39          1           0       -6.758408    0.593261    0.574438
     40          1           0       -6.904394    1.619158   -0.862758
 ---------------------------------------------------------------------

 SCF Done:  E(RHF) =  -470.731768409     A.U. after   11 cycles
 E2 =    -0.1583881912D+01 EUMP2 =    -0.47231565032160D+03

 The electronic state is 1-A.
 Alpha  occ. eigenvalues --  -11.21616 -11.21584 -11.21547 -11.21533 -11.21374
 Alpha  occ. eigenvalues --  -11.21369 -11.21314 -11.21297 -11.21083 -11.21058
 Alpha  occ. eigenvalues --  -11.20938 -11.20918  -1.08427  -1.08374  -1.03547
 Alpha  occ. eigenvalues --   -1.03441  -0.95972  -0.95911  -0.87004  -0.86925
 Alpha  occ. eigenvalues --   -0.79722  -0.79430  -0.78286  -0.78122  -0.65056
 Alpha  occ. eigenvalues --   -0.65017  -0.60935  -0.60892  -0.59466  -0.59178
 Alpha  occ. eigenvalues --   -0.57638  -0.57478  -0.55263  -0.55208  -0.52788
 Alpha  occ. eigenvalues --   -0.52629  -0.52380  -0.52252  -0.49913  -0.49859
 Alpha  occ. eigenvalues --   -0.47929  -0.47822  -0.46648  -0.46586  -0.45860
 Alpha  occ. eigenvalues --   -0.45714  -0.45676  -0.45457  -0.43761  -0.43644
 Alpha virt. eigenvalues --    0.21786   0.23152   0.23632   0.24710   0.25440
 Alpha virt. eigenvalues --    0.26594   0.26837   0.27714   0.27758   0.29650
 Alpha virt. eigenvalues --    0.29706   0.31271   0.31656   0.31933   0.32177

 Mulliken charges:
               1
     1  C   -0.301121
     2  C   -0.299780
     3  C   -0.477209
     4  H    0.153943
     5  H    0.149297
     6  H    0.151221
     7  H    0.151344
     8  H    0.156053
     9  H    0.158620
    10  H    0.158968
    11  C   -0.297788
    12  C   -0.299636
    13  C   -0.475598
    14  H    0.149337
    15  H    0.149427
    16  H    0.151519
    17  H    0.151275
    18  H    0.155288
    19  H    0.155275
    20  H    0.160084
    21  C   -0.298634
    22  C   -0.300753
    23  C   -0.478142
    24  H    0.149522
    25  H    0.149413
    26  H    0.151331
    27  H    0.151131
    28  H    0.161210
    29  H    0.154232
    30  H    0.160427
    31  C   -0.298156
    32  C   -0.299588
    33  C   -0.475672
    34  H    0.149447
    35  H    0.149541
    36  H    0.151878
    37  H    0.151839
    38  H    0.155134
    39  H    0.155149
    40  H    0.160171
 Sum of Mulliken charges =  -0.00000

 Dipole moment (field-independent basis, Debye):
    X=              0.0120    Y=             -0.0121    Z=             -0.0056  Tot=              0.0179
 Quadrupole moment (field-independent basis, Debye-Ang):
   XX=            -85.9022   YY=            -85.3267   ZZ=            -83.8378
   XY=              0.4729   XZ=              0.1824   YZ=             -0.3227

 Normal termination of Gaussian 16 at Wed May  5 16:38:48 2021.
