 Gaussian 16, Revision A.03,
 Gaussian 16:  EM64L-G16RevA.03 25-Dec-2016

 -------------
 #p 6-31g* mp2
 -------------

 ------------------------------------------------------
 Input file generated by CHIRIPA (05-May-2021 14:51:11)
 ------------------------------------------------------
 Symbolic Z-matrix:
 Charge =  0 Multiplicity = 1

                         Standard orientation:
 ---------------------------------------------------------------------
 Center     Atomic      Atomic             Coordinates (Angstroms)
 Number     Number       Type             X           Y           Z
 ---------------------------------------------------------------------
      1          6           0        4.378505   -0.682242   -0.233014
      2          6           0        5.759578   -0.980690    0.351408
      3          6           0        6.306328   -2.339345   -0.087815
      4          1           0        3.680461   -1.475011    0.068975
      5          1           0        4.436595   -0.718002   -1.329710
      6          1           0        5.699205   -0.943014    1.446648
      7          1           0        6.454370   -0.187018    0.048151
      8          1           0        6.395231   -2.384647   -1.178065
      9          1           0        5.635775   -3.144939    0.228379
     10          1           0        7.294440   -2.532277    0.341454
     11          6           0        3.818583    0.672498    0.196979
     12          6           0        2.437509    0.970947   -0.387443
     13          6           0        1.890759    2.329601    0.051780
     14          1           0        3.760492    0.708258    1.293675
     15          1           0        4.516626    1.465267   -0.105010
     16          1           0        1.742717    0.177275   -0.084186
     17          1           0        2.497882    0.933271   -1.482683
     18          1           0        2.561312    3.135195   -0.264414
     19          1           0        1.801856    2.374904    1.142030
     20          1           0        0.902647    2.522534   -0.377489
     21          6           0       -3.687058    0.530070   -0.353841
     22          6           0       -2.829364    1.394610    0.570775
     23          6           0       -2.011968    2.440597   -0.187890
     24          1           0       -3.037193    0.029994   -1.084966
     25          1           0       -4.362752    1.178690   -0.928404
     26          1           0       -2.156453    0.744435    1.144429
     27          1           0       -3.481326    1.892536    1.299906
     28          1           0       -2.670689    3.112861   -0.747130
     29          1           0       -1.338288    1.958235   -0.903490
     30          1           0       -1.406251    3.047462    0.492317
     31          6           0       -4.510029   -0.520327    0.389876
     32          6           0       -5.367724   -1.384867   -0.534740
     33          6           0       -6.185119   -2.430854    0.223925
     34          1           0       -3.834335   -1.168946    0.964441
     35          1           0       -5.159895   -0.020251    1.121001
     36          1           0       -4.715761   -1.882793   -1.263869
     37          1           0       -6.040634   -0.734691   -1.108394
     38          1           0       -6.858799   -1.948492    0.939525
     39          1           0       -5.526397   -3.103117    0.783165
     40          1           0       -6.790836   -3.037718   -0.456282
 ---------------------------------------------------------------------

 SCF Done:  E(RHF) =  -470.732600972     A.U. after   11 cycles
 E2 =    -0.1582664406D+01 EUMP2 =    -0.47231526537813D+03

 The electronic state is 1-A.
 Alpha  occ. eigenvalues --  -11.21622 -11.21611 -11.21590 -11.21562 -11.21419
 Alpha  occ. eigenvalues --  -11.21381 -11.21360 -11.21320 -11.21080 -11.21077
 Alpha  occ. eigenvalues --  -11.21065 -11.20896  -1.08447  -1.08400  -1.03565
 Alpha  occ. eigenvalues --   -1.03475  -0.96054  -0.95887  -0.87107  -0.86873
 Alpha  occ. eigenvalues --   -0.79658  -0.79516  -0.78258  -0.78218  -0.65086
 Alpha  occ. eigenvalues --   -0.65028  -0.61014  -0.60873  -0.59536  -0.59165
 Alpha  occ. eigenvalues --   -0.57609  -0.57572  -0.55318  -0.55193  -0.52979
 Alpha  occ. eigenvalues --   -0.52462  -0.52411  -0.52241  -0.49923  -0.49853
 Alpha  occ. eigenvalues --   -0.47942  -0.47851  -0.46629  -0.46591  -0.45800
 Alpha  occ. eigenvalues --   -0.45759  -0.45720  -0.45686  -0.43935  -0.43560
 Alpha virt. eigenvalues --    0.21969   0.23091   0.23572   0.25144   0.26506
 Alpha virt. eigenvalues --    0.26730   0.27108   0.27407   0.27571   0.29189
 Alpha virt. eigenvalues --    0.30493   0.31071   0.31358   0.31850   0.32318

 Mulliken charges:
               1
     1  C   -0.298202
     2  C   -0.299616
     3  C   -0.475676
     4  H    0.149324
     5  H    0.149402
     6  H    0.151884
     7  H    0.151960
     8  H    0.155147
     9  H    0.155071
    10  H    0.160220
    11  C   -0.298090
    12  C   -0.299465
    13  C   -0.483657
    14  H    0.149400
    15  H    0.149714
    16  H    0.150842
    17  H    0.151307
    18  H    0.154099
    19  H    0.153633
    20  H    0.171208
    21  C   -0.298794
    22  C   -0.299553
    23  C   -0.479938
    24  H    0.149963
    25  H    0.149616
    26  H    0.152118
    27  H    0.152107
    28  H    0.155360
    29  H    0.156847
    30  H    0.163699
    31  C   -0.298302
    32  C   -0.299675
    33  C   -0.475710
    34  H    0.149451
    35  H    0.149698
    36  H    0.151985
    37  H    0.151968
    38  H    0.155194
    39  H    0.155160
    40  H    0.160301
 Sum of Mulliken charges =  -0.00000

 Dipole moment (field-independent basis, Debye):
    X=             -0.0513    Y=              0.0209    Z=             -0.0047  Tot=              0.0556
 Quadrupole moment (field-independent basis, Debye-Ang):
   XX=            -84.8282   YY=            -85.6692   ZZ=            -84.3410
   XY=             -0.4157   XZ=             -0.0726   YZ=             -0.2078

 Normal termination of Gaussian 16 at Wed May  5 18:17:04 2021.
