 Gaussian 16, Revision A.03,
 Gaussian 16:  EM64L-G16RevA.03 25-Dec-2016

 -------------
 #p 6-31g* mp2
 -------------

 ------------------------------------------------------
 Input file generated by CHIRIPA (05-May-2021 14:57:22)
 ------------------------------------------------------
 Symbolic Z-matrix:
 Charge =  0 Multiplicity = 1

                         Standard orientation:
 ---------------------------------------------------------------------
 Center     Atomic      Atomic             Coordinates (Angstroms)
 Number     Number       Type             X           Y           Z
 ---------------------------------------------------------------------
      1          6           0        0.662432   -0.842084   -0.714091
      2          6           0        1.364551    0.050884   -1.530277
      3          6           0        2.691187    0.384124   -1.241254
      4          6           0        3.287440   -0.196828   -0.123100
      5          6           0        2.614353   -1.089798    0.709276
      6          6           0        1.288471   -1.408576    0.401114
      7          1           0       -0.367838   -1.095335   -0.946045
      8          1           0        0.880903    0.492359   -2.397013
      9          1           0        3.258084    1.072532   -1.856185
     10          1           0        3.123263   -1.513760    1.566413
     11          1           0        0.745642   -2.102370    1.036750
     12          7           0        4.691491    0.148303    0.193006
     13          8           0        5.194175   -0.377127    1.183899
     14          8           0        5.262717    0.937712   -0.556108
     15          6           0       -2.336807    2.626005    0.645150
     16          6           0       -2.834055    2.282142   -0.616208
     17          6           0       -3.235518    0.970804   -0.887809
     18          6           0       -3.125567    0.024365    0.129765
     19          6           0       -2.634207    0.335966    1.396556
     20          6           0       -2.238644    1.653533    1.645743
     21          1           0       -2.027233    3.647103    0.847430
     22          1           0       -2.911413    3.035298   -1.395192
     23          1           0       -3.624052    0.677244   -1.855425
     24          1           0       -2.568931   -0.436706    2.152953
     25          1           0       -1.852850    1.917715    2.626261
     26          7           0       -3.547455   -1.367187   -0.145902
     27          8           0       -3.440594   -2.182522    0.767580
     28          8           0       -3.977004   -1.616202   -1.270230
 ---------------------------------------------------------------------

 SCF Done:  E(RHF) =  -868.338155073     A.U. after   16 cycles
 E2 =    -0.2600777107D+01 EUMP2 =    -0.87093893217950D+03

 The electronic state is 1-A.
 Alpha  occ. eigenvalues --  -20.61855 -20.61841 -20.60831 -20.60825 -15.86897
 Alpha  occ. eigenvalues --  -15.85883 -11.32162 -11.31201 -11.28713 -11.28690
 Alpha  occ. eigenvalues --  -11.28348 -11.27785 -11.27754 -11.27665 -11.27620
 Alpha  occ. eigenvalues --  -11.27449 -11.26771 -11.26705  -1.60945  -1.59909
 Alpha  occ. eigenvalues --   -1.40492  -1.39463  -1.20317  -1.19366  -1.09717
 Alpha  occ. eigenvalues --   -1.08756  -1.05679  -1.04764  -0.96564  -0.95603
 Alpha  occ. eigenvalues --   -0.87078  -0.86153  -0.83383  -0.82441  -0.78466
 Alpha  occ. eigenvalues --   -0.77502  -0.73091  -0.72345  -0.72100  -0.71369
 Alpha  occ. eigenvalues --   -0.71234  -0.70428  -0.65942  -0.65648  -0.65010
 Alpha  occ. eigenvalues --   -0.64752  -0.63020  -0.62112  -0.56134  -0.55316
 Alpha  occ. eigenvalues --   -0.53995  -0.53746  -0.53048  -0.52845  -0.49866
 Alpha  occ. eigenvalues --   -0.49847  -0.48859  -0.48854  -0.45903  -0.44880
 Alpha  occ. eigenvalues --   -0.38281  -0.37428  -0.37161  -0.36365
 Alpha virt. eigenvalues --    0.04011   0.05030   0.10320   0.11300   0.15555
 Alpha virt. eigenvalues --    0.16547   0.20581   0.21291   0.26410   0.27167
 Alpha virt. eigenvalues --    0.27639   0.27704   0.30379   0.30651   0.31725

 Mulliken charges:
               1
     1  C   -0.167974
     2  C   -0.219700
     3  C   -0.172089
     4  C    0.157773
     5  C   -0.171936
     6  C   -0.222263
     7  H    0.228372
     8  H    0.221474
     9  H    0.274203
    10  H    0.275316
    11  H    0.228215
    12  N    0.488012
    13  O   -0.460579
    14  O   -0.461372
    15  C   -0.168936
    16  C   -0.218452
    17  C   -0.177091
    18  C    0.150517
    19  C   -0.172461
    20  C   -0.215426
    21  H    0.230263
    22  H    0.226078
    23  H    0.276385
    24  H    0.275635
    25  H    0.227976
    26  N    0.486794
    27  O   -0.460132
    28  O   -0.458601
 Sum of Mulliken charges =  -0.00000

 Dipole moment (field-independent basis, Debye):
    X=             -3.6222    Y=              3.8305    Z=             -0.0327  Tot=              5.2720
 Quadrupole moment (field-independent basis, Debye-Ang):
   XX=           -148.1146   YY=           -102.5008   ZZ=            -96.9587
   XY=            -19.1041   XZ=             -4.8494   YZ=             -2.9925

 Normal termination of Gaussian 16 at Fri May  7 03:16:58 2021.
