 Gaussian 16, Revision A.03,
 Gaussian 16:  EM64L-G16RevA.03 25-Dec-2016

 -------------
 #p 6-31g* mp2
 -------------

 ------------------------------------------------------
 Input file generated by CHIRIPA (05-May-2021 14:55:23)
 ------------------------------------------------------
 Symbolic Z-matrix:
 Charge =  0 Multiplicity = 1

                         Standard orientation:
 ---------------------------------------------------------------------
 Center     Atomic      Atomic             Coordinates (Angstroms)
 Number     Number       Type             X           Y           Z
 ---------------------------------------------------------------------
      1          6           0        4.976434   -1.039308   -0.357418
      2          6           0        4.243786   -1.184811    0.825196
      3          6           0        3.136333   -0.370182    1.079115
      4          6           0        2.788012    0.583959    0.124349
      5          6           0        3.497917    0.753159   -1.063378
      6          6           0        4.601822   -0.072492   -1.296276
      7          1           0        5.835353   -1.676413   -0.546504
      8          1           0        4.532410   -1.934809    1.556115
      9          1           0        2.551448   -0.461443    1.986308
     10          1           0        3.185921    1.509685   -1.773128
     11          1           0        5.168952    0.042749   -2.215584
     12          7           0        1.617479    1.452205    0.382035
     13          8           0        1.331109    2.285299   -0.475043
     14          8           0        1.008551    1.283202    1.436208
     15          6           0       -3.153479   -0.722594    0.241582
     16          6           0       -2.219875   -1.590765   -0.602603
     17          6           0       -0.899375   -1.898873    0.103896
     18          1           0       -2.642586    0.216932    0.493025
     19          1           0       -3.356165   -1.232635    1.193513
     20          1           0       -2.020119   -1.079868   -1.553234
     21          1           0       -2.733120   -2.528252   -0.852227
     22          1           0       -1.080200   -2.430352    1.043807
     23          1           0       -0.363146   -0.973738    0.338817
     24          1           0       -0.247200   -2.520610   -0.517370
     25          6           0       -4.477702   -0.406012   -0.451194
     26          6           0       -5.411307    0.462157    0.392991
     27          6           0       -6.731807    0.770265   -0.313508
     28          1           0       -4.275017    0.104028   -1.403125
     29          1           0       -4.988595   -1.345539   -0.702636
     30          1           0       -4.898061    1.399645    0.642615
     31          1           0       -5.611063   -0.048739    1.343621
     32          1           0       -7.268036   -0.154868   -0.548428
     33          1           0       -6.550982    1.301745   -1.253419
     34          1           0       -7.383982    1.392003    0.307759
 ---------------------------------------------------------------------

 SCF Done:  E(RHF) =  -669.536339821     A.U. after   15 cycles
 E2 =    -0.2091495473D+01 EUMP2 =    -0.67162783529346D+03

 The electronic state is 1-A.
 Alpha  occ. eigenvalues --  -20.60970 -20.60962 -15.85976 -11.31251 -11.27817
 Alpha  occ. eigenvalues --  -11.27806 -11.27551 -11.26816 -11.26803 -11.20977
 Alpha  occ. eigenvalues --  -11.20949 -11.20709 -11.20553 -11.20529 -11.20470
 Alpha  occ. eigenvalues --   -1.60023  -1.39580  -1.19420  -1.08836  -1.07739
 Alpha  occ. eigenvalues --   -1.04810  -1.02902  -0.95685  -0.95357  -0.86383
 Alpha  occ. eigenvalues --   -0.86212  -0.82520  -0.78971  -0.77586  -0.77527
 Alpha  occ. eigenvalues --   -0.72206  -0.71344  -0.70533  -0.65078  -0.64816
 Alpha  occ. eigenvalues --   -0.64361  -0.62159  -0.60298  -0.58728  -0.56964
 Alpha  occ. eigenvalues --   -0.55323  -0.54640  -0.53144  -0.52904  -0.52086
 Alpha  occ. eigenvalues --   -0.51783  -0.49317  -0.48965  -0.48960  -0.47301
 Alpha  occ. eigenvalues --   -0.46036  -0.45173  -0.45046  -0.44734  -0.43146
 Alpha  occ. eigenvalues --   -0.37395  -0.36403
 Alpha virt. eigenvalues --    0.04936   0.11220   0.16412   0.21359   0.23551
 Alpha virt. eigenvalues --    0.24860   0.27202   0.27350   0.27895   0.28357
 Alpha virt. eigenvalues --    0.28657   0.30769   0.31864   0.32205   0.32451

 Mulliken charges:
               1
     1  C   -0.170451
     2  C   -0.218645
     3  C   -0.170139
     4  C    0.158140
     5  C   -0.170711
     6  C   -0.218694
     7  H    0.225856
     8  H    0.223865
     9  H    0.276421
    10  H    0.275509
    11  H    0.223607
    12  N    0.487619
    13  O   -0.458491
    14  O   -0.458363
    15  C   -0.301201
    16  C   -0.298175
    17  C   -0.483087
    18  H    0.163353
    19  H    0.146972
    20  H    0.151819
    21  H    0.147964
    22  H    0.152373
    23  H    0.164674
    24  H    0.153380
    25  C   -0.298045
    26  C   -0.299902
    27  C   -0.475417
    28  H    0.149739
    29  H    0.146207
    30  H    0.156040
    31  H    0.150504
    32  H    0.153129
    33  H    0.155018
    34  H    0.159133
 Sum of Mulliken charges =  -0.00000

 Dipole moment (field-independent basis, Debye):
    X=              4.2893    Y=             -2.8962    Z=             -0.8570  Tot=              5.2460
 Quadrupole moment (field-independent basis, Debye-Ang):
   XX=            -73.5520   YY=            -97.6136   ZZ=            -91.3322
   XY=             -5.6238   XZ=             -3.5135   YZ=             -3.5671

 Normal termination of Gaussian 16 at Thu May  6 01:30:55 2021.
