 Gaussian 16, Revision A.03,
 Gaussian 16:  EM64L-G16RevA.03 25-Dec-2016

 -------------
 #p 6-31g* mp2
 -------------

 ------------------------------------------------------
 Input file generated by CHIRIPA (05-May-2021 14:55:24)
 ------------------------------------------------------
 Symbolic Z-matrix:
 Charge =  0 Multiplicity = 1

                         Standard orientation:
 ---------------------------------------------------------------------
 Center     Atomic      Atomic             Coordinates (Angstroms)
 Number     Number       Type             X           Y           Z
 ---------------------------------------------------------------------
      1          6           0        3.016920    1.719574    1.150651
      2          6           0        2.829235    1.793600   -0.233479
      3          6           0        2.300903    0.707392   -0.937444
      4          6           0        1.969702   -0.442488   -0.222342
      5          6           0        2.144889   -0.546890    1.156679
      6          6           0        2.674751    0.551625    1.840097
      7          1           0        3.427935    2.568147    1.689527
      8          1           0        3.094070    2.699370   -0.771520
      9          1           0        2.145185    0.737657   -2.009010
     10          1           0        1.871426   -1.463233    1.665552
     11          1           0        2.819417    0.491302    2.915028
     12          7           0        1.409570   -1.598922   -0.956722
     13          8           0        1.125770   -2.600633   -0.303521
     14          8           0        1.264946   -1.481727   -2.171623
     15          6           0       -2.522007    0.885526   -0.372891
     16          6           0       -2.674123    2.280931    0.233483
     17          6           0       -2.436297    3.396898   -0.784284
     18          1           0       -1.514577    0.785953   -0.799639
     19          1           0       -3.227460    0.777517   -1.208395
     20          1           0       -1.969561    2.385786    1.068476
     21          1           0       -3.681244    2.377127    0.659006
     22          1           0       -3.147650    3.320527   -1.612986
     23          1           0       -1.426240    3.329234   -1.201189
     24          1           0       -2.550080    4.385906   -0.329558
     25          6           0       -2.756758   -0.240678    0.632238
     26          6           0       -2.604643   -1.636082    0.025864
     27          6           0       -2.842469   -2.752049    1.043631
     28          1           0       -2.051306   -0.132670    1.467741
     29          1           0       -3.764190   -0.141104    1.058985
     30          1           0       -1.597522   -1.732279   -0.399660
     31          1           0       -3.309205   -1.740937   -0.809130
     32          1           0       -3.852525   -2.684385    1.460536
     33          1           0       -2.131117   -2.675678    1.872332
     34          1           0       -2.728687   -3.741057    0.588905
 ---------------------------------------------------------------------

 SCF Done:  E(RHF) =  -669.536143736     A.U. after   15 cycles
 E2 =    -0.2092711162D+01 EUMP2 =    -0.67162885489834D+03

 The electronic state is 1-A.
 Alpha  occ. eigenvalues --  -20.60982 -20.60977 -15.86001 -11.31350 -11.27907
 Alpha  occ. eigenvalues --  -11.27901 -11.27632 -11.26907 -11.26897 -11.21489
 Alpha  occ. eigenvalues --  -11.21085 -11.21076 -11.20933 -11.20738 -11.20285
 Alpha  occ. eigenvalues --   -1.60047  -1.39598  -1.19510  -1.08910  -1.08038
 Alpha  occ. eigenvalues --   -1.04903  -1.03091  -0.95750  -0.95571  -0.86598
 Alpha  occ. eigenvalues --   -0.86302  -0.82580  -0.79186  -0.77807  -0.77635
 Alpha  occ. eigenvalues --   -0.72222  -0.71386  -0.70609  -0.65161  -0.64900
 Alpha  occ. eigenvalues --   -0.64669  -0.62248  -0.60487  -0.58966  -0.57149
 Alpha  occ. eigenvalues --   -0.55401  -0.54884  -0.53228  -0.52991  -0.52259
 Alpha  occ. eigenvalues --   -0.51998  -0.49549  -0.48995  -0.48986  -0.47496
 Alpha  occ. eigenvalues --   -0.46259  -0.45375  -0.45315  -0.44838  -0.43357
 Alpha  occ. eigenvalues --   -0.37479  -0.36500
 Alpha virt. eigenvalues --    0.04863   0.11114   0.16339   0.21238   0.22969
 Alpha virt. eigenvalues --    0.24644   0.26642   0.27145   0.27775   0.28102
 Alpha virt. eigenvalues --    0.28508   0.30807   0.31689   0.32071   0.32418

 Mulliken charges:
               1
     1  C   -0.170437
     2  C   -0.218494
     3  C   -0.171805
     4  C    0.158555
     5  C   -0.171370
     6  C   -0.218546
     7  H    0.226393
     8  H    0.224326
     9  H    0.276377
    10  H    0.276098
    11  H    0.224172
    12  N    0.486508
    13  O   -0.458080
    14  O   -0.458251
    15  C   -0.297372
    16  C   -0.298724
    17  C   -0.474703
    18  H    0.147275
    19  H    0.151254
    20  H    0.148962
    21  H    0.151890
    22  H    0.156742
    23  H    0.151638
    24  H    0.157903
    25  C   -0.298535
    26  C   -0.305093
    27  C   -0.472131
    28  H    0.144253
    29  H    0.147535
    30  H    0.166104
    31  H    0.150992
    32  H    0.149387
    33  H    0.151391
    34  H    0.165788
 Sum of Mulliken charges =  -0.00000

 Dipole moment (field-independent basis, Debye):
    X=              2.1274    Y=              3.9553    Z=              2.5071  Tot=              5.1435
 Quadrupole moment (field-independent basis, Debye-Ang):
   XX=            -86.9356   YY=            -98.3678   ZZ=            -92.7893
   XY=              7.5722   XZ=              5.0721   YZ=             -3.8489

 Normal termination of Gaussian 16 at Thu May  6 03:12:13 2021.
