 Gaussian 16, Revision A.03,
 Gaussian 16:  EM64L-G16RevA.03 25-Dec-2016

 -------------
 #p 6-31g* mp2
 -------------

 ------------------------------------------------------
 Input file generated by CHIRIPA (05-May-2021 14:55:22)
 ------------------------------------------------------
 Symbolic Z-matrix:
 Charge =  0 Multiplicity = 1

                         Standard orientation:
 ---------------------------------------------------------------------
 Center     Atomic      Atomic             Coordinates (Angstroms)
 Number     Number       Type             X           Y           Z
 ---------------------------------------------------------------------
      1          6           0       -0.397917    0.626397    1.593945
      2          6           0       -1.429860    1.542356    1.364526
      3          6           0       -2.560218    1.169443    0.631194
      4          6           0       -2.626000   -0.133427    0.139777
      5          6           0       -1.614379   -1.068881    0.351532
      6          6           0       -0.493302   -0.674006    1.087608
      7          1           0        0.476567    0.924614    2.164681
      8          1           0       -1.358488    2.552936    1.756546
      9          1           0       -3.373698    1.858377    0.438744
     10          1           0       -1.714033   -2.069213   -0.051979
     11          1           0        0.306590   -1.387466    1.264222
     12          7           0       -3.817746   -0.539838   -0.638021
     13          8           0       -3.851632   -1.693633   -1.060215
     14          8           0       -4.695386    0.303106   -0.810737
     15          6           0        3.094937    0.806429   -0.092357
     16          6           0        2.613055    1.804500   -1.145747
     17          6           0        2.588694    3.243427   -0.629328
     18          1           0        2.442663    0.870071    0.789365
     19          1           0        4.101361    1.094085    0.241951
     20          1           0        1.608400    1.514254   -1.478974
     21          1           0        3.266438    1.738340   -2.025140
     22          1           0        3.589400    3.556803   -0.314713
     23          1           0        1.921942    3.331445    0.234556
     24          1           0        2.241161    3.940181   -1.398493
     25          6           0        3.124802   -0.636328   -0.593641
     26          6           0        3.606684   -1.634398    0.459749
     27          6           0        3.631045   -3.073326   -0.056670
     28          1           0        2.118379   -0.923984   -0.927949
     29          1           0        3.777076   -0.699969   -1.475363
     30          1           0        2.953301   -1.568238    1.339142
     31          1           0        4.611340   -1.344153    0.792976
     32          1           0        4.297797   -3.161343   -0.920553
     33          1           0        2.630339   -3.386701   -0.371285
     34          1           0        3.978578   -3.770080    0.712495
 ---------------------------------------------------------------------

 SCF Done:  E(RHF) =  -669.534939025     A.U. after   15 cycles
 E2 =    -0.2093896873D+01 EUMP2 =    -0.67162883589882D+03

 The electronic state is 1-A.
 Alpha  occ. eigenvalues --  -20.60818 -20.60813 -15.85872 -11.31264 -11.27840
 Alpha  occ. eigenvalues --  -11.27835 -11.27579 -11.26857 -11.26845 -11.22562
 Alpha  occ. eigenvalues --  -11.22240 -11.22184 -11.22137 -11.21868 -11.21746
 Alpha  occ. eigenvalues --   -1.59893  -1.39446  -1.19446  -1.09253  -1.08822
 Alpha  occ. eigenvalues --   -1.04850  -1.04302  -0.96745  -0.95667  -0.87761
 Alpha  occ. eigenvalues --   -0.86246  -0.82498  -0.80364  -0.79056  -0.77536
 Alpha  occ. eigenvalues --   -0.72091  -0.71217  -0.70589  -0.66023  -0.65092
 Alpha  occ. eigenvalues --   -0.64731  -0.62236  -0.61658  -0.60106  -0.58352
 Alpha  occ. eigenvalues --   -0.56084  -0.55352  -0.53424  -0.53204  -0.53110
 Alpha  occ. eigenvalues --   -0.52936  -0.50685  -0.48856  -0.48843  -0.48665
 Alpha  occ. eigenvalues --   -0.47413  -0.46598  -0.46483  -0.44845  -0.44552
 Alpha  occ. eigenvalues --   -0.37386  -0.36439
 Alpha virt. eigenvalues --    0.04962   0.11082   0.16319   0.18616   0.22398
 Alpha virt. eigenvalues --    0.23368   0.25235   0.26200   0.27049   0.27700
 Alpha virt. eigenvalues --    0.29711   0.30389   0.31056   0.31140   0.31709

 Mulliken charges:
               1
     1  C   -0.171505
     2  C   -0.219835
     3  C   -0.170749
     4  C    0.158854
     5  C   -0.172698
     6  C   -0.221248
     7  H    0.227161
     8  H    0.224175
     9  H    0.276060
    10  H    0.276136
    11  H    0.229989
    12  N    0.488042
    13  O   -0.460169
    14  O   -0.460153
    15  C   -0.297812
    16  C   -0.301406
    17  C   -0.474691
    18  H    0.139381
    19  H    0.151280
    20  H    0.157685
    21  H    0.154828
    22  H    0.156210
    23  H    0.147408
    24  H    0.163840
    25  C   -0.302072
    26  C   -0.301802
    27  C   -0.476109
    28  H    0.151626
    29  H    0.154535
    30  H    0.140995
    31  H    0.156355
    32  H    0.159973
    33  H    0.153138
    34  H    0.162577
 Sum of Mulliken charges =  -0.00000

 Dipole moment (field-independent basis, Debye):
    X=              4.2689    Y=              1.4284    Z=              2.6006  Tot=              5.1987
 Quadrupole moment (field-independent basis, Debye-Ang):
   XX=           -115.2446   YY=            -92.0621   ZZ=            -94.5909
   XY=             -6.3823   XZ=             -7.6200   YZ=              0.1362

 Normal termination of Gaussian 16 at Wed May  5 15:59:51 2021.
