 Gaussian 16, Revision A.03,
 Gaussian 16:  EM64L-G16RevA.03 25-Dec-2016

 -------------
 #p 6-31g* mp2
 -------------

 ------------------------------------------------------
 Input file generated by CHIRIPA (05-May-2021 14:51:10)
 ------------------------------------------------------
 Symbolic Z-matrix:
 Charge =  0 Multiplicity = 1

                         Standard orientation:
 ---------------------------------------------------------------------
 Center     Atomic      Atomic             Coordinates (Angstroms)
 Number     Number       Type             X           Y           Z
 ---------------------------------------------------------------------
      1          6           0        3.213096    0.013285    0.700744
      2          6           0        1.880796    0.469479    0.105051
      3          6           0        0.800036    0.679849    1.165944
      4          1           0        3.057665   -0.920606    1.258088
      5          1           0        3.555098    0.759816    1.430896
      6          1           0        1.542095   -0.277016   -0.624774
      7          1           0        2.039454    1.402291   -0.451101
      8          1           0        1.112882    1.439927    1.889139
      9          1           0        0.612696   -0.248921    1.714479
     10          1           0       -0.143992    1.005746    0.718215
     11          6           0        4.303548   -0.201274   -0.347401
     12          6           0        5.635847   -0.657467    0.248292
     13          6           0        6.716607   -0.867838   -0.812602
     14          1           0        3.961546   -0.947805   -1.077553
     15          1           0        4.458979    0.732618   -0.904745
     16          1           0        5.477189   -1.590280    0.804443
     17          1           0        5.974549    0.089027    0.978117
     18          1           0        6.903947    0.060932   -1.361136
     19          1           0        6.403762   -1.627916   -1.535796
     20          1           0        7.660636   -1.193735   -0.364872
     21          6           0       -3.623122    0.787331    0.113909
     22          6           0       -2.754496    1.664215   -0.788615
     23          6           0       -2.492829    3.048176   -0.193656
     24          1           0       -4.579488    1.295725    0.297879
     25          1           0       -3.132812    0.680499    1.091446
     26          1           0       -3.245631    1.768224   -1.764619
     27          1           0       -1.800163    1.153589   -0.970614
     28          1           0       -1.981264    2.962577    0.770488
     29          1           0       -3.434946    3.580704   -0.028028
     30          1           0       -1.869992    3.658342   -0.855193
     31          6           0       -3.893522   -0.599342   -0.467251
     32          6           0       -4.762147   -1.476226    0.435272
     33          6           0       -5.023814   -2.860188   -0.159687
     34          1           0       -4.383832   -0.492511   -1.444788
     35          1           0       -2.937155   -1.107737   -0.651223
     36          1           0       -5.716482   -0.965600    0.617271
     37          1           0       -4.271013   -1.580235    1.411276
     38          1           0       -4.081698   -3.392715   -0.325314
     39          1           0       -5.535380   -2.774588   -1.123831
     40          1           0       -5.646651   -3.470353    0.501850
 ---------------------------------------------------------------------

 SCF Done:  E(RHF) =  -470.733091601     A.U. after   11 cycles
 E2 =    -0.1583023513D+01 EUMP2 =    -0.47231611511448D+03

 The electronic state is 1-A.
 Alpha  occ. eigenvalues --  -11.21640 -11.21616 -11.21603 -11.21592 -11.21427
 Alpha  occ. eigenvalues --  -11.21397 -11.21367 -11.21338 -11.21082 -11.21082
 Alpha  occ. eigenvalues --  -11.21067 -11.21066  -1.08461  -1.08423  -1.03587
 Alpha  occ. eigenvalues --   -1.03504  -0.96028  -0.95956  -0.87024  -0.86993
 Alpha  occ. eigenvalues --   -0.79620  -0.79592  -0.78267  -0.78237  -0.65109
 Alpha  occ. eigenvalues --   -0.65079  -0.61080  -0.60949  -0.59353  -0.59282
 Alpha  occ. eigenvalues --   -0.57625  -0.57557  -0.55332  -0.55226  -0.52683
 Alpha  occ. eigenvalues --   -0.52672  -0.52441  -0.52369  -0.49984  -0.49879
 Alpha  occ. eigenvalues --   -0.48000  -0.47839  -0.46653  -0.46620  -0.45808
 Alpha  occ. eigenvalues --   -0.45776  -0.45732  -0.45701  -0.43810  -0.43757
 Alpha virt. eigenvalues --    0.20690   0.23063   0.23778   0.25076   0.26402
 Alpha virt. eigenvalues --    0.26632   0.26976   0.27736   0.27933   0.28907
 Alpha virt. eigenvalues --    0.30911   0.31275   0.31368   0.31669   0.32148

 Mulliken charges:
               1
     1  C   -0.298334
     2  C   -0.299270
     3  C   -0.486091
     4  H    0.149619
     5  H    0.149728
     6  H    0.151482
     7  H    0.152340
     8  H    0.155385
     9  H    0.154640
    10  H    0.171075
    11  C   -0.298289
    12  C   -0.299673
    13  C   -0.475723
    14  H    0.149523
    15  H    0.149747
    16  H    0.151936
    17  H    0.151980
    18  H    0.155225
    19  H    0.155201
    20  H    0.160303
    21  C   -0.299470
    22  C   -0.304209
    23  C   -0.477732
    24  H    0.149870
    25  H    0.150837
    26  H    0.153177
    27  H    0.153710
    28  H    0.157019
    29  H    0.155563
    30  H    0.160312
    31  C   -0.298185
    32  C   -0.299714
    33  C   -0.475692
    34  H    0.149442
    35  H    0.149723
    36  H    0.151914
    37  H    0.152167
    38  H    0.155077
    39  H    0.155147
    40  H    0.160238
 Sum of Mulliken charges =  -0.00000

 Dipole moment (field-independent basis, Debye):
    X=             -0.0023    Y=              0.0109    Z=              0.0010  Tot=              0.0112
 Quadrupole moment (field-independent basis, Debye-Ang):
   XX=            -84.8186   YY=            -84.7930   ZZ=            -85.1035
   XY=             -0.1399   XZ=              0.8812   YZ=             -0.4917

 Normal termination of Gaussian 16 at Wed May  5 18:13:25 2021.
