 Gaussian 16, Revision A.03,
 Gaussian 16:  EM64L-G16RevA.03 25-Dec-2016

 -------------
 #p 6-31g* mp2
 -------------

 ------------------------------------------------------
 Input file generated by CHIRIPA (05-May-2021 14:57:24)
 ------------------------------------------------------
 Symbolic Z-matrix:
 Charge =  0 Multiplicity = 1

                         Standard orientation:
 ---------------------------------------------------------------------
 Center     Atomic      Atomic             Coordinates (Angstroms)
 Number     Number       Type             X           Y           Z
 ---------------------------------------------------------------------
      1          6           0        4.772079    1.382194   -0.139822
      2          6           0        4.951600    0.084571    0.350555
      3          6           0        3.881934   -0.814881    0.387282
      4          6           0        2.640841   -0.381353   -0.076431
      5          6           0        2.430321    0.904949   -0.570798
      6          6           0        3.514230    1.787527   -0.598125
      7          1           0        5.608553    2.074355   -0.164701
      8          1           0        5.927340   -0.232961    0.707135
      9          1           0        3.992979   -1.825238    0.761804
     10          1           0        1.445831    1.192552   -0.919340
     11          1           0        3.371883    2.794672   -0.979493
     12          7           0        1.500894   -1.324630   -0.042525
     13          8           0        0.417472   -0.918267   -0.456895
     14          8           0        1.712411   -2.452473    0.397778
     15          6           0       -2.683293    2.713283    0.479064
     16          6           0       -2.474330    1.822186    1.536797
     17          6           0       -2.552437    0.441967    1.328374
     18          6           0       -2.842777   -0.014583    0.043635
     19          6           0       -3.055997    0.847944   -1.030550
     20          6           0       -2.972950    2.224181   -0.798981
     21          1           0       -2.620699    3.783925    0.649962
     22          1           0       -2.249217    2.199185    2.530398
     23          1           0       -2.395099   -0.270210    2.129290
     24          1           0       -3.278698    0.442160   -2.009918
     25          1           0       -3.135698    2.913880   -1.622312
     26          7           0       -2.928081   -1.473652   -0.189266
     27          8           0       -3.185309   -1.850566   -1.330496
     28          8           0       -2.736099   -2.212727    0.773827
 ---------------------------------------------------------------------

 SCF Done:  E(RHF) =  -868.337016914     A.U. after   16 cycles
 E2 =    -0.2601461462D+01 EUMP2 =    -0.87093847837682D+03

 The electronic state is 1-A.
 Alpha  occ. eigenvalues --  -20.60728 -20.60699 -20.59369 -20.59336 -15.85771
 Alpha  occ. eigenvalues --  -15.84433 -11.31237 -11.30149 -11.27830 -11.27800
 Alpha  occ. eigenvalues --  -11.27586 -11.26875 -11.26839 -11.26808 -11.26772
 Alpha  occ. eigenvalues --  -11.26711 -11.25990 -11.25961  -1.59769  -1.58386
 Alpha  occ. eigenvalues --   -1.39329  -1.37952  -1.19419  -1.18386  -1.08795
 Alpha  occ. eigenvalues --   -1.07727  -1.04839  -1.03885  -0.95614  -0.94505
 Alpha  occ. eigenvalues --   -0.86231  -0.85265  -0.82456  -0.81366  -0.77478
 Alpha  occ. eigenvalues --   -0.76318  -0.72064  -0.71102  -0.70690  -0.70528
 Alpha  occ. eigenvalues --   -0.69574  -0.69563  -0.65072  -0.64842  -0.64071
 Alpha  occ. eigenvalues --   -0.63936  -0.62183  -0.61240  -0.55335  -0.54432
 Alpha  occ. eigenvalues --   -0.53164  -0.52933  -0.52162  -0.52011  -0.48751
 Alpha  occ. eigenvalues --   -0.48703  -0.47456  -0.47396  -0.44724  -0.43290
 Alpha  occ. eigenvalues --   -0.37412  -0.36455  -0.36357  -0.35505
 Alpha virt. eigenvalues --    0.05053   0.06310   0.11205   0.12148   0.16529
 Alpha virt. eigenvalues --    0.17684   0.21322   0.22089   0.27216   0.27967
 Alpha virt. eigenvalues --    0.28220   0.29038   0.30849   0.31576   0.32443

 Mulliken charges:
               1
     1  C   -0.171111
     2  C   -0.218654
     3  C   -0.170715
     4  C    0.158011
     5  C   -0.171533
     6  C   -0.218854
     7  H    0.225142
     8  H    0.223815
     9  H    0.277061
    10  H    0.275102
    11  H    0.221483
    12  N    0.491885
    13  O   -0.467504
    14  O   -0.452835
    15  C   -0.175195
    16  C   -0.220973
    17  C   -0.167857
    18  C    0.176674
    19  C   -0.170720
    20  C   -0.221861
    21  H    0.219143
    22  H    0.218441
    23  H    0.275295
    24  H    0.273975
    25  H    0.217833
    26  N    0.496567
    27  O   -0.464590
    28  O   -0.458026
 Sum of Mulliken charges =  -0.00000

 Dipole moment (field-independent basis, Debye):
    X=              4.5034    Y=              8.0098    Z=              0.7158  Tot=              9.2168
 Quadrupole moment (field-independent basis, Debye-Ang):
   XX=            -85.0815   YY=           -106.4001   ZZ=           -100.3236
   XY=             -9.3654   XZ=             -0.3785   YZ=             -2.6921

 Normal termination of Gaussian 16 at Thu May  6 05:06:02 2021.
