 Gaussian 16, Revision A.03,
 Gaussian 16:  EM64L-G16RevA.03 25-Dec-2016

 -------------
 #p 6-31g* mp2
 -------------

 ------------------------------------------------------
 Input file generated by CHIRIPA (05-May-2021 14:57:25)
 ------------------------------------------------------
 Symbolic Z-matrix:
 Charge =  0 Multiplicity = 1

                         Standard orientation:
 ---------------------------------------------------------------------
 Center     Atomic      Atomic             Coordinates (Angstroms)
 Number     Number       Type             X           Y           Z
 ---------------------------------------------------------------------
      1          6           0        1.438675   -1.420594    1.862775
      2          6           0        1.229497   -1.652918    0.499400
      3          6           0        2.067564   -1.071481   -0.456698
      4          6           0        3.109818   -0.259463   -0.012150
      5          6           0        3.343981   -0.008918    1.339029
      6          6           0        2.493390   -0.600781    2.277507
      7          1           0        0.782780   -1.876318    2.598650
      8          1           0        0.411185   -2.289154    0.174415
      9          1           0        1.928349   -1.234507   -1.518517
     10          1           0        4.168081    0.629974    1.632448
     11          1           0        2.658222   -0.418591    3.335657
     12          7           0        4.003672    0.361597   -1.015001
     13          8           0        4.914837    1.073050   -0.597568
     14          8           0        3.776185    0.125171   -2.199479
     15          6           0       -1.539691    2.395062    0.302357
     16          6           0       -2.900567    2.406340    0.625482
     17          6           0       -3.698499    1.285455    0.377556
     18          6           0       -3.100053    0.165255   -0.197167
     19          6           0       -1.747084    0.123293   -0.530342
     20          6           0       -0.968300    1.255582   -0.273508
     21          1           0       -0.927276    3.270222    0.498413
     22          1           0       -3.347014    3.289879    1.072797
     23          1           0       -4.754608    1.267076    0.617792
     24          1           0       -1.330458   -0.772170   -0.975298
     25          1           0        0.088306    1.243982   -0.525490
     26          7           0       -3.934651   -1.027413   -0.464350
     27          8           0       -3.383431   -2.001891   -0.971484
     28          8           0       -5.124227   -0.965164   -0.161576
 ---------------------------------------------------------------------

 SCF Done:  E(RHF) =  -868.337347494     A.U. after   16 cycles
 E2 =    -0.2602417043D+01 EUMP2 =    -0.87093976453630D+03

 The electronic state is 1-A.
 Alpha  occ. eigenvalues --  -20.61472 -20.61467 -20.61261 -20.61231 -15.86529
 Alpha  occ. eigenvalues --  -15.86294 -11.31988 -11.31563 -11.28511 -11.28493
 Alpha  occ. eigenvalues --  -11.28153 -11.28116 -11.28065 -11.27738 -11.27487
 Alpha  occ. eigenvalues --  -11.27470 -11.27072 -11.26983  -1.60554  -1.60323
 Alpha  occ. eigenvalues --   -1.40102  -1.39882  -1.20139  -1.19696  -1.09480
 Alpha  occ. eigenvalues --   -1.09099  -1.05564  -1.05052  -0.96309  -0.95964
 Alpha  occ. eigenvalues --   -0.86909  -0.86470  -0.83151  -0.82783  -0.78227
 Alpha  occ. eigenvalues --   -0.77852  -0.72728  -0.72511  -0.71898  -0.71647
 Alpha  occ. eigenvalues --   -0.71151  -0.70809  -0.65751  -0.65541  -0.65337
 Alpha  occ. eigenvalues --   -0.65020  -0.62935  -0.62373  -0.55933  -0.55570
 Alpha  occ. eigenvalues --   -0.54000  -0.53639  -0.53304  -0.53013  -0.49498
 Alpha  occ. eigenvalues --   -0.49489  -0.49283  -0.49250  -0.45486  -0.45308
 Alpha  occ. eigenvalues --   -0.38148  -0.37661  -0.37346  -0.36365
 Alpha virt. eigenvalues --    0.04291   0.04625   0.10359   0.11041   0.15716
 Alpha virt. eigenvalues --    0.16227   0.19845   0.21714   0.25181   0.27339
 Alpha virt. eigenvalues --    0.27733   0.29038   0.29519   0.31196   0.31806

 Mulliken charges:
               1
     1  C   -0.169345
     2  C   -0.221495
     3  C   -0.186327
     4  C    0.157534
     5  C   -0.172820
     6  C   -0.218318
     7  H    0.231704
     8  H    0.233814
     9  H    0.277657
    10  H    0.277234
    11  H    0.226391
    12  N    0.487244
    13  O   -0.458542
    14  O   -0.458956
    15  C   -0.172846
    16  C   -0.218207
    17  C   -0.172206
    18  C    0.157892
    19  C   -0.174345
    20  C   -0.215393
    21  H    0.228121
    22  H    0.224448
    23  H    0.275797
    24  H    0.266040
    25  H    0.229928
    26  N    0.488359
    27  O   -0.465298
    28  O   -0.458066
 Sum of Mulliken charges =  -0.00000

 Dipole moment (field-independent basis, Debye):
    X=             -0.0851    Y=              2.0320    Z=              4.6639  Tot=              5.0880
 Quadrupole moment (field-independent basis, Debye-Ang):
   XX=           -138.7168   YY=           -100.9889   ZZ=           -102.5794
   XY=            -19.7797   XZ=              8.1927   YZ=              1.0714

 Normal termination of Gaussian 16 at Thu May  6 11:24:23 2021.
