 Gaussian 16, Revision A.03,
 Gaussian 16:  EM64L-G16RevA.03 25-Dec-2016

 -------------
 #p 6-31g* mp2
 -------------

 ------------------------------------------------------
 Input file generated by CHIRIPA (05-May-2021 14:57:24)
 ------------------------------------------------------
 Symbolic Z-matrix:
 Charge =  0 Multiplicity = 1

                         Standard orientation:
 ---------------------------------------------------------------------
 Center     Atomic      Atomic             Coordinates (Angstroms)
 Number     Number       Type             X           Y           Z
 ---------------------------------------------------------------------
      1          6           0        6.296394    0.673218    0.468525
      2          6           0        5.191496    1.445753    0.841233
      3          6           0        3.900058    1.066761    0.462946
      4          6           0        3.749340   -0.095872   -0.291282
      5          6           0        4.830266   -0.886606   -0.678100
      6          6           0        6.112577   -0.488448   -0.288617
      7          1           0        7.296069    0.975072    0.766736
      8          1           0        5.331252    2.348402    1.429227
      9          1           0        3.027114    1.646267    0.737825
     10          1           0        4.659351   -1.781309   -1.264370
     11          1           0        6.968813   -1.090355   -0.579499
     12          7           0        2.386984   -0.507239   -0.697684
     13          8           0        2.280879   -1.535828   -1.362051
     14          8           0        1.451070    0.206710   -0.344159
     15          6           0       -6.108754    0.645458   -0.970288
     16          6           0       -5.003558    1.501085   -1.024746
     17          6           0       -3.815570    1.169178   -0.366665
     18          6           0       -3.767481   -0.031613    0.339790
     19          6           0       -4.851528   -0.905002    0.412749
     20          6           0       -6.029352   -0.552743   -0.252978
     21          1           0       -7.027663    0.911196   -1.484471
     22          1           0       -5.062354    2.432270   -1.581058
     23          1           0       -2.944889    1.813128   -0.392324
     24          1           0       -4.762685   -1.826436    0.975317
     25          1           0       -6.886080   -1.219168   -0.208955
     26          7           0       -2.515191   -0.393761    1.040519
     27          8           0       -2.498348   -1.457414    1.656145
     28          8           0       -1.574203    0.392897    0.960854
 ---------------------------------------------------------------------

 SCF Done:  E(RHF) =  -868.335795204     A.U. after   16 cycles
 E2 =    -0.2600095449D+01 EUMP2 =    -0.87093589065242D+03

 The electronic state is 1-A.
 Alpha  occ. eigenvalues --  -20.59813 -20.59706 -20.59683 -20.59565 -15.84809
 Alpha  occ. eigenvalues --  -15.84677 -11.30454 -11.30340 -11.27078 -11.27034
 Alpha  occ. eigenvalues --  -11.26963 -11.26931 -11.26876 -11.26773 -11.26157
 Alpha  occ. eigenvalues --  -11.26135 -11.26052 -11.26036  -1.58837  -1.58689
 Alpha  occ. eigenvalues --   -1.38380  -1.38233  -1.18660  -1.18547  -1.08009
 Alpha  occ. eigenvalues --   -1.07891  -1.04104  -1.03998  -0.94799  -0.94667
 Alpha  occ. eigenvalues --   -0.85490  -0.85383  -0.81639  -0.81486  -0.76627
 Alpha  occ. eigenvalues --   -0.76493  -0.71142  -0.70772  -0.70173  -0.70000
 Alpha  occ. eigenvalues --   -0.69771  -0.69664  -0.64309  -0.64193  -0.64116
 Alpha  occ. eigenvalues --   -0.64014  -0.61447  -0.61343  -0.54611  -0.54507
 Alpha  occ. eigenvalues --   -0.52421  -0.52308  -0.52203  -0.52101  -0.47874
 Alpha  occ. eigenvalues --   -0.47782  -0.47654  -0.47607  -0.43753  -0.43507
 Alpha  occ. eigenvalues --   -0.36663  -0.36548  -0.35721  -0.35614
 Alpha virt. eigenvalues --    0.05903   0.06074   0.11929   0.12037   0.17338
 Alpha virt. eigenvalues --    0.17498   0.22012   0.22103   0.27905   0.27988
 Alpha virt. eigenvalues --    0.28934   0.29039   0.31539   0.31624   0.33216

 Mulliken charges:
               1
     1  C   -0.171768
     2  C   -0.218766
     3  C   -0.170849
     4  C    0.159065
     5  C   -0.171442
     6  C   -0.218689
     7  H    0.222999
     8  H    0.221512
     9  H    0.278506
    10  H    0.274375
    11  H    0.220994
    12  N    0.487758
    13  O   -0.466132
    14  O   -0.447726
    15  C   -0.171840
    16  C   -0.218723
    17  C   -0.169971
    18  C    0.160028
    19  C   -0.171227
    20  C   -0.218649
    21  H    0.222572
    22  H    0.220846
    23  H    0.277265
    24  H    0.274458
    25  H    0.220735
    26  N    0.488510
    27  O   -0.465552
    28  O   -0.448289
 Sum of Mulliken charges =  -0.00000

 Dipole moment (field-independent basis, Debye):
    X=              0.4046    Y=              2.8106    Z=             -0.9814  Tot=              3.0044
 Quadrupole moment (field-independent basis, Debye-Ang):
   XX=            -37.9237   YY=            -99.1363   ZZ=           -107.4422
   XY=              0.6997   XZ=             10.3347   YZ=              0.5729

 Normal termination of Gaussian 16 at Thu May  6 08:15:04 2021.
