 Gaussian 16, Revision A.03,
 Gaussian 16:  EM64L-G16RevA.03 25-Dec-2016

 -------------
 #p 6-31g* mp2
 -------------

 ------------------------------------------------------
 Input file generated by CHIRIPA (05-May-2021 14:51:13)
 ------------------------------------------------------
 Symbolic Z-matrix:
 Charge =  0 Multiplicity = 1

                         Standard orientation:
 ---------------------------------------------------------------------
 Center     Atomic      Atomic             Coordinates (Angstroms)
 Number     Number       Type             X           Y           Z
 ---------------------------------------------------------------------
      1          6           0       -3.877446   -0.403477    0.109964
      2          6           0       -2.887461   -1.548649   -0.105664
      3          6           0       -3.513825   -2.923596    0.128819
      4          1           0       -4.273874   -0.457721    1.133120
      5          1           0       -4.734381   -0.536934   -0.564756
      6          1           0       -2.031993   -1.412319    0.568283
      7          1           0       -2.493200   -1.491559   -1.128364
      8          1           0       -4.355033   -3.085054   -0.553017
      9          1           0       -3.891206   -3.005363    1.153269
     10          1           0       -2.788616   -3.727626   -0.030766
     11          6           0       -3.266074    0.977370   -0.120719
     12          6           0       -4.256060    2.122542    0.094909
     13          6           0       -3.629696    3.497489   -0.139574
     14          1           0       -2.409139    1.110827    0.554000
     15          1           0       -2.869647    1.031614   -1.143875
     16          1           0       -4.650321    2.065452    1.117608
     17          1           0       -5.111528    1.986212   -0.579038
     18          1           0       -3.252315    3.579257   -1.164025
     19          1           0       -2.788487    3.658947    0.542262
     20          1           0       -4.354905    4.301519    0.020011
     21          6           0        4.249865   -0.053975   -0.257927
     22          6           0        4.774939    1.198926    0.443875
     23          6           0        6.132406    1.652690   -0.093873
     24          1           0        4.981544   -0.865251   -0.142077
     25          1           0        4.170716    0.143984   -1.335861
     26          1           0        4.851763    0.999110    1.520344
     27          1           0        4.041838    2.007259    0.326503
     28          1           0        6.067086    1.879166   -1.163005
     29          1           0        6.881613    0.865289    0.037620
     30          1           0        6.488991    2.549799    0.421784
     31          6           0        2.893655   -0.519919    0.268682
     32          6           0        2.368582   -1.772818   -0.433120
     33          6           0        1.011114   -2.226583    0.104629
     34          1           0        2.972805   -0.717877    1.346616
     35          1           0        2.161977    0.291358    0.152832
     36          1           0        3.101683   -2.581153   -0.315748
     37          1           0        2.291758   -1.573004   -1.509589
     38          1           0        0.261908   -1.439183   -0.026865
     39          1           0        1.076434   -2.453060    1.173760
     40          1           0        0.654530   -3.123692   -0.411029
 ---------------------------------------------------------------------

 SCF Done:  E(RHF) =  -470.732985952     A.U. after   11 cycles
 E2 =    -0.1582677953D+01 EUMP2 =    -0.47231566390483D+03

 The electronic state is 1-A.
 Alpha  occ. eigenvalues --  -11.21607 -11.21594 -11.21568 -11.21516 -11.21399
 Alpha  occ. eigenvalues --  -11.21392 -11.21333 -11.21327 -11.21081 -11.21065
 Alpha  occ. eigenvalues --  -11.21020 -11.20991  -1.08426  -1.08403  -1.03539
 Alpha  occ. eigenvalues --   -1.03476  -0.95986  -0.95932  -0.87008  -0.86948
 Alpha  occ. eigenvalues --   -0.79690  -0.79471  -0.78280  -0.78175  -0.65069
 Alpha  occ. eigenvalues --   -0.65022  -0.60965  -0.60858  -0.59372  -0.59289
 Alpha  occ. eigenvalues --   -0.57608  -0.57539  -0.55275  -0.55221  -0.52694
 Alpha  occ. eigenvalues --   -0.52611  -0.52450  -0.52330  -0.49979  -0.49861
 Alpha  occ. eigenvalues --   -0.48078  -0.47723  -0.46695  -0.46519  -0.45881
 Alpha  occ. eigenvalues --   -0.45736  -0.45699  -0.45475  -0.43769  -0.43752
 Alpha virt. eigenvalues --    0.22233   0.23032   0.23650   0.24664   0.25855
 Alpha virt. eigenvalues --    0.26729   0.26895   0.27300   0.27903   0.29028
 Alpha virt. eigenvalues --    0.30859   0.30991   0.31501   0.31714   0.32539

 Mulliken charges:
               1
     1  C   -0.297809
     2  C   -0.304028
     3  C   -0.475825
     4  H    0.149472
     5  H    0.149236
     6  H    0.158613
     7  H    0.151468
     8  H    0.154684
     9  H    0.154878
    10  H    0.160865
    11  C   -0.298637
    12  C   -0.299494
    13  C   -0.475734
    14  H    0.148997
    15  H    0.149220
    16  H    0.152073
    17  H    0.152052
    18  H    0.155018
    19  H    0.155120
    20  H    0.160327
    21  C   -0.298220
    22  C   -0.299658
    23  C   -0.475693
    24  H    0.149636
    25  H    0.149534
    26  H    0.151828
    27  H    0.151960
    28  H    0.155195
    29  H    0.155157
    30  H    0.160222
    31  C   -0.298423
    32  C   -0.299762
    33  C   -0.479674
    34  H    0.149260
    35  H    0.149665
    36  H    0.151534
    37  H    0.151747
    38  H    0.161342
    39  H    0.153995
    40  H    0.159861
 Sum of Mulliken charges =  -0.00000

 Dipole moment (field-independent basis, Debye):
    X=             -0.0109    Y=             -0.0027    Z=              0.0054  Tot=              0.0125
 Quadrupole moment (field-independent basis, Debye-Ang):
   XX=            -85.6837   YY=            -85.8249   ZZ=            -83.4151
   XY=             -1.0043   XZ=              0.8876   YZ=             -0.1055

 Normal termination of Gaussian 16 at Wed May  5 18:20:58 2021.
