 Gaussian 16, Revision A.03,
 Gaussian 16:  EM64L-G16RevA.03 25-Dec-2016

 -------------
 #p 6-31g* mp2
 -------------

 ------------------------------------------------------
 Input file generated by CHIRIPA (05-May-2021 14:57:21)
 ------------------------------------------------------
 Symbolic Z-matrix:
 Charge =  0 Multiplicity = 1

                         Standard orientation:
 ---------------------------------------------------------------------
 Center     Atomic      Atomic             Coordinates (Angstroms)
 Number     Number       Type             X           Y           Z
 ---------------------------------------------------------------------
      1          6           0       -1.028431    1.637286   -0.074089
      2          6           0       -2.108047    2.089694    0.691599
      3          6           0       -3.330076    1.411045    0.666571
      4          6           0       -3.437922    0.278450   -0.138964
      5          6           0       -2.380643   -0.197072   -0.913129
      6          6           0       -1.167929    0.497357   -0.872602
      7          1           0       -0.082748    2.170606   -0.048627
      8          1           0       -2.002591    2.974688    1.312655
      9          1           0       -4.182087    1.739423    1.249379
     10          1           0       -2.516114   -1.082342   -1.522524
     11          1           0       -0.331184    0.143719   -1.468289
     12          7           0       -4.726698   -0.448358   -0.173665
     13          8           0       -4.796089   -1.443589   -0.891536
     14          8           0       -5.643048   -0.009038    0.517665
     15          6           0        5.008972    1.101945   -0.833534
     16          6           0        4.229847    0.305756   -1.679446
     17          6           0        3.238843   -0.529239   -1.154808
     18          6           0        3.053097   -0.543268    0.226711
     19          6           0        3.813128    0.238254    1.095541
     20          6           0        4.798497    1.065717    0.548822
     21          1           0        5.776619    1.747663   -1.249661
     22          1           0        4.391089    0.331849   -2.753394
     23          1           0        2.621348   -1.155981   -1.786719
     24          1           0        3.629046    0.190739    2.161972
     25          1           0        5.402075    1.682963    1.208176
     26          7           0        2.006948   -1.423253    0.793808
     27          8           0        1.863018   -1.417459    2.014418
     28          8           0        1.350717   -2.102115    0.006952
 ---------------------------------------------------------------------

 SCF Done:  E(RHF) =  -868.337980747     A.U. after   16 cycles
 E2 =    -0.2600303368D+01 EUMP2 =    -0.87093828411454D+03

 The electronic state is 1-A.
 Alpha  occ. eigenvalues --  -20.61592 -20.61562 -20.60196 -20.60185 -15.86619
 Alpha  occ. eigenvalues --  -15.85245 -11.32081 -11.30569 -11.28657 -11.28595
 Alpha  occ. eigenvalues --  -11.28325 -11.27644 -11.27615 -11.27162 -11.27094
 Alpha  occ. eigenvalues --  -11.26943 -11.26216 -11.26141  -1.60638  -1.59267
 Alpha  occ. eigenvalues --   -1.40195  -1.38822  -1.20237  -1.18744  -1.09602
 Alpha  occ. eigenvalues --   -1.08171  -1.05638  -1.04138  -0.96425  -0.95008
 Alpha  occ. eigenvalues --   -0.87025  -0.85564  -0.83250  -0.81834  -0.78303
 Alpha  occ. eigenvalues --   -0.76872  -0.72829  -0.71974  -0.71470  -0.71306
 Alpha  occ. eigenvalues --   -0.70583  -0.69905  -0.65871  -0.65613  -0.64415
 Alpha  occ. eigenvalues --   -0.64172  -0.62974  -0.61493  -0.56095  -0.54718
 Alpha  occ. eigenvalues --   -0.53977  -0.53708  -0.52465  -0.52258  -0.49594
 Alpha  occ. eigenvalues --   -0.49582  -0.48228  -0.48220  -0.45565  -0.44236
 Alpha  occ. eigenvalues --   -0.38210  -0.37257  -0.36754  -0.35699
 Alpha virt. eigenvalues --    0.04194   0.05669   0.10316   0.11910   0.15701
 Alpha virt. eigenvalues --    0.17157   0.20445   0.21823   0.25990   0.27033
 Alpha virt. eigenvalues --    0.28168   0.28742   0.30116   0.30912   0.32471

 Mulliken charges:
               1
     1  C   -0.172877
     2  C   -0.217097
     3  C   -0.171037
     4  C    0.158584
     5  C   -0.166233
     6  C   -0.213313
     7  H    0.220429
     8  H    0.220305
     9  H    0.273897
    10  H    0.277264
    11  H    0.221343
    12  N    0.488268
    13  O   -0.459924
    14  O   -0.462404
    15  C   -0.171385
    16  C   -0.218358
    17  C   -0.177919
    18  C    0.157182
    19  C   -0.172707
    20  C   -0.218629
    21  H    0.228446
    22  H    0.225965
    23  H    0.274226
    24  H    0.277793
    25  H    0.226197
    26  N    0.488700
    27  O   -0.454954
    28  O   -0.461760
 Sum of Mulliken charges =  -0.00000

 Dipole moment (field-independent basis, Debye):
    X=              8.4456    Y=              5.5375    Z=             -1.8125  Tot=             10.2605
 Quadrupole moment (field-independent basis, Debye-Ang):
   XX=           -113.1905   YY=           -105.3609   ZZ=            -99.8520
   XY=             -0.5695   XZ=             -6.4630   YZ=              5.5660

 Normal termination of Gaussian 16 at Wed May  5 16:14:01 2021.
