 Gaussian 16, Revision A.03,
 Gaussian 16:  EM64L-G16RevA.03 25-Dec-2016

 -------------
 #p 6-31g* mp2
 -------------

 ------------------------------------------------------
 Input file generated by CHIRIPA (05-May-2021 14:57:24)
 ------------------------------------------------------
 Symbolic Z-matrix:
 Charge =  0 Multiplicity = 1

                         Standard orientation:
 ---------------------------------------------------------------------
 Center     Atomic      Atomic             Coordinates (Angstroms)
 Number     Number       Type             X           Y           Z
 ---------------------------------------------------------------------
      1          6           0        3.603769   -2.354266   -0.574488
      2          6           0        2.445058   -1.774408   -1.101436
      3          6           0        2.199400   -0.407411   -0.941687
      4          6           0        3.137963    0.353433   -0.246340
      5          6           0        4.301769   -0.195049    0.290329
      6          6           0        4.526799   -1.564129    0.118491
      7          1           0        3.786589   -3.416992   -0.703280
      8          1           0        1.726470   -2.385598   -1.640067
      9          1           0        1.310619    0.067303   -1.339346
     10          1           0        4.999649    0.439935    0.822473
     11          1           0        5.427534   -2.011750    0.528804
     12          7           0        2.888815    1.801714   -0.070822
     13          8           0        3.731261    2.450304    0.545823
     14          8           0        1.855804    2.260863   -0.553219
     15          6           0       -1.017359   -0.612642    1.477438
     16          6           0       -1.311641    0.695558    1.079277
     17          6           0       -2.506361    0.983033    0.412531
     18          6           0       -3.388007   -0.066603    0.159047
     19          6           0       -3.123312   -1.380280    0.543078
     20          6           0       -1.922538   -1.644566    1.208542
     21          1           0       -0.086921   -0.826953    1.994885
     22          1           0       -0.610536    1.498953    1.286771
     23          1           0       -2.759336    1.986722    0.093110
     24          1           0       -3.841901   -2.160186    0.322181
     25          1           0       -1.696632   -2.661483    1.516589
     26          7           0       -4.656009    0.225460   -0.546129
     27          8           0       -5.416115   -0.716964   -0.757583
     28          8           0       -4.865752    1.391273   -0.874040
 ---------------------------------------------------------------------

 SCF Done:  E(RHF) =  -868.339307321     A.U. after   16 cycles
 E2 =    -0.2600069231D+01 EUMP2 =    -0.87093937655211D+03

 The electronic state is 1-A.
 Alpha  occ. eigenvalues --  -20.61691 -20.61659 -20.60680 -20.60663 -15.86707
 Alpha  occ. eigenvalues --  -15.85725 -11.31962 -11.31089 -11.28514 -11.28484
 Alpha  occ. eigenvalues --  -11.28227 -11.27695 -11.27556 -11.27489 -11.27470
 Alpha  occ. eigenvalues --  -11.27384 -11.26743 -11.26499  -1.60749  -1.59751
 Alpha  occ. eigenvalues --   -1.40302  -1.39303  -1.20130  -1.19258  -1.09542
 Alpha  occ. eigenvalues --   -1.08657  -1.05495  -1.04631  -0.96389  -0.95489
 Alpha  occ. eigenvalues --   -0.86896  -0.86029  -0.83211  -0.82297  -0.78277
 Alpha  occ. eigenvalues --   -0.77343  -0.72918  -0.72083  -0.71938  -0.71206
 Alpha  occ. eigenvalues --   -0.71077  -0.70356  -0.65767  -0.65474  -0.64892
 Alpha  occ. eigenvalues --   -0.64592  -0.62823  -0.61947  -0.55993  -0.55157
 Alpha  occ. eigenvalues --   -0.53866  -0.53572  -0.52979  -0.52686  -0.49684
 Alpha  occ. eigenvalues --   -0.49670  -0.48702  -0.48694  -0.45716  -0.44708
 Alpha  occ. eigenvalues --   -0.38129  -0.37474  -0.36890  -0.36235
 Alpha virt. eigenvalues --    0.04190   0.05163   0.10447   0.11463   0.15663
 Alpha virt. eigenvalues --    0.16681   0.20777   0.21614   0.26711   0.27427
 Alpha virt. eigenvalues --    0.27787   0.28381   0.30372   0.31194   0.31854

 Mulliken charges:
               1
     1  C   -0.171406
     2  C   -0.221090
     3  C   -0.172845
     4  C    0.153456
     5  C   -0.171534
     6  C   -0.219249
     7  H    0.227759
     8  H    0.226902
     9  H    0.279863
    10  H    0.276953
    11  H    0.225653
    12  N    0.486817
    13  O   -0.456690
    14  O   -0.463030
    15  C   -0.175556
    16  C   -0.222497
    17  C   -0.172549
    18  C    0.157700
    19  C   -0.173235
    20  C   -0.221174
    21  H    0.225305
    22  H    0.239155
    23  H    0.279902
    24  H    0.273990
    25  H    0.220020
    26  N    0.487931
    27  O   -0.462173
    28  O   -0.458380
 Sum of Mulliken charges =  -0.00000

 Dipole moment (field-independent basis, Debye):
    X=              5.5299    Y=             -5.9999    Z=              1.8257  Tot=              8.3614
 Quadrupole moment (field-independent basis, Debye-Ang):
   XX=           -126.2173   YY=           -104.0497   ZZ=           -103.8011
   XY=            -11.3550   XZ=             -7.5140   YZ=              0.9077

 Normal termination of Gaussian 16 at Fri May  7 00:20:58 2021.
