 Gaussian 16, Revision A.03,
 Gaussian 16:  EM64L-G16RevA.03 25-Dec-2016

 -------------
 #p 6-31g* mp2
 -------------

 ------------------------------------------------------
 Input file generated by CHIRIPA (05-May-2021 14:51:14)
 ------------------------------------------------------
 Symbolic Z-matrix:
 Charge =  0 Multiplicity = 1

                         Standard orientation:
 ---------------------------------------------------------------------
 Center     Atomic      Atomic             Coordinates (Angstroms)
 Number     Number       Type             X           Y           Z
 ---------------------------------------------------------------------
      1          6           0        4.121121    0.787701   -0.120536
      2          6           0        2.797091    0.423672    0.552079
      3          6           0        1.733783    1.510520    0.391053
      4          1           0        4.492427    1.731394    0.301981
      5          1           0        3.943013    0.972278   -1.188995
      6          1           0        2.977879    0.238486    1.618680
      7          1           0        2.428991   -0.519364    0.128047
      8          1           0        1.524372    1.690639   -0.668336
      9          1           0        2.076378    2.452794    0.830767
     10          1           0        0.795435    1.229630    0.879383
     11          6           0        5.194120   -0.288966    0.031745
     12          6           0        6.518150    0.075064   -0.640870
     13          6           0        7.581459   -1.011785   -0.479845
     14          1           0        5.372228   -0.473543    1.100204
     15          1           0        4.822815   -1.232659   -0.390772
     16          1           0        6.886250    1.018099   -0.216839
     17          1           0        6.337362    0.260250   -1.707472
     18          1           0        7.238863   -1.954059   -0.919558
     19          1           0        7.790870   -1.191904    0.579544
     20          1           0        8.519806   -0.730894   -0.968174
     21          6           0       -5.341786   -0.506636   -0.177331
     22          6           0       -6.378933    0.602998   -0.353458
     23          6           0       -7.742566    0.072593   -0.797271
     24          1           0       -5.233858   -1.052627   -1.124532
     25          1           0       -5.712256   -1.231437    0.560782
     26          1           0       -6.006006    1.326222   -1.089997
     27          1           0       -6.484264    1.146534    0.594219
     28          1           0       -8.139794   -0.633126   -0.060540
     29          1           0       -7.658818   -0.452416   -1.754325
     30          1           0       -8.468786    0.882601   -0.917072
     31          6           0       -3.973456    0.007901    0.266122
     32          6           0       -2.936308   -1.101734    0.442249
     33          6           0       -1.572675   -0.571328    0.886062
     34          1           0       -3.602985    0.732703   -0.471990
     35          1           0       -4.081383    0.553892    1.213324
     36          1           0       -2.830976   -1.645268   -0.505428
     37          1           0       -3.309235   -1.824957    1.178788
     38          1           0       -1.656423   -0.046319    1.843116
     39          1           0       -1.175447    0.134390    0.149332
     40          1           0       -0.846456   -1.381336    1.005863
 ---------------------------------------------------------------------

 SCF Done:  E(RHF) =  -470.732931515     A.U. after   11 cycles
 E2 =    -0.1582464243D+01 EUMP2 =    -0.47231539575760D+03

 The electronic state is 1-A.
 Alpha  occ. eigenvalues --  -11.21605 -11.21601 -11.21573 -11.21523 -11.21407
 Alpha  occ. eigenvalues --  -11.21358 -11.21348 -11.21296 -11.21071 -11.21069
 Alpha  occ. eigenvalues --  -11.21050 -11.20912  -1.08434  -1.08377  -1.03549
 Alpha  occ. eigenvalues --   -1.03458  -0.96033  -0.95879  -0.87082  -0.86871
 Alpha  occ. eigenvalues --   -0.79640  -0.79503  -0.78246  -0.78192  -0.65068
 Alpha  occ. eigenvalues --   -0.65006  -0.60971  -0.60844  -0.59381  -0.59292
 Alpha  occ. eigenvalues --   -0.57684  -0.57460  -0.55331  -0.55154  -0.52919
 Alpha  occ. eigenvalues --   -0.52620  -0.52405  -0.52104  -0.49965  -0.49811
 Alpha  occ. eigenvalues --   -0.48012  -0.47738  -0.46637  -0.46558  -0.45788
 Alpha  occ. eigenvalues --   -0.45729  -0.45710  -0.45661  -0.43806  -0.43667
 Alpha virt. eigenvalues --    0.22361   0.22964   0.23576   0.24743   0.26579
 Alpha virt. eigenvalues --    0.26636   0.26917   0.27334   0.27723   0.29077
 Alpha virt. eigenvalues --    0.30783   0.31030   0.31372   0.31583   0.32394

 Mulliken charges:
               1
     1  C   -0.298201
     2  C   -0.299267
     3  C   -0.483109
     4  H    0.149537
     5  H    0.149226
     6  H    0.151596
     7  H    0.151930
     8  H    0.153184
     9  H    0.154061
    10  H    0.171457
    11  C   -0.298203
    12  C   -0.299589
    13  C   -0.475668
    14  H    0.149423
    15  H    0.149456
    16  H    0.151892
    17  H    0.151824
    18  H    0.155098
    19  H    0.155138
    20  H    0.160142
    21  C   -0.298277
    22  C   -0.299649
    23  C   -0.475709
    24  H    0.149618
    25  H    0.149532
    26  H    0.151981
    27  H    0.151966
    28  H    0.155175
    29  H    0.155162
    30  H    0.160273
    31  C   -0.298409
    32  C   -0.300336
    33  C   -0.479257
    34  H    0.149727
    35  H    0.149651
    36  H    0.151898
    37  H    0.151813
    38  H    0.154636
    39  H    0.159262
    40  H    0.161014
 Sum of Mulliken charges =  -0.00000

 Dipole moment (field-independent basis, Debye):
    X=             -0.0374    Y=             -0.0050    Z=              0.0098  Tot=              0.0390
 Quadrupole moment (field-independent basis, Debye-Ang):
   XX=            -86.6633   YY=            -85.1804   ZZ=            -83.1537
   XY=              0.4832   XZ=             -0.3286   YZ=              0.2548

 Normal termination of Gaussian 16 at Thu May  6 00:50:49 2021.
