 Gaussian 16, Revision A.03,
 Gaussian 16:  EM64L-G16RevA.03 25-Dec-2016

 -------------
 #p 6-31g* mp2
 -------------

 ------------------------------------------------------
 Input file generated by CHIRIPA (05-May-2021 14:57:21)
 ------------------------------------------------------
 Symbolic Z-matrix:
 Charge =  0 Multiplicity = 1

                         Standard orientation:
 ---------------------------------------------------------------------
 Center     Atomic      Atomic             Coordinates (Angstroms)
 Number     Number       Type             X           Y           Z
 ---------------------------------------------------------------------
      1          6           0        2.893863    2.228675    1.146054
      2          6           0        1.818163    1.349856    0.981531
      3          6           0        1.988723    0.137317    0.306843
      4          6           0        3.254332   -0.165897   -0.192743
      5          6           0        4.345634    0.688800   -0.044944
      6          6           0        4.151947    1.895928    0.633196
      7          1           0        2.752385    3.168503    1.671509
      8          1           0        0.839994    1.605653    1.378771
      9          1           0        1.173207   -0.561470    0.165250
     10          1           0        5.308882    0.406219   -0.452031
     11          1           0        4.989159    2.576498    0.759476
     12          7           0        3.447139   -1.446694   -0.908832
     13          8           0        4.572137   -1.690532   -1.339597
     14          8           0        2.469611   -2.182493   -1.025779
     15          6           0       -2.488682   -1.828989    1.701200
     16          6           0       -3.645969   -2.011697    0.937115
     17          6           0       -4.062047   -1.030038    0.032808
     18          6           0       -3.293504    0.127257   -0.082519
     19          6           0       -2.135784    0.338597    0.664681
     20          6           0       -1.738605   -0.656492    1.562789
     21          1           0       -2.172803   -2.596781    2.401279
     22          1           0       -4.230451   -2.921266    1.042519
     23          1           0       -4.953844   -1.145629   -0.571141
     24          1           0       -1.573826    1.255916    0.537609
     25          1           0       -0.839407   -0.511888    2.154885
     26          7           0       -3.723984    1.173604   -1.036587
     27          8           0       -3.029432    2.184219   -1.119616
     28          8           0       -4.747792    0.963303   -1.683291
 ---------------------------------------------------------------------

 SCF Done:  E(RHF) =  -868.336958284     A.U. after   16 cycles
 E2 =    -0.2600995002D+01 EUMP2 =    -0.87093795328543D+03

 The electronic state is 1-A.
 Alpha  occ. eigenvalues --  -20.61154 -20.61139 -20.61086 -20.61077 -15.86209
 Alpha  occ. eigenvalues --  -15.86143 -11.31671 -11.31573 -11.28391 -11.28204
 Alpha  occ. eigenvalues --  -11.28204 -11.28150 -11.27970 -11.27933 -11.27377
 Alpha  occ. eigenvalues --  -11.27318 -11.27186 -11.27142  -1.60221  -1.60159
 Alpha  occ. eigenvalues --   -1.39774  -1.39710  -1.19860  -1.19771  -1.09209
 Alpha  occ. eigenvalues --   -1.09148  -1.05358  -1.05167  -0.96038  -0.95966
 Alpha  occ. eigenvalues --   -0.86686  -0.86587  -0.82973  -0.82753  -0.78054
 Alpha  occ. eigenvalues --   -0.77745  -0.72427  -0.72361  -0.71543  -0.71483
 Alpha  occ. eigenvalues --   -0.70959  -0.70852  -0.65545  -0.65447  -0.65340
 Alpha  occ. eigenvalues --   -0.65198  -0.62977  -0.62230  -0.55758  -0.55644
 Alpha  occ. eigenvalues --   -0.53618  -0.53573  -0.53391  -0.53209  -0.49192
 Alpha  occ. eigenvalues --   -0.49175  -0.49125  -0.49109  -0.45160  -0.45102
 Alpha  occ. eigenvalues --   -0.37780  -0.37733  -0.36911  -0.36802
 Alpha virt. eigenvalues --    0.04595   0.04707   0.10692   0.10875   0.15960
 Alpha virt. eigenvalues --    0.16088   0.18497   0.22193   0.24710   0.27277
 Alpha virt. eigenvalues --    0.28126   0.29079   0.30451   0.31239   0.32013

 Mulliken charges:
               1
     1  C   -0.169259
     2  C   -0.223047
     3  C   -0.174823
     4  C    0.159062
     5  C   -0.168941
     6  C   -0.218624
     7  H    0.228480
     8  H    0.216581
     9  H    0.276563
    10  H    0.277351
    11  H    0.225732
    12  N    0.488118
    13  O   -0.458914
    14  O   -0.460602
    15  C   -0.167850
    16  C   -0.217576
    17  C   -0.168228
    18  C    0.161556
    19  C   -0.176762
    20  C   -0.224259
    21  H    0.229963
    22  H    0.227109
    23  H    0.278286
    24  H    0.270850
    25  H    0.220002
    26  N    0.488580
    27  O   -0.461836
    28  O   -0.457512
 Sum of Mulliken charges =  -0.00000

 Dipole moment (field-independent basis, Debye):
    X=              0.7606    Y=              0.6964    Z=              5.7978  Tot=              5.8888
 Quadrupole moment (field-independent basis, Debye-Ang):
   XX=           -109.9058   YY=           -106.0530   ZZ=           -107.4118
   XY=             31.9562   XZ=             -2.5288   YZ=             -0.0869

 Normal termination of Gaussian 16 at Thu May  6 17:48:41 2021.
