 Gaussian 16, Revision A.03,
 Gaussian 16:  EM64L-G16RevA.03 25-Dec-2016

 -------------
 #p 6-31g* mp2
 -------------

 ------------------------------------------------------
 Input file generated by CHIRIPA (05-May-2021 14:55:18)
 ------------------------------------------------------
 Symbolic Z-matrix:
 Charge =  0 Multiplicity = 1

                         Standard orientation:
 ---------------------------------------------------------------------
 Center     Atomic      Atomic             Coordinates (Angstroms)
 Number     Number       Type             X           Y           Z
 ---------------------------------------------------------------------
      1          6           0        1.906423   -2.250056    1.383199
      2          6           0        0.938175   -1.284343    1.089234
      3          6           0        1.265719   -0.159991    0.325627
      4          6           0        2.577033   -0.032613   -0.129916
      5          6           0        3.564069   -0.977494    0.146217
      6          6           0        3.213974   -2.093825    0.911584
      7          1           0        1.643220   -3.120364    1.977071
      8          1           0       -0.078079   -1.403059    1.454171
      9          1           0        0.535852    0.602882    0.083268
     10          1           0        4.568772   -0.831591   -0.231544
     11          1           0        3.967995   -2.842212    1.138331
     12          7           0        2.935726    1.153443   -0.939244
     13          8           0        4.098045    1.242394   -1.328781
     14          8           0        2.047758    1.971663   -1.168734
     15          6           0       -3.079714   -0.373607   -0.350780
     16          6           0       -4.342868   -1.169416   -0.681106
     17          6           0       -4.040009   -2.498475   -1.373692
     18          1           0       -2.519099   -0.186699   -1.276913
     19          1           0       -2.428452   -0.982684    0.291307
     20          1           0       -4.992182   -0.558493   -1.321246
     21          1           0       -4.900638   -1.354286    0.245895
     22          1           0       -3.411930   -3.130191   -0.737255
     23          1           0       -3.503994   -2.329876   -2.313300
     24          1           0       -4.957085   -3.051013   -1.600701
     25          6           0       -3.366150    0.957515    0.341895
     26          6           0       -2.102997    1.753325    0.672220
     27          6           0       -2.405856    3.082382    1.364806
     28          1           0       -4.017413    1.566592   -0.300192
     29          1           0       -3.926766    0.770607    1.268027
     30          1           0       -1.545226    1.938195   -0.254781
     31          1           0       -1.453683    1.142400    1.312360
     32          1           0       -2.941871    2.913785    2.304415
     33          1           0       -3.033934    3.714100    0.728369
     34          1           0       -1.488780    3.634921    1.591815
 ---------------------------------------------------------------------

 SCF Done:  E(RHF) =  -669.535136667     A.U. after   15 cycles
 E2 =    -0.2093000757D+01 EUMP2 =    -0.67162813742386D+03

 The electronic state is 1-A.
 Alpha  occ. eigenvalues --  -20.60708 -20.60703 -15.85756 -11.31062 -11.27668
 Alpha  occ. eigenvalues --  -11.27546 -11.27413 -11.26676 -11.26640 -11.22200
 Alpha  occ. eigenvalues --  -11.22117 -11.22045 -11.21902 -11.21521 -11.21343
 Alpha  occ. eigenvalues --   -1.59781  -1.39336  -1.19251  -1.09004  -1.08663
 Alpha  occ. eigenvalues --   -1.04653  -1.04016  -0.96436  -0.95501  -0.87456
 Alpha  occ. eigenvalues --   -0.86054  -0.82345  -0.80136  -0.78903  -0.77341
 Alpha  occ. eigenvalues --   -0.71978  -0.71103  -0.70368  -0.65657  -0.64902
 Alpha  occ. eigenvalues --   -0.64657  -0.62034  -0.61403  -0.59787  -0.58063
 Alpha  occ. eigenvalues --   -0.55722  -0.55175  -0.53120  -0.53003  -0.52919
 Alpha  occ. eigenvalues --   -0.52660  -0.50378  -0.48740  -0.48733  -0.48376
 Alpha  occ. eigenvalues --   -0.47144  -0.46348  -0.46273  -0.44753  -0.44283
 Alpha  occ. eigenvalues --   -0.37247  -0.36243
 Alpha virt. eigenvalues --    0.05127   0.11380   0.16574   0.19557   0.22811
 Alpha virt. eigenvalues --    0.23839   0.24431   0.25631   0.27472   0.28329
 Alpha virt. eigenvalues --    0.29635   0.30762   0.31360   0.31553   0.31980

 Mulliken charges:
               1
     1  C   -0.170695
     2  C   -0.226584
     3  C   -0.178556
     4  C    0.156838
     5  C   -0.169918
     6  C   -0.219353
     7  H    0.225183
     8  H    0.226399
     9  H    0.290409
    10  H    0.275149
    11  H    0.222959
    12  N    0.487644
    13  O   -0.460657
    14  O   -0.461836
    15  C   -0.302472
    16  C   -0.299829
    17  C   -0.475752
    18  H    0.154779
    19  H    0.140100
    20  H    0.155580
    21  H    0.152049
    22  H    0.151827
    23  H    0.157973
    24  H    0.162235
    25  C   -0.297169
    26  C   -0.313172
    27  C   -0.474999
    28  H    0.154588
    29  H    0.149918
    30  H    0.164250
    31  H    0.142987
    32  H    0.154349
    33  H    0.159009
    34  H    0.166767
 Sum of Mulliken charges =  -0.00000

 Dipole moment (field-independent basis, Debye):
    X=             -1.4605    Y=             -4.0168    Z=              2.7512  Tot=              5.0831
 Quadrupole moment (field-independent basis, Debye-Ang):
   XX=            -96.4134   YY=            -94.8345   ZZ=            -95.6868
   XY=            -12.9292   XZ=              7.5464   YZ=             -0.2968

 Normal termination of Gaussian 16 at Thu May  6 10:45:02 2021.
