 Gaussian 16, Revision A.03,
 Gaussian 16:  EM64L-G16RevA.03 25-Dec-2016

 -------------
 #p 6-31g* mp2
 -------------

 ------------------------------------------------------
 Input file generated by CHIRIPA (05-May-2021 14:51:12)
 ------------------------------------------------------
 Symbolic Z-matrix:
 Charge =  0 Multiplicity = 1

                         Standard orientation:
 ---------------------------------------------------------------------
 Center     Atomic      Atomic             Coordinates (Angstroms)
 Number     Number       Type             X           Y           Z
 ---------------------------------------------------------------------
      1          6           0       -1.903529    1.313862   -0.550870
      2          6           0       -1.303921    2.645072   -0.096630
      3          6           0       -0.621727    3.405077   -1.234523
      4          1           0       -1.109947    0.690930   -0.985760
      5          1           0       -2.629134    1.501682   -1.354372
      6          1           0       -0.580678    2.454929    0.706726
      7          1           0       -2.098986    3.264832    0.337403
      8          1           0       -1.336367    3.623717   -2.034577
      9          1           0        0.190567    2.809213   -1.663155
     10          1           0       -0.200113    4.353645   -0.887650
     11          6           0       -2.589017    0.542431    0.575508
     12          6           0       -3.188625   -0.788780    0.121268
     13          6           0       -3.870819   -1.548784    1.259161
     14          1           0       -1.863412    0.354610    1.379010
     15          1           0       -3.382598    1.165363    1.010398
     16          1           0       -2.393560   -1.408539   -0.312765
     17          1           0       -3.911867   -0.598637   -0.682088
     18          1           0       -4.683113   -0.952920    1.687793
     19          1           0       -3.156178   -1.767425    2.059215
     20          1           0       -4.292433   -2.497352    0.912288
     21          6           0        2.331684   -0.236463    0.300269
     22          6           0        3.793516    0.189806    0.439294
     23          6           0        3.948085    1.575741    1.066262
     24          1           0        1.796549    0.504853   -0.308849
     25          1           0        1.858272   -0.226692    1.291824
     26          1           0        4.264400    0.177899   -0.552040
     27          1           0        4.325278   -0.552712    1.047992
     28          1           0        3.503908    1.597711    2.066674
     29          1           0        3.442685    2.332472    0.457551
     30          1           0        5.001020    1.860512    1.156233
     31          6           0        2.160861   -1.619830   -0.324907
     32          6           0        0.699030   -2.046099   -0.463932
     33          6           0        0.544460   -3.432032   -1.090900
     34          1           0        2.634273   -1.629600   -1.316462
     35          1           0        2.695997   -2.361146    0.284210
     36          1           0        0.167267   -1.303581   -1.072630
     37          1           0        0.228146   -2.034192    0.527401
     38          1           0        1.049861   -4.188765   -0.482190
     39          1           0        0.988637   -3.454003   -2.091312
     40          1           0       -0.508474   -3.716803   -1.180871
 ---------------------------------------------------------------------

 SCF Done:  E(RHF) =  -470.732894575     A.U. after   11 cycles
 E2 =    -0.1584943942D+01 EUMP2 =    -0.47231783851626D+03

 The electronic state is 1-A.
 Alpha  occ. eigenvalues --  -11.21692 -11.21669 -11.21559 -11.21512 -11.21502
 Alpha  occ. eigenvalues --  -11.21442 -11.21342 -11.21282 -11.21153 -11.21116
 Alpha  occ. eigenvalues --  -11.21086 -11.21037  -1.08542  -1.08362  -1.03621
 Alpha  occ. eigenvalues --   -1.03483  -0.96057  -0.95947  -0.87072  -0.86964
 Alpha  occ. eigenvalues --   -0.79706  -0.79547  -0.78428  -0.78117  -0.65251
 Alpha  occ. eigenvalues --   -0.64931  -0.61015  -0.60917  -0.59430  -0.59296
 Alpha  occ. eigenvalues --   -0.57663  -0.57558  -0.55354  -0.55231  -0.52750
 Alpha  occ. eigenvalues --   -0.52642  -0.52488  -0.52366  -0.50015  -0.49880
 Alpha  occ. eigenvalues --   -0.48064  -0.47862  -0.46810  -0.46583  -0.46268
 Alpha  occ. eigenvalues --   -0.45857  -0.45632  -0.45091  -0.43862  -0.43737
 Alpha virt. eigenvalues --    0.19679   0.21637   0.23725   0.24032   0.25794
 Alpha virt. eigenvalues --    0.25981   0.26854   0.27451   0.28549   0.29981
 Alpha virt. eigenvalues --    0.30969   0.31074   0.31610   0.31754   0.32438

 Mulliken charges:
               1
     1  C   -0.305473
     2  C   -0.299984
     3  C   -0.476803
     4  H    0.156335
     5  H    0.148949
     6  H    0.153515
     7  H    0.151852
     8  H    0.155343
     9  H    0.154381
    10  H    0.160460
    11  C   -0.297540
    12  C   -0.306384
    13  C   -0.475491
    14  H    0.149688
    15  H    0.149361
    16  H    0.159957
    17  H    0.151219
    18  H    0.155067
    19  H    0.154564
    20  H    0.159828
    21  C   -0.301988
    22  C   -0.299663
    23  C   -0.476134
    24  H    0.152331
    25  H    0.149330
    26  H    0.152207
    27  H    0.152329
    28  H    0.155122
    29  H    0.155823
    30  H    0.160609
    31  C   -0.297977
    32  C   -0.307500
    33  C   -0.477096
    34  H    0.149740
    35  H    0.150135
    36  H    0.158393
    37  H    0.152670
    38  H    0.155729
    39  H    0.155638
    40  H    0.161459
 Sum of Mulliken charges =  -0.00000

 Dipole moment (field-independent basis, Debye):
    X=              0.0487    Y=             -0.0269    Z=             -0.0065  Tot=              0.0560
 Quadrupole moment (field-independent basis, Debye-Ang):
   XX=            -84.4244   YY=            -85.7864   ZZ=            -84.5835
   XY=             -1.0735   XZ=              0.5067   YZ=             -0.4011

 Normal termination of Gaussian 16 at Thu May  6 05:30:42 2021.
