 Gaussian 16, Revision A.03,
 Gaussian 16:  EM64L-G16RevA.03 25-Dec-2016

 -------------
 #p 6-31g* mp2
 -------------

 ------------------------------------------------------
 Input file generated by CHIRIPA (05-May-2021 14:55:19)
 ------------------------------------------------------
 Symbolic Z-matrix:
 Charge =  0 Multiplicity = 1

                         Standard orientation:
 ---------------------------------------------------------------------
 Center     Atomic      Atomic             Coordinates (Angstroms)
 Number     Number       Type             X           Y           Z
 ---------------------------------------------------------------------
      1          6           0       -4.525475   -1.679430    0.123335
      2          6           0       -4.323418   -1.000722   -1.082919
      3          6           0       -3.498725    0.127049   -1.133546
      4          6           0       -2.889039    0.550468    0.046407
      5          6           0       -3.070663   -0.104393    1.263559
      6          6           0       -3.899556   -1.229893    1.290666
      7          1           0       -5.167748   -2.554628    0.153527
      8          1           0       -4.808226   -1.347576   -1.991048
      9          1           0       -3.324924    0.671323   -2.053859
     10          1           0       -2.573803    0.265212    2.152345
     11          1           0       -4.054655   -1.755012    2.228876
     12          7           0       -2.013750    1.743186    0.005260
     13          8           0       -1.488081    2.096089    1.058716
     14          8           0       -1.869942    2.302551   -1.079667
     15          6           0        3.158049   -0.367266    0.157925
     16          6           0        2.178675   -1.273341   -0.588963
     17          6           0        0.733105   -1.090310   -0.125690
     18          1           0        3.088075   -0.571498    1.235115
     19          1           0        2.857100    0.680256    0.018199
     20          1           0        2.482183   -2.318765   -0.449012
     21          1           0        2.251126   -1.067063   -1.664517
     22          1           0        0.406758   -0.056860   -0.280871
     23          1           0        0.639128   -1.315676    0.941540
     24          1           0        0.049961   -1.747572   -0.672665
     25          6           0        4.607194   -0.538702   -0.294088
     26          6           0        5.586566    0.367372    0.452800
     27          6           0        7.032136    0.184341   -0.010473
     28          1           0        4.908142   -1.586224   -0.154362
     29          1           0        4.677167   -0.334470   -1.371278
     30          1           0        5.514115    0.161094    1.528354
     31          1           0        5.283058    1.412797    0.312849
     32          1           0        7.126113    0.409707   -1.077702
     33          1           0        7.358483   -0.849108    0.144708
     34          1           0        7.715280    0.841603    0.536502
 ---------------------------------------------------------------------

 SCF Done:  E(RHF) =  -669.535808569     A.U. after   15 cycles
 E2 =    -0.2091649671D+01 EUMP2 =    -0.67162745824003D+03

 The electronic state is 1-A.
 Alpha  occ. eigenvalues --  -20.60791 -20.60785 -15.85831 -11.31166 -11.27737
 Alpha  occ. eigenvalues --  -11.27733 -11.27482 -11.26753 -11.26741 -11.21259
 Alpha  occ. eigenvalues --  -11.21209 -11.20995 -11.20887 -11.20771 -11.20746
 Alpha  occ. eigenvalues --   -1.59869  -1.39420  -1.19339  -1.08745  -1.08030
 Alpha  occ. eigenvalues --   -1.04740  -1.03172  -0.95628  -0.95585  -0.86652
 Alpha  occ. eigenvalues --   -0.86140  -0.82419  -0.79242  -0.77831  -0.77469
 Alpha  occ. eigenvalues --   -0.72057  -0.71203  -0.70455  -0.64997  -0.64750
 Alpha  occ. eigenvalues --   -0.64655  -0.62091  -0.60566  -0.58995  -0.57231
 Alpha  occ. eigenvalues --   -0.55251  -0.54907  -0.53113  -0.52838  -0.52297
 Alpha  occ. eigenvalues --   -0.52047  -0.49568  -0.48816  -0.48813  -0.47557
 Alpha  occ. eigenvalues --   -0.46262  -0.45388  -0.45287  -0.44817  -0.43419
 Alpha  occ. eigenvalues --   -0.37304  -0.36335
 Alpha virt. eigenvalues --    0.05061   0.11301   0.16554   0.21418   0.23264
 Alpha virt. eigenvalues --    0.24600   0.27033   0.27302   0.27716   0.28107
 Alpha virt. eigenvalues --    0.28491   0.30915   0.31576   0.32087   0.32192

 Mulliken charges:
               1
     1  C   -0.170733
     2  C   -0.218847
     3  C   -0.171242
     4  C    0.159865
     5  C   -0.169817
     6  C   -0.218644
     7  H    0.225436
     8  H    0.223257
     9  H    0.275442
    10  H    0.275643
    11  H    0.223275
    12  N    0.488397
    13  O   -0.459556
    14  O   -0.460726
    15  C   -0.299525
    16  C   -0.299234
    17  C   -0.479272
    18  H    0.148565
    19  H    0.157681
    20  H    0.148819
    21  H    0.152428
    22  H    0.162119
    23  H    0.152727
    24  H    0.156261
    25  C   -0.298233
    26  C   -0.299753
    27  C   -0.475547
    28  H    0.147137
    29  H    0.149564
    30  H    0.151334
    31  H    0.154603
    32  H    0.155011
    33  H    0.153744
    34  H    0.159824
 Sum of Mulliken charges =  -0.00000

 Dipole moment (field-independent basis, Debye):
    X=             -3.1364    Y=             -4.1173    Z=              0.1580  Tot=              5.1782
 Quadrupole moment (field-independent basis, Debye-Ang):
   XX=            -78.9536   YY=            -99.7321   ZZ=            -89.5241
   XY=             10.7931   XZ=              0.7530   YZ=             -1.2168

 Normal termination of Gaussian 16 at Thu May  6 10:48:21 2021.
