 Gaussian 16, Revision A.03,
 Gaussian 16:  EM64L-G16RevA.03 25-Dec-2016

 -------------
 #p 6-31g* mp2
 -------------

 ------------------------------------------------------
 Input file generated by CHIRIPA (05-May-2021 14:53:15)
 ------------------------------------------------------
 Symbolic Z-matrix:
 Charge =  0 Multiplicity = 1

                         Standard orientation:
 ---------------------------------------------------------------------
 Center     Atomic      Atomic             Coordinates (Angstroms)
 Number     Number       Type             X           Y           Z
 ---------------------------------------------------------------------
      1          6           0        3.425097   -0.346431   -0.143655
      2          6           0        4.681436   -1.204564    0.008685
      3          6           0        4.374635   -2.702202    0.036071
      4          1           0        2.736281   -0.565990    0.683552
      5          1           0        2.904373   -0.631949   -1.068166
      6          1           0        5.200371   -0.916559    0.931926
      7          1           0        5.367424   -0.982798   -0.818876
      8          1           0        3.877535   -3.010590   -0.889342
      9          1           0        3.709534   -2.943975    0.871408
     10          1           0        5.286856   -3.296941    0.145612
     11          6           0        3.715532    1.153080   -0.172674
     12          6           0        2.459194    2.011213   -0.325013
     13          6           0        2.765995    3.508850   -0.352400
     14          1           0        4.236257    1.438597    0.751838
     15          1           0        4.404349    1.372638   -0.999880
     16          1           0        1.773206    1.789446    0.502547
     17          1           0        1.940259    1.723208   -1.248254
     18          1           0        3.431096    3.750624   -1.187736
     19          1           0        3.263095    3.817238    0.573013
     20          1           0        1.853774    4.103589   -0.461940
     21          6           0       -0.462463   -1.158135    0.614483
     22          6           0       -1.289309   -1.859773   -0.269005
     23          6           0       -2.580376   -1.401928   -0.548420
     24          6           0       -3.014259   -0.233595    0.076106
     25          6           0       -2.214206    0.487671    0.960967
     26          6           0       -0.926732    0.011286    1.225572
     27          1           0        0.539073   -1.521001    0.825787
     28          1           0       -0.931404   -2.768257   -0.745035
     29          1           0       -3.241452   -1.925518   -1.228310
     30          1           0       -2.598934    1.390165    1.420214
     31          1           0       -0.286790    0.558241    1.912128
     32          7           0       -4.379152    0.260918   -0.211859
     33          8           0       -4.737807    1.292863    0.351252
     34          8           0       -5.064456   -0.392790   -0.995225
 ---------------------------------------------------------------------

 SCF Done:  E(RHF) =  -669.535230303     A.U. after   15 cycles
 E2 =    -0.2092295038D+01 EUMP2 =    -0.67162752534065D+03

 The electronic state is 1-A.
 Alpha  occ. eigenvalues --  -20.60720 -20.60714 -15.85774 -11.31123 -11.27703
 Alpha  occ. eigenvalues --  -11.27699 -11.27388 -11.26705 -11.26687 -11.22536
 Alpha  occ. eigenvalues --  -11.22471 -11.22349 -11.22208 -11.22050 -11.21648
 Alpha  occ. eigenvalues --   -1.59796  -1.39350  -1.19298  -1.09347  -1.08686
 Alpha  occ. eigenvalues --   -1.04704  -1.04363  -0.96825  -0.95527  -0.87835
 Alpha  occ. eigenvalues --   -0.86100  -0.82369  -0.80434  -0.79187  -0.77416
 Alpha  occ. eigenvalues --   -0.71992  -0.71120  -0.70405  -0.65988  -0.64947
 Alpha  occ. eigenvalues --   -0.64702  -0.62071  -0.61744  -0.60192  -0.58442
 Alpha  occ. eigenvalues --   -0.56143  -0.55201  -0.53479  -0.53233  -0.53023
 Alpha  occ. eigenvalues --   -0.52798  -0.50763  -0.48795  -0.48748  -0.48692
 Alpha  occ. eigenvalues --   -0.47470  -0.46696  -0.46608  -0.44759  -0.44639
 Alpha  occ. eigenvalues --   -0.37241  -0.36301
 Alpha virt. eigenvalues --    0.05115   0.11242   0.16565   0.19323   0.22656
 Alpha virt. eigenvalues --    0.22845   0.24982   0.26306   0.26749   0.27425
 Alpha virt. eigenvalues --    0.29351   0.30366   0.30994   0.31446   0.31738

 Mulliken charges:
               1
     1  C   -0.300753
     2  C   -0.299729
     3  C   -0.477050
     4  H    0.139269
     5  H    0.151657
     6  H    0.154247
     7  H    0.156210
     8  H    0.154986
     9  H    0.150113
    10  H    0.165347
    11  C   -0.298852
    12  C   -0.300406
    13  C   -0.476694
    14  H    0.150650
    15  H    0.153613
    16  H    0.145319
    17  H    0.156217
    18  H    0.157618
    19  H    0.155242
    20  H    0.163302
    21  C   -0.171443
    22  C   -0.220546
    23  C   -0.170681
    24  C    0.158067
    25  C   -0.171477
    26  C   -0.219106
    27  H    0.231507
    28  H    0.223516
    29  H    0.275284
    30  H    0.275318
    31  H    0.222534
    32  N    0.488097
    33  O   -0.460695
    34  O   -0.460679
 Sum of Mulliken charges =  -0.00000

 Dipole moment (field-independent basis, Debye):
    X=              5.0196    Y=             -1.6789    Z=              0.9085  Tot=              5.3704
 Quadrupole moment (field-independent basis, Debye-Ang):
   XX=           -123.5829   YY=            -92.2287   ZZ=            -92.1850
   XY=              4.7979   XZ=             -2.5467   YZ=              2.4313

 Normal termination of Gaussian 16 at Wed May  5 21:55:42 2021.
