 Gaussian 16, Revision A.03,
 Gaussian 16:  EM64L-G16RevA.03 25-Dec-2016

 -------------
 #p 6-31g* mp2
 -------------

 ------------------------------------------------------
 Input file generated by CHIRIPA (05-May-2021 14:57:27)
 ------------------------------------------------------
 Symbolic Z-matrix:
 Charge =  0 Multiplicity = 1

                         Standard orientation:
 ---------------------------------------------------------------------
 Center     Atomic      Atomic             Coordinates (Angstroms)
 Number     Number       Type             X           Y           Z
 ---------------------------------------------------------------------
      1          6           0       -3.278824    1.853348   -0.799950
      2          6           0       -3.982964    1.000806    0.056717
      3          6           0       -3.435801   -0.225676    0.445180
      4          6           0       -2.176569   -0.569473   -0.044133
      5          6           0       -1.450340    0.258300   -0.898927
      6          6           0       -2.016984    1.480032   -1.274202
      7          1           0       -3.711441    2.804264   -1.096596
      8          1           0       -4.963114    1.288124    0.426582
      9          1           0       -3.959148   -0.904777    1.107259
     10          1           0       -0.475255   -0.055544   -1.251249
     11          1           0       -1.467857    2.140127   -1.939619
     12          7           0       -1.587000   -1.865380    0.360134
     13          8           0       -0.475946   -2.145108   -0.084779
     14          8           0       -2.247114   -2.576847    1.114258
     15          6           0        1.681522    2.502079    1.297810
     16          6           0        1.832642    2.489942   -0.092707
     17          6           0        2.160649    1.306552   -0.760948
     18          6           0        2.330991    0.148406   -0.003998
     19          6           0        2.187277    0.128394    1.382449
     20          6           0        1.859009    1.323345    2.029660
     21          1           0        1.426616    3.425856    1.808746
     22          1           0        1.695404    3.403859   -0.663642
     23          1           0        2.283688    1.268828   -1.836521
     24          1           0        2.330411   -0.798488    1.924502
     25          1           0        1.742280    1.329801    3.109649
     26          7           0        2.678376   -1.110515   -0.700303
     27          8           0        2.823104   -2.117466   -0.010563
     28          8           0        2.799350   -1.066468   -1.922621
 ---------------------------------------------------------------------

 SCF Done:  E(RHF) =  -868.336336358     A.U. after   16 cycles
 E2 =    -0.2604742073D+01 EUMP2 =    -0.87094107843047D+03

 The electronic state is 1-A.
 Alpha  occ. eigenvalues --  -20.60708 -20.60670 -20.60309 -20.60195 -15.85727
 Alpha  occ. eigenvalues --  -15.85304 -11.31180 -11.31085 -11.27796 -11.27784
 Alpha  occ. eigenvalues --  -11.27737 -11.27594 -11.27588 -11.27521 -11.26908
 Alpha  occ. eigenvalues --  -11.26842 -11.26830 -11.26750  -1.59758  -1.59285
 Alpha  occ. eigenvalues --   -1.39313  -1.38839  -1.19401  -1.19300  -1.08774
 Alpha  occ. eigenvalues --   -1.08613  -1.04849  -1.04739  -0.95588  -0.95379
 Alpha  occ. eigenvalues --   -0.86235  -0.86123  -0.82431  -0.82214  -0.77484
 Alpha  occ. eigenvalues --   -0.77182  -0.72046  -0.71539  -0.71112  -0.70539
 Alpha  occ. eigenvalues --   -0.70432  -0.70382  -0.65041  -0.64957  -0.64837
 Alpha  occ. eigenvalues --   -0.64764  -0.62217  -0.62072  -0.55354  -0.55242
 Alpha  occ. eigenvalues --   -0.53428  -0.53020  -0.52859  -0.52655  -0.48718
 Alpha  occ. eigenvalues --   -0.48702  -0.48330  -0.48254  -0.44767  -0.44059
 Alpha  occ. eigenvalues --   -0.37427  -0.37244  -0.36688  -0.36102
 Alpha virt. eigenvalues --    0.05076   0.05376   0.10966   0.11399   0.16429
 Alpha virt. eigenvalues --    0.16865   0.20830   0.21719   0.26351   0.27862
 Alpha virt. eigenvalues --    0.27996   0.28548   0.30094   0.31370   0.32244

 Mulliken charges:
               1
     1  C   -0.171859
     2  C   -0.219458
     3  C   -0.171095
     4  C    0.156168
     5  C   -0.166100
     6  C   -0.219763
     7  H    0.223692
     8  H    0.222618
     9  H    0.275441
    10  H    0.278447
    11  H    0.218226
    12  N    0.489133
    13  O   -0.458317
    14  O   -0.460864
    15  C   -0.171007
    16  C   -0.217126
    17  C   -0.188050
    18  C    0.163525
    19  C   -0.167505
    20  C   -0.219154
    21  H    0.223903
    22  H    0.218582
    23  H    0.272549
    24  H    0.282665
    25  H    0.224678
    26  N    0.494587
    27  O   -0.445619
    28  O   -0.468297
 Sum of Mulliken charges =  -0.00000

 Dipole moment (field-independent basis, Debye):
    X=             -3.1550    Y=              8.5856    Z=              1.2500  Tot=              9.2320
 Quadrupole moment (field-independent basis, Debye-Ang):
   XX=            -99.3427   YY=           -108.5338   ZZ=           -100.2155
   XY=              1.6955   XZ=              6.8999   YZ=             -2.0187

 Normal termination of Gaussian 16 at Thu May  6 22:58:21 2021.
