 Gaussian 16, Revision A.03,
 Gaussian 16:  EM64L-G16RevA.03 25-Dec-2016

 -------------
 #p 6-31g* mp2
 -------------

 ------------------------------------------------------
 Input file generated by CHIRIPA (05-May-2021 14:57:22)
 ------------------------------------------------------
 Symbolic Z-matrix:
 Charge =  0 Multiplicity = 1

                         Standard orientation:
 ---------------------------------------------------------------------
 Center     Atomic      Atomic             Coordinates (Angstroms)
 Number     Number       Type             X           Y           Z
 ---------------------------------------------------------------------
      1          6           0       -0.578204   -0.853765   -1.331329
      2          6           0       -0.723414    0.494143   -0.986976
      3          6           0       -1.916276    0.958905   -0.425170
      4          6           0       -2.948093    0.044138   -0.220614
      5          6           0       -2.833936   -1.304817   -0.553151
      6          6           0       -1.632070   -1.747368   -1.113701
      7          1           0        0.351937   -1.206177   -1.767265
      8          1           0        0.093351    1.190387   -1.154853
      9          1           0       -2.055622    1.997116   -0.149274
     10          1           0       -3.665841   -1.975040   -0.373843
     11          1           0       -1.522121   -2.794726   -1.380154
     12          7           0       -4.215688    0.524404    0.373479
     13          8           0       -5.109765   -0.301625    0.543596
     14          8           0       -4.291150    1.717771    0.657764
     15          6           0        3.159695    2.447928   -0.287230
     16          6           0        3.771070    1.425415   -1.020175
     17          6           0        3.545281    0.084957   -0.693462
     18          6           0        2.698524   -0.198255    0.377091
     19          6           0        2.074769    0.798110    1.126407
     20          6           0        2.314986    2.131570    0.781837
     21          1           0        3.340697    3.486510   -0.547965
     22          1           0        4.427558    1.668144   -1.850928
     23          1           0        4.005679   -0.726394   -1.244062
     24          1           0        1.425369    0.524976    1.949265
     25          1           0        1.838832    2.923597    1.352816
     26          7           0        2.451855   -1.613634    0.732419
     27          8           0        1.701622   -1.836829    1.680033
     28          8           0        3.013419   -2.473011    0.056584
 ---------------------------------------------------------------------

 SCF Done:  E(RHF) =  -868.337439957     A.U. after   16 cycles
 E2 =    -0.2603693145D+01 EUMP2 =    -0.87094113310190D+03

 The electronic state is 1-A.
 Alpha  occ. eigenvalues --  -20.61723 -20.61663 -20.60651 -20.60632 -15.86730
 Alpha  occ. eigenvalues --  -15.85691 -11.32152 -11.30995 -11.28793 -11.28685
 Alpha  occ. eigenvalues --  -11.28511 -11.27779 -11.27710 -11.27560 -11.27460
 Alpha  occ. eigenvalues --  -11.27196 -11.26515 -11.26462  -1.60769  -1.59719
 Alpha  occ. eigenvalues --   -1.40315  -1.39275  -1.20392  -1.19128  -1.09751
 Alpha  occ. eigenvalues --   -1.08538  -1.05774  -1.04517  -0.96560  -0.95396
 Alpha  occ. eigenvalues --   -0.87143  -0.85918  -0.83371  -0.82229  -0.78410
 Alpha  occ. eigenvalues --   -0.77293  -0.72943  -0.72172  -0.71911  -0.71427
 Alpha  occ. eigenvalues --   -0.71039  -0.70205  -0.65997  -0.65719  -0.64782
 Alpha  occ. eigenvalues --   -0.64539  -0.63074  -0.61900  -0.56231  -0.55029
 Alpha  occ. eigenvalues --   -0.54260  -0.53811  -0.52814  -0.52463  -0.49720
 Alpha  occ. eigenvalues --   -0.49698  -0.48676  -0.48657  -0.45695  -0.44696
 Alpha  occ. eigenvalues --   -0.38504  -0.37620  -0.36903  -0.35910
 Alpha virt. eigenvalues --    0.04003   0.05288   0.10017   0.11705   0.15517
 Alpha virt. eigenvalues --    0.16772   0.20541   0.21710   0.26430   0.27463
 Alpha virt. eigenvalues --    0.27591   0.28158   0.30293   0.30970   0.31853

 Mulliken charges:
               1
     1  C   -0.177698
     2  C   -0.220283
     3  C   -0.177106
     4  C    0.160049
     5  C   -0.170999
     6  C   -0.212170
     7  H    0.226727
     8  H    0.225732
     9  H    0.270117
    10  H    0.276001
    11  H    0.228368
    12  N    0.488107
    13  O   -0.459233
    14  O   -0.463552
    15  C   -0.173314
    16  C   -0.219976
    17  C   -0.177265
    18  C    0.154010
    19  C   -0.166968
    20  C   -0.226862
    21  H    0.230078
    22  H    0.227082
    23  H    0.277081
    24  H    0.281614
    25  H    0.228710
    26  N    0.487875
    27  O   -0.452849
    28  O   -0.463276
 Sum of Mulliken charges =  -0.00000

 Dipole moment (field-independent basis, Debye):
    X=              5.4829    Y=              3.1793    Z=             -3.2011  Tot=              7.1005
 Quadrupole moment (field-independent basis, Debye-Ang):
   XX=           -124.9764   YY=           -102.5425   ZZ=           -103.0344
   XY=             20.3209   XZ=             -0.1516   YZ=              4.0417

 Normal termination of Gaussian 16 at Fri May  7 00:14:08 2021.
