 Gaussian 16, Revision A.03,
 Gaussian 16:  EM64L-G16RevA.03 25-Dec-2016

 -------------
 #p 6-31g* mp2
 -------------

 ------------------------------------------------------
 Input file generated by CHIRIPA (05-May-2021 14:55:19)
 ------------------------------------------------------
 Symbolic Z-matrix:
 Charge =  0 Multiplicity = 1

                         Standard orientation:
 ---------------------------------------------------------------------
 Center     Atomic      Atomic             Coordinates (Angstroms)
 Number     Number       Type             X           Y           Z
 ---------------------------------------------------------------------
      1          6           0        4.533682    0.905949    0.325400
      2          6           0        3.451553    1.426981   -0.391569
      3          6           0        2.320556    0.643352   -0.639199
      4          6           0        2.305318   -0.663057   -0.153036
      5          6           0        3.367618   -1.210763    0.564477
      6          6           0        4.488341   -0.408941    0.800297
      7          1           0        5.408277    1.521757    0.513178
      8          1           0        3.483996    2.447805   -0.761584
      9          1           0        1.468821    1.021490   -1.191446
     10          1           0        3.306102   -2.231927    0.920647
     11          1           0        5.327270   -0.816225    1.357398
     12          7           0        1.113421   -1.502280   -0.408940
     13          8           0        1.124626   -2.650224    0.030075
     14          8           0        0.190575   -0.996227   -1.043687
     15          6           0       -2.884639    1.270143    0.494587
     16          6           0       -2.006143    2.119491   -0.424564
     17          6           0       -1.377773    3.313006    0.295482
     18          1           0       -3.676360    1.901462    0.920682
     19          1           0       -2.280669    0.912932    1.340174
     20          1           0       -2.611249    2.473851   -1.268893
     21          1           0       -1.216535    1.486032   -0.848670
     22          1           0       -0.751000    2.974880    1.127003
     23          1           0       -2.153639    3.968311    0.704393
     24          1           0       -0.753897    3.906451   -0.380138
     25          6           0       -3.519859    0.073199   -0.210784
     26          6           0       -4.398354   -0.776148    0.708367
     27          6           0       -5.026725   -1.969664   -0.011679
     28          1           0       -4.123828    0.430410   -1.056371
     29          1           0       -2.728137   -0.558120   -0.636879
     30          1           0       -5.187962   -0.142690    1.132473
     31          1           0       -3.793248   -1.130509    1.552696
     32          1           0       -4.250858   -2.624970   -0.420590
     33          1           0       -5.653497   -1.631538   -0.843201
     34          1           0       -5.650600   -2.563109    0.663941
 ---------------------------------------------------------------------

 SCF Done:  E(RHF) =  -669.536507227     A.U. after   15 cycles
 E2 =    -0.2092403428D+01 EUMP2 =    -0.67162891065432D+03

 The electronic state is 1-A.
 Alpha  occ. eigenvalues --  -20.61088 -20.61082 -15.86101 -11.31352 -11.27907
 Alpha  occ. eigenvalues --  -11.27898 -11.27630 -11.26900 -11.26886 -11.20937
 Alpha  occ. eigenvalues --  -11.20843 -11.20612 -11.20575 -11.20149 -11.20097
 Alpha  occ. eigenvalues --   -1.60138  -1.39697  -1.19514  -1.08932  -1.07535
 Alpha  occ. eigenvalues --   -1.04898  -1.02772  -0.95786  -0.95232  -0.86304
 Alpha  occ. eigenvalues --   -0.86250  -0.82624  -0.78847  -0.77706  -0.77275
 Alpha  occ. eigenvalues --   -0.72333  -0.71444  -0.70623  -0.65177  -0.64906
 Alpha  occ. eigenvalues --   -0.64131  -0.62253  -0.60159  -0.58646  -0.56837
 Alpha  occ. eigenvalues --   -0.55406  -0.54517  -0.53231  -0.52987  -0.51987
 Alpha  occ. eigenvalues --   -0.51664  -0.49321  -0.49080  -0.48942  -0.47153
 Alpha  occ. eigenvalues --   -0.45854  -0.45248  -0.44863  -0.44507  -0.42974
 Alpha  occ. eigenvalues --   -0.37489  -0.36493
 Alpha virt. eigenvalues --    0.04798   0.11135   0.16293   0.20727   0.23499
 Alpha virt. eigenvalues --    0.24648   0.26659   0.27461   0.27825   0.28721
 Alpha virt. eigenvalues --    0.29282   0.30702   0.31624   0.32150   0.32233

 Mulliken charges:
               1
     1  C   -0.170209
     2  C   -0.219564
     3  C   -0.171481
     4  C    0.156414
     5  C   -0.170320
     6  C   -0.218730
     7  H    0.226337
     8  H    0.224771
     9  H    0.280259
    10  H    0.275830
    11  H    0.224019
    12  N    0.491465
    13  O   -0.458115
    14  O   -0.464604
    15  C   -0.294192
    16  C   -0.311526
    17  C   -0.475998
    18  H    0.144738
    19  H    0.147534
    20  H    0.149789
    21  H    0.168001
    22  H    0.152434
    23  H    0.155574
    24  H    0.151446
    25  C   -0.309439
    26  C   -0.298341
    27  C   -0.476462
    28  H    0.143961
    29  H    0.177475
    30  H    0.146339
    31  H    0.151936
    32  H    0.162289
    33  H    0.152045
    34  H    0.156327
 Sum of Mulliken charges =  -0.00000

 Dipole moment (field-independent basis, Debye):
    X=              4.4570    Y=              2.7107    Z=              0.8240  Tot=              5.2812
 Quadrupole moment (field-independent basis, Debye-Ang):
   XX=            -75.3267   YY=            -97.1521   ZZ=            -94.6906
   XY=              1.7038   XZ=              3.0354   YZ=             -3.7077

 Normal termination of Gaussian 16 at Thu May  6 06:07:03 2021.
