 Gaussian 16, Revision A.03,
 Gaussian 16:  EM64L-G16RevA.03 25-Dec-2016

 -------------
 #p 6-31g* mp2
 -------------

 ------------------------------------------------------
 Input file generated by CHIRIPA (05-May-2021 14:55:19)
 ------------------------------------------------------
 Symbolic Z-matrix:
 Charge =  0 Multiplicity = 1

                         Standard orientation:
 ---------------------------------------------------------------------
 Center     Atomic      Atomic             Coordinates (Angstroms)
 Number     Number       Type             X           Y           Z
 ---------------------------------------------------------------------
      1          6           0       -1.803021   -2.031547    0.927862
      2          6           0       -3.124844   -1.826761    1.336969
      3          6           0       -3.855491   -0.735492    0.857556
      4          6           0       -3.230316    0.135086   -0.033813
      5          6           0       -1.914964   -0.042025   -0.460159
      6          6           0       -1.203357   -1.140097    0.032183
      7          1           0       -1.242832   -2.881914    1.305303
      8          1           0       -3.593114   -2.517445    2.032471
      9          1           0       -4.880224   -0.553197    1.157735
     10          1           0       -1.475178    0.663632   -1.154462
     11          1           0       -0.176961   -1.296647   -0.287268
     12          7           0       -3.993740    1.293965   -0.548190
     13          8           0       -3.420157    2.046468   -1.332650
     14          8           0       -5.151241    1.427847   -0.157158
     15          6           0        4.189831   -0.655751   -0.153273
     16          6           0        3.106450   -1.539472   -0.772392
     17          6           0        3.553716   -2.991685   -0.942161
     18          1           0        5.088809   -0.692727   -0.783683
     19          1           0        4.476085   -1.068842    0.823871
     20          1           0        2.821341   -1.124059   -1.747461
     21          1           0        2.209882   -1.500236   -0.140536
     22          1           0        3.819268   -3.428668    0.025894
     23          1           0        4.434201   -3.050354   -1.590161
     24          1           0        2.764045   -3.605654   -1.386370
     25          6           0        3.757674    0.798884    0.022811
     26          6           0        4.841055    1.682604    0.641929
     27          6           0        4.393789    3.134818    0.811698
     28          1           0        3.471420    1.211975   -0.954333
     29          1           0        2.858696    0.835860    0.653221
     30          1           0        5.737623    1.643368    0.010074
     31          1           0        5.126165    1.267191    1.617000
     32          1           0        3.513305    3.193487    1.459699
     33          1           0        4.128237    3.571801   -0.156357
     34          1           0        5.183460    3.748787    1.255907
 ---------------------------------------------------------------------

 SCF Done:  E(RHF) =  -669.535623405     A.U. after   15 cycles
 E2 =    -0.2090997589D+01 EUMP2 =    -0.67162662099320D+03

 The electronic state is 1-A.
 Alpha  occ. eigenvalues --  -20.60727 -20.60722 -15.85780 -11.31139 -11.27711
 Alpha  occ. eigenvalues --  -11.27694 -11.27448 -11.26728 -11.26672 -11.22640
 Alpha  occ. eigenvalues --  -11.22114 -11.22035 -11.21954 -11.21945 -11.21360
 Alpha  occ. eigenvalues --   -1.59803  -1.39356  -1.19309  -1.09117  -1.08707
 Alpha  occ. eigenvalues --   -1.04710  -1.04192  -0.96604  -0.95543  -0.87623
 Alpha  occ. eigenvalues --   -0.86112  -0.82375  -0.80302  -0.78911  -0.77418
 Alpha  occ. eigenvalues --   -0.71998  -0.71126  -0.70422  -0.65766  -0.64960
 Alpha  occ. eigenvalues --   -0.64715  -0.62093  -0.61557  -0.60003  -0.58221
 Alpha  occ. eigenvalues --   -0.55874  -0.55217  -0.53320  -0.53045  -0.53034
 Alpha  occ. eigenvalues --   -0.52801  -0.50542  -0.48781  -0.48754  -0.48558
 Alpha  occ. eigenvalues --   -0.47329  -0.46438  -0.46342  -0.44763  -0.44437
 Alpha  occ. eigenvalues --   -0.37295  -0.36312
 Alpha virt. eigenvalues --    0.05109   0.11314   0.16591   0.19941   0.22565
 Alpha virt. eigenvalues --    0.23727   0.25144   0.26246   0.27373   0.28312
 Alpha virt. eigenvalues --    0.28746   0.30259   0.30916   0.31318   0.32067

 Mulliken charges:
               1
     1  C   -0.173173
     2  C   -0.218527
     3  C   -0.171329
     4  C    0.158895
     5  C   -0.173136
     6  C   -0.227307
     7  H    0.225319
     8  H    0.223143
     9  H    0.275393
    10  H    0.276227
    11  H    0.236162
    12  N    0.488024
    13  O   -0.460433
    14  O   -0.460679
    15  C   -0.297396
    16  C   -0.306614
    17  C   -0.475997
    18  H    0.153213
    19  H    0.150845
    20  H    0.153991
    21  H    0.144619
    22  H    0.156349
    23  H    0.160163
    24  H    0.158948
    25  C   -0.299567
    26  C   -0.300153
    27  C   -0.476377
    28  H    0.150686
    29  H    0.148171
    30  H    0.153185
    31  H    0.152359
    32  H    0.156268
    33  H    0.156818
    34  H    0.161911
 Sum of Mulliken charges =  -0.00000

 Dipole moment (field-independent basis, Debye):
    X=              2.9101    Y=             -4.0459    Z=              1.7975  Tot=              5.2980
 Quadrupole moment (field-independent basis, Debye-Ang):
   XX=           -108.3148   YY=            -97.0440   ZZ=            -93.1386
   XY=             15.2380   XZ=             -8.8865   YZ=             -0.9111

 Normal termination of Gaussian 16 at Thu May  6 07:39:31 2021.
