 Gaussian 16, Revision A.03,
 Gaussian 16:  EM64L-G16RevA.03 25-Dec-2016

 -------------
 #p 6-31g* mp2
 -------------

 ------------------------------------------------------
 Input file generated by CHIRIPA (05-May-2021 14:57:26)
 ------------------------------------------------------
 Symbolic Z-matrix:
 Charge =  0 Multiplicity = 1

                         Standard orientation:
 ---------------------------------------------------------------------
 Center     Atomic      Atomic             Coordinates (Angstroms)
 Number     Number       Type             X           Y           Z
 ---------------------------------------------------------------------
      1          6           0        6.214463    0.496568    0.085543
      2          6           0        5.706319   -0.553270    0.857651
      3          6           0        4.340795   -0.852470    0.838401
      4          6           0        3.508280   -0.077886    0.032035
      5          6           0        3.984356    0.974479   -0.748458
      6          6           0        5.353378    1.255753   -0.713638
      7          1           0        7.276594    0.722031    0.106544
      8          1           0        6.372699   -1.144546    1.479242
      9          1           0        3.920759   -1.659585    1.426239
     10          1           0        3.295316    1.546166   -1.358225
     11          1           0        5.745216    2.071662   -1.314306
     12          7           0        2.060809   -0.385147    0.003414
     13          8           0        1.348265    0.312229   -0.715325
     14          8           0        1.666233   -1.317535    0.700263
     15          6           0       -3.272352   -2.399273   -0.539538
     16          6           0       -2.289877   -1.431150   -0.771924
     17          6           0       -2.541745   -0.083730   -0.497022
     18          6           0       -3.792712    0.261832    0.011856
     19          6           0       -4.792056   -0.679399    0.254105
     20          6           0       -4.518110   -2.020975   -0.028167
     21          1           0       -3.068119   -3.443710   -0.755951
     22          1           0       -1.321500   -1.722042   -1.169005
     23          1           0       -1.799217    0.686347   -0.667472
     24          1           0       -5.747843   -0.358875    0.650531
     25          1           0       -5.283006   -2.770673    0.153298
     26          7           0       -4.071040    1.685191    0.306783
     27          8           0       -5.181197    1.963841    0.754600
     28          8           0       -3.173765    2.495220    0.084545
 ---------------------------------------------------------------------

 SCF Done:  E(RHF) =  -868.341039825     A.U. after   16 cycles
 E2 =    -0.2598685803D+01 EUMP2 =    -0.87093972562816D+03

 The electronic state is 1-A.
 Alpha  occ. eigenvalues --  -20.61672 -20.61652 -20.59669 -20.59653 -15.86657
 Alpha  occ. eigenvalues --  -15.84704 -11.31703 -11.29812 -11.28238 -11.28216
 Alpha  occ. eigenvalues --  -11.27922 -11.27181 -11.27160 -11.26459 -11.26150
 Alpha  occ. eigenvalues --  -11.26111 -11.25474 -11.25143  -1.60710  -1.58744
 Alpha  occ. eigenvalues --   -1.40268  -1.38302  -1.19845  -1.17971  -1.09303
 Alpha  occ. eigenvalues --   -1.07438  -1.05197  -1.03297  -0.96190  -0.94303
 Alpha  occ. eigenvalues --   -0.86611  -0.84733  -0.83033  -0.81116  -0.78111
 Alpha  occ. eigenvalues --   -0.76178  -0.72892  -0.71994  -0.70949  -0.70934
 Alpha  occ. eigenvalues --   -0.70063  -0.69102  -0.65501  -0.65199  -0.63616
 Alpha  occ. eigenvalues --   -0.63292  -0.62545  -0.60623  -0.55715  -0.53890
 Alpha  occ. eigenvalues --   -0.53544  -0.53284  -0.51700  -0.51368  -0.49659
 Alpha  occ. eigenvalues --   -0.49625  -0.47695  -0.47667  -0.45736  -0.43763
 Alpha  occ. eigenvalues --   -0.37807  -0.36784  -0.36000  -0.34887
 Alpha virt. eigenvalues --    0.04389   0.06295   0.10876   0.12739   0.15950
 Alpha virt. eigenvalues --    0.17832   0.21036   0.22874   0.26981   0.27874
 Alpha virt. eigenvalues --    0.28903   0.29670   0.30670   0.32138   0.32348

 Mulliken charges:
               1
     1  C   -0.169573
     2  C   -0.218666
     3  C   -0.170275
     4  C    0.157654
     5  C   -0.169906
     6  C   -0.218610
     7  H    0.227678
     8  H    0.224968
     9  H    0.275644
    10  H    0.277330
    11  H    0.225872
    12  N    0.490378
    13  O   -0.467218
    14  O   -0.460715
    15  C   -0.172246
    16  C   -0.216835
    17  C   -0.173328
    18  C    0.156933
    19  C   -0.173324
    20  C   -0.219553
    21  H    0.221093
    22  H    0.234981
    23  H    0.288445
    24  H    0.270463
    25  H    0.217605
    26  N    0.487982
    27  O   -0.465914
    28  O   -0.460863
 Sum of Mulliken charges =  -0.00000

 Dipole moment (field-independent basis, Debye):
    X=              6.7941    Y=             -3.8908    Z=             -0.9838  Tot=              7.8909
 Quadrupole moment (field-independent basis, Debye-Ang):
   XX=            -73.8049   YY=           -105.8252   ZZ=           -103.5368
   XY=             23.5439   XZ=              3.6383   YZ=             -3.6836

 Normal termination of Gaussian 16 at Thu May  6 16:25:32 2021.
