 Gaussian 16, Revision A.03,
 Gaussian 16:  EM64L-G16RevA.03 25-Dec-2016

 -------------
 #p 6-31g* mp2
 -------------

 ------------------------------------------------------
 Input file generated by CHIRIPA (05-May-2021 14:57:21)
 ------------------------------------------------------
 Symbolic Z-matrix:
 Charge =  0 Multiplicity = 1

                         Standard orientation:
 ---------------------------------------------------------------------
 Center     Atomic      Atomic             Coordinates (Angstroms)
 Number     Number       Type             X           Y           Z
 ---------------------------------------------------------------------
      1          6           0        5.899716   -1.438802    0.758642
      2          6           0        6.155501   -0.077918    0.560926
      3          6           0        5.129684    0.787904    0.170286
      4          6           0        3.854197    0.256604   -0.014494
      5          6           0        3.567834   -1.094520    0.174581
      6          6           0        4.608975   -1.941872    0.565179
      7          1           0        6.702547   -2.104220    1.062084
      8          1           0        7.156935    0.315555    0.710434
      9          1           0        5.299892    1.845653    0.010238
     10          1           0        2.559311   -1.457440    0.017774
     11          1           0        4.407414   -2.998312    0.717996
     12          7           0        2.760100    1.163435   -0.428026
     13          8           0        1.645043    0.670611   -0.584258
     14          8           0        3.038320    2.349863   -0.588089
     15          6           0       -6.306007    0.081876    1.028249
     16          6           0       -6.029600   -0.980850    0.161800
     17          6           0       -4.774508   -1.095596   -0.443281
     18          6           0       -3.814919   -0.125421   -0.158256
     19          6           0       -4.059911    0.944993    0.700512
     20          6           0       -5.322015    1.039716    1.294371
     21          1           0       -7.283717    0.163235    1.493932
     22          1           0       -6.791859   -1.726189   -0.046713
     23          1           0       -4.533700   -1.908092   -1.118026
     24          1           0       -3.279796    1.672532    0.888991
     25          1           0       -5.533865    1.866115    1.966851
     26          7           0       -2.482497   -0.236300   -0.792887
     27          8           0       -1.654201    0.631469   -0.525421
     28          8           0       -2.291670   -1.188876   -1.545763
 ---------------------------------------------------------------------

 SCF Done:  E(RHF) =  -868.335028880     A.U. after   16 cycles
 E2 =    -0.2600200142D+01 EUMP2 =    -0.87093522902171D+03

 The electronic state is 1-A.
 Alpha  occ. eigenvalues --  -20.59866 -20.59754 -20.59617 -20.59492 -15.84869
 Alpha  occ. eigenvalues --  -15.84603 -11.30560 -11.30332 -11.27191 -11.27141
 Alpha  occ. eigenvalues --  -11.26982 -11.26978 -11.26906 -11.26783 -11.26273
 Alpha  occ. eigenvalues --  -11.26244 -11.26069 -11.26034  -1.58890  -1.58643
 Alpha  occ. eigenvalues --   -1.38434  -1.38178  -1.18768  -1.18549  -1.08105
 Alpha  occ. eigenvalues --   -1.07884  -1.04217  -1.04002  -0.94883  -0.94645
 Alpha  occ. eigenvalues --   -0.85600  -0.85384  -0.81713  -0.81461  -0.76704
 Alpha  occ. eigenvalues --   -0.76458  -0.71153  -0.70687  -0.70243  -0.69995
 Alpha  occ. eigenvalues --   -0.69874  -0.69655  -0.64410  -0.64229  -0.64178
 Alpha  occ. eigenvalues --   -0.64012  -0.61558  -0.61339  -0.54713  -0.54507
 Alpha  occ. eigenvalues --   -0.52534  -0.52320  -0.52312  -0.52098  -0.47933
 Alpha  occ. eigenvalues --   -0.47842  -0.47578  -0.47446  -0.43784  -0.43491
 Alpha  occ. eigenvalues --   -0.36773  -0.36562  -0.35838  -0.35624
 Alpha virt. eigenvalues --    0.05824   0.06080   0.11811   0.12024   0.17256
 Alpha virt. eigenvalues --    0.17502   0.21911   0.22113   0.27801   0.28003
 Alpha virt. eigenvalues --    0.28838   0.29058   0.31438   0.31637   0.33111

 Mulliken charges:
               1
     1  C   -0.172090
     2  C   -0.218799
     3  C   -0.171913
     4  C    0.158285
     5  C   -0.172030
     6  C   -0.218966
     7  H    0.222453
     8  H    0.220404
     9  H    0.273887
    10  H    0.281080
    11  H    0.221461
    12  N    0.486325
    13  O   -0.442433
    14  O   -0.468044
    15  C   -0.171955
    16  C   -0.218647
    17  C   -0.171968
    18  C    0.158519
    19  C   -0.171735
    20  C   -0.218720
    21  H    0.223281
    22  H    0.221006
    23  H    0.273926
    24  H    0.278556
    25  H    0.222104
    26  N    0.485897
    27  O   -0.443220
    28  O   -0.466662
 Sum of Mulliken charges =  -0.00000

 Dipole moment (field-independent basis, Debye):
    X=             -0.9341    Y=             -2.7122    Z=              3.6288  Tot=              4.6256
 Quadrupole moment (field-independent basis, Debye-Ang):
   XX=            -41.0425   YY=           -101.0115   ZZ=           -106.1659
   XY=             -8.5191   XZ=             -1.6484   YZ=              2.3130

 Normal termination of Gaussian 16 at Thu May  6 04:51:47 2021.
