 Gaussian 16, Revision A.03,
 Gaussian 16:  EM64L-G16RevA.03 25-Dec-2016

 -------------
 #p 6-31g* mp2
 -------------

 ------------------------------------------------------
 Input file generated by CHIRIPA (05-May-2021 14:55:22)
 ------------------------------------------------------
 Symbolic Z-matrix:
 Charge =  0 Multiplicity = 1

                         Standard orientation:
 ---------------------------------------------------------------------
 Center     Atomic      Atomic             Coordinates (Angstroms)
 Number     Number       Type             X           Y           Z
 ---------------------------------------------------------------------
      1          6           0       -1.278896    1.579789    1.837176
      2          6           0       -1.613901    0.229576    1.982838
      3          6           0       -2.329597   -0.436217    0.983314
      4          6           0       -2.695901    0.282057   -0.153873
      5          6           0       -2.377004    1.627857   -0.328276
      6          6           0       -1.660843    2.273397    0.684117
      7          1           0       -0.722746    2.089127    2.618629
      8          1           0       -1.318593   -0.311606    2.877242
      9          1           0       -2.602074   -1.481022    1.070248
     10          1           0       -2.685259    2.140812   -1.231201
     11          1           0       -1.402050    3.322041    0.568287
     12          7           0       -3.453822   -0.412068   -1.218836
     13          8           0       -3.764821    0.243124   -2.211126
     14          8           0       -3.722531   -1.598172   -1.041098
     15          6           0        3.731508    0.116423   -0.033004
     16          6           0        4.915568    0.014341   -0.995067
     17          6           0        5.787763    1.270154   -0.994406
     18          1           0        3.121091    0.988673   -0.304142
     19          1           0        4.108058    0.301916    0.982475
     20          1           0        4.536961   -0.172282   -2.008204
     21          1           0        5.523131   -0.857880   -0.721726
     22          1           0        6.193117    1.457134    0.005257
     23          1           0        5.201343    2.146627   -1.288530
     24          1           0        6.628220    1.175595   -1.689066
     25          6           0        2.850218   -1.131352   -0.022410
     26          6           0        1.666159   -1.029270    0.939654
     27          6           0        0.793963   -2.285085    0.938993
     28          1           0        2.473668   -1.316845   -1.037889
     29          1           0        3.460635   -2.003603    0.248729
     30          1           0        1.058595   -0.157050    0.666312
     31          1           0        2.044765   -0.842647    1.952789
     32          1           0        1.380383   -3.161557    1.233116
     33          1           0        0.388609   -2.472064   -0.060671
     34          1           0       -0.046494   -2.190524    1.633652
 ---------------------------------------------------------------------

 SCF Done:  E(RHF) =  -669.533719281     A.U. after   15 cycles
 E2 =    -0.2094234396D+01 EUMP2 =    -0.67162795367694D+03

 The electronic state is 1-A.
 Alpha  occ. eigenvalues --  -20.60801 -20.60796 -15.85855 -11.31229 -11.27800
 Alpha  occ. eigenvalues --  -11.27774 -11.27535 -11.26822 -11.26788 -11.21871
 Alpha  occ. eigenvalues --  -11.21830 -11.21686 -11.21608 -11.21414 -11.21312
 Alpha  occ. eigenvalues --   -1.59877  -1.39429  -1.19418  -1.08820  -1.08692
 Alpha  occ. eigenvalues --   -1.04842  -1.03800  -0.96277  -0.95632  -0.87295
 Alpha  occ. eigenvalues --   -0.86213  -0.82472  -0.79880  -0.78522  -0.77518
 Alpha  occ. eigenvalues --   -0.72072  -0.71202  -0.70512  -0.65337  -0.65070
 Alpha  occ. eigenvalues --   -0.64827  -0.62228  -0.61221  -0.59670  -0.57927
 Alpha  occ. eigenvalues --   -0.55578  -0.55306  -0.53283  -0.52934  -0.52809
 Alpha  occ. eigenvalues --   -0.52599  -0.50196  -0.48833  -0.48826  -0.48202
 Alpha  occ. eigenvalues --   -0.46891  -0.46060  -0.45975  -0.44832  -0.44086
 Alpha  occ. eigenvalues --   -0.37355  -0.36330
 Alpha virt. eigenvalues --    0.05012   0.11178   0.16403   0.20633   0.22721
 Alpha virt. eigenvalues --    0.24152   0.26103   0.26372   0.27137   0.28157
 Alpha virt. eigenvalues --    0.28605   0.30379   0.31156   0.31549   0.32378

 Mulliken charges:
               1
     1  C   -0.171867
     2  C   -0.214998
     3  C   -0.166865
     4  C    0.156777
     5  C   -0.171795
     6  C   -0.219220
     7  H    0.226382
     8  H    0.224047
     9  H    0.276423
    10  H    0.275666
    11  H    0.223700
    12  N    0.488080
    13  O   -0.460481
    14  O   -0.460093
    15  C   -0.297994
    16  C   -0.299957
    17  C   -0.475728
    18  H    0.148057
    19  H    0.147513
    20  H    0.153739
    21  H    0.152736
    22  H    0.154391
    23  H    0.154363
    24  H    0.161519
    25  C   -0.298464
    26  C   -0.304596
    27  C   -0.473658
    28  H    0.152605
    29  H    0.150083
    30  H    0.159118
    31  H    0.145045
    32  H    0.156208
    33  H    0.161698
    34  H    0.147567
 Sum of Mulliken charges =  -0.00000

 Dipole moment (field-independent basis, Debye):
    X=              2.6510    Y=              2.4583    Z=              3.6879  Tot=              5.1644
 Quadrupole moment (field-independent basis, Debye-Ang):
   XX=           -110.2479   YY=            -90.5853   ZZ=            -94.5122
   XY=             -6.8274   XZ=            -10.2448   YZ=             -1.8955

 Normal termination of Gaussian 16 at Wed May  5 22:18:25 2021.
