 Gaussian 16, Revision A.03,
 Gaussian 16:  EM64L-G16RevA.03 25-Dec-2016

 -------------
 #p 6-31g* mp2
 -------------

 ------------------------------------------------------
 Input file generated by CHIRIPA (05-May-2021 14:53:18)
 ------------------------------------------------------
 Symbolic Z-matrix:
 Charge =  0 Multiplicity = 1

                         Standard orientation:
 ---------------------------------------------------------------------
 Center     Atomic      Atomic             Coordinates (Angstroms)
 Number     Number       Type             X           Y           Z
 ---------------------------------------------------------------------
      1          6           0       -2.551801    1.174132   -0.004797
      2          6           0       -2.085368    1.965938    1.217278
      3          6           0       -1.302693    3.224821    0.842540
      4          1           0       -1.677675    0.897560   -0.610071
      5          1           0       -3.176721    1.821317   -0.635686
      6          1           0       -1.462649    1.317036    1.846376
      7          1           0       -2.960689    2.240492    1.819814
      8          1           0       -1.918794    3.894576    0.233895
      9          1           0       -0.412242    2.965873    0.260609
     10          1           0       -0.978905    3.775634    1.731150
     11          6           0       -3.335665   -0.087151    0.353606
     12          6           0       -3.802099   -0.878957   -0.868469
     13          6           0       -4.584773   -2.137840   -0.493731
     14          1           0       -2.710745   -0.734336    0.984496
     15          1           0       -4.209791    0.189422    0.958880
     16          1           0       -2.926778   -1.153511   -1.471004
     17          1           0       -4.424817   -0.230055   -1.497567
     18          1           0       -5.475224   -1.878892    0.088201
     19          1           0       -3.968672   -2.807595    0.114914
     20          1           0       -4.908561   -2.688653   -1.382340
     21          6           0        2.860325    1.905965   -0.923770
     22          6           0        3.804956    1.162660   -0.208446
     23          6           0        3.505275   -0.129631    0.232829
     24          6           0        2.245601   -0.649912   -0.060119
     25          6           0        1.283181    0.065716   -0.770691
     26          6           0        1.604665    1.356090   -1.202120
     27          1           0        3.101593    2.909104   -1.262738
     28          1           0        4.780916    1.587150    0.009168
     29          1           0        4.217818   -0.727083    0.788483
     30          1           0        0.318705   -0.384308   -0.972396
     31          1           0        0.869086    1.931044   -1.757454
     32          7           0        1.916801   -2.016988    0.401827
     33          8           0        0.799927   -2.452671    0.130884
     34          8           0        2.782187   -2.626934    1.026093
 ---------------------------------------------------------------------

 SCF Done:  E(RHF) =  -669.535010448     A.U. after   15 cycles
 E2 =    -0.2093551342D+01 EUMP2 =    -0.67162856178998D+03

 The electronic state is 1-A.
 Alpha  occ. eigenvalues --  -20.60862 -20.60854 -15.85912 -11.31271 -11.27840
 Alpha  occ. eigenvalues --  -11.27833 -11.27580 -11.26849 -11.26837 -11.21865
 Alpha  occ. eigenvalues --  -11.21749 -11.21539 -11.21441 -11.21356 -11.20807
 Alpha  occ. eigenvalues --   -1.59934  -1.39487  -1.19451  -1.08843  -1.08579
 Alpha  occ. eigenvalues --   -1.04859  -1.03616  -0.96090  -0.95676  -0.87107
 Alpha  occ. eigenvalues --   -0.86245  -0.82518  -0.79719  -0.78406  -0.77546
 Alpha  occ. eigenvalues --   -0.72132  -0.71256  -0.70560  -0.65281  -0.65075
 Alpha  occ. eigenvalues --   -0.64860  -0.62204  -0.60985  -0.59467  -0.57701
 Alpha  occ. eigenvalues --   -0.55431  -0.55326  -0.53182  -0.52972  -0.52758
 Alpha  occ. eigenvalues --   -0.52458  -0.50008  -0.48889  -0.48883  -0.48019
 Alpha  occ. eigenvalues --   -0.46747  -0.45941  -0.45796  -0.44892  -0.43894
 Alpha  occ. eigenvalues --   -0.37412  -0.36406
 Alpha virt. eigenvalues --    0.04947   0.11082   0.16339   0.19642   0.22850
 Alpha virt. eigenvalues --    0.23997   0.25109   0.26889   0.27142   0.28480
 Alpha virt. eigenvalues --    0.29658   0.31056   0.31625   0.31737   0.32266

 Mulliken charges:
               1
     1  C   -0.299463
     2  C   -0.299378
     3  C   -0.480723
     4  H    0.137478
     5  H    0.149402
     6  H    0.156322
     7  H    0.154445
     8  H    0.153432
     9  H    0.152143
    10  H    0.161854
    11  C   -0.301174
    12  C   -0.299322
    13  C   -0.476955
    14  H    0.159669
    15  H    0.150368
    16  H    0.151247
    17  H    0.149285
    18  H    0.153712
    19  H    0.163063
    20  H    0.160179
    21  C   -0.171483
    22  C   -0.218502
    23  C   -0.170290
    24  C    0.158770
    25  C   -0.174878
    26  C   -0.218540
    27  H    0.226654
    28  H    0.223985
    29  H    0.275910
    30  H    0.279638
    31  H    0.226015
    32  N    0.488175
    33  O   -0.461263
    34  O   -0.459776
 Sum of Mulliken charges =  -0.00000

 Dipole moment (field-independent basis, Debye):
    X=              1.1765    Y=              4.6883    Z=             -1.5283  Tot=              5.0695
 Quadrupole moment (field-independent basis, Debye-Ang):
   XX=            -84.7311   YY=           -102.3329   ZZ=            -94.3748
   XY=              9.1764   XZ=             -1.8487   YZ=              0.6285

 Normal termination of Gaussian 16 at Thu May  6 15:40:47 2021.
