 Gaussian 16, Revision A.03,
 Gaussian 16:  EM64L-G16RevA.03 25-Dec-2016

 -------------
 #p 6-31g* mp2
 -------------

 ------------------------------------------------------
 Input file generated by CHIRIPA (05-May-2021 14:53:15)
 ------------------------------------------------------
 Symbolic Z-matrix:
 Charge =  0 Multiplicity = 1

                         Standard orientation:
 ---------------------------------------------------------------------
 Center     Atomic      Atomic             Coordinates (Angstroms)
 Number     Number       Type             X           Y           Z
 ---------------------------------------------------------------------
      1          6           0       -1.805321    1.065626    0.014516
      2          6           0       -2.124445    2.510469    0.399968
      3          6           0       -0.868795    3.352893    0.626811
      4          1           0       -1.193285    0.608798    0.804241
      5          1           0       -1.191708    1.063642   -0.897005
      6          1           0       -2.738433    2.509678    1.309712
      7          1           0       -2.735953    2.963851   -0.390677
      8          1           0       -0.256359    3.383465   -0.280156
      9          1           0       -0.258854    2.926711    1.429893
     10          1           0       -1.120064    4.382140    0.901356
     11          6           0       -3.050395    0.210895   -0.215599
     12          6           0       -2.731271   -1.233948   -0.601050
     13          6           0       -3.986921   -2.076372   -0.827893
     14          1           0       -3.664008    0.212880    0.695922
     15          1           0       -3.662431    0.667724   -1.005323
     16          1           0       -2.119763   -1.687330    0.189594
     17          1           0       -2.117283   -1.233157   -1.510794
     18          1           0       -4.596862   -1.650189   -1.630976
     19          1           0       -4.599357   -2.106943    0.079074
     20          1           0       -3.735652   -3.105618   -1.102438
     21          6           0        1.066743   -2.596884    1.207427
     22          6           0        1.611028   -2.662791   -0.079403
     23          6           0        2.074041   -1.506607   -0.714546
     24          6           0        1.977007   -0.295791   -0.030588
     25          6           0        1.439810   -0.197682    1.252020
     26          6           0        0.983018   -1.366708    1.867867
     27          1           0        0.709479   -3.500023    1.693327
     28          1           0        1.677309   -3.616788   -0.594709
     29          1           0        2.499896   -1.529003   -1.710319
     30          1           0        1.387008    0.767770    1.740416
     31          1           0        0.560790   -1.312523    2.867283
     32          7           0        2.463886    0.935006   -0.692772
     33          8           0        2.367194    1.989530   -0.068857
     34          8           0        2.932973    0.821877   -1.823168
 ---------------------------------------------------------------------

 SCF Done:  E(RHF) =  -669.534336369     A.U. after   15 cycles
 E2 =    -0.2095596728D+01 EUMP2 =    -0.67162993309674D+03

 The electronic state is 1-A.
 Alpha  occ. eigenvalues --  -20.60867 -20.60836 -15.85884 -11.31225 -11.27827
 Alpha  occ. eigenvalues --  -11.27817 -11.27588 -11.26835 -11.26821 -11.21684
 Alpha  occ. eigenvalues --  -11.21371 -11.21281 -11.21256 -11.21178 -11.20399
 Alpha  occ. eigenvalues --   -1.59919  -1.39473  -1.19431  -1.08823  -1.08340
 Alpha  occ. eigenvalues --   -1.04844  -1.03386  -0.95814  -0.95662  -0.86825
 Alpha  occ. eigenvalues --   -0.86235  -0.82497  -0.79457  -0.78197  -0.77508
 Alpha  occ. eigenvalues --   -0.72112  -0.71231  -0.70552  -0.65105  -0.65008
 Alpha  occ. eigenvalues --   -0.64820  -0.62200  -0.60783  -0.59231  -0.57434
 Alpha  occ. eigenvalues --   -0.55345  -0.55112  -0.53280  -0.52935  -0.52486
 Alpha  occ. eigenvalues --   -0.52177  -0.49770  -0.48877  -0.48869  -0.47760
 Alpha  occ. eigenvalues --   -0.46511  -0.45711  -0.45624  -0.44724  -0.43644
 Alpha  occ. eigenvalues --   -0.37375  -0.36313
 Alpha virt. eigenvalues --    0.04942   0.11160   0.16355   0.20740   0.23017
 Alpha virt. eigenvalues --    0.23955   0.26011   0.27006   0.27391   0.27909
 Alpha virt. eigenvalues --    0.28961   0.30581   0.31403   0.31795   0.32158

 Mulliken charges:
               1
     1  C   -0.301333
     2  C   -0.300978
     3  C   -0.474970
     4  H    0.148061
     5  H    0.149850
     6  H    0.147004
     7  H    0.151896
     8  H    0.171877
     9  H    0.148546
    10  H    0.157680
    11  C   -0.297433
    12  C   -0.300429
    13  C   -0.475424
    14  H    0.146865
    15  H    0.150772
    16  H    0.149042
    17  H    0.152358
    18  H    0.156864
    19  H    0.153885
    20  H    0.157036
    21  C   -0.169499
    22  C   -0.217785
    23  C   -0.170911
    24  C    0.161351
    25  C   -0.171523
    26  C   -0.219590
    27  H    0.226170
    28  H    0.223791
    29  H    0.275740
    30  H    0.279406
    31  H    0.223730
    32  N    0.487307
    33  O   -0.458774
    34  O   -0.460583
 Sum of Mulliken charges =  -0.00000

 Dipole moment (field-independent basis, Debye):
    X=             -1.5082    Y=             -4.2777    Z=              2.2567  Tot=              5.0662
 Quadrupole moment (field-independent basis, Debye-Ang):
   XX=           -103.1190   YY=            -91.4922   ZZ=            -91.0478
   XY=             -9.4966   XZ=              3.4808   YZ=              1.2057

 Normal termination of Gaussian 16 at Thu May  6 13:50:49 2021.
