 Gaussian 16, Revision A.03,
 Gaussian 16:  EM64L-G16RevA.03 25-Dec-2016

 -------------
 #p 6-31g* mp2
 -------------

 ------------------------------------------------------
 Input file generated by CHIRIPA (05-May-2021 14:55:21)
 ------------------------------------------------------
 Symbolic Z-matrix:
 Charge =  0 Multiplicity = 1

                         Standard orientation:
 ---------------------------------------------------------------------
 Center     Atomic      Atomic             Coordinates (Angstroms)
 Number     Number       Type             X           Y           Z
 ---------------------------------------------------------------------
      1          6           0        1.169695    2.346165    0.486063
      2          6           0        1.902021    2.284897   -0.704091
      3          6           0        2.792578    1.232523   -0.936394
      4          6           0        2.926691    0.254069    0.047441
      5          6           0        2.211198    0.287261    1.243375
      6          6           0        1.326345    1.348910    1.454291
      7          1           0        0.480104    3.167277    0.658215
      8          1           0        1.782395    3.057978   -1.457801
      9          1           0        3.371997    1.160516   -1.848812
     10          1           0        2.351849   -0.498136    1.976033
     11          1           0        0.758919    1.393916    2.379519
     12          7           0        3.866465   -0.864941   -0.187167
     13          8           0        3.966549   -1.714506    0.695363
     14          8           0        4.485180   -0.871268   -1.249140
     15          6           0       -2.850574   -0.614680   -0.417302
     16          6           0       -1.901047   -1.504617    0.385443
     17          6           0       -0.509895   -1.601549   -0.241530
     18          1           0       -2.934260   -1.007312   -1.439936
     19          1           0       -2.415183    0.390542   -0.503087
     20          1           0       -2.338744   -2.507482    0.470869
     21          1           0       -1.819761   -1.109931    1.406340
     22          1           0       -0.049253   -0.610876   -0.312065
     23          1           0       -0.571183   -2.016369   -1.252851
     24          1           0        0.152601   -2.242509    0.348494
     25          6           0       -4.245248   -0.507868    0.196866
     26          6           0       -5.194773    0.382068   -0.605879
     27          6           0       -6.585925    0.479001    0.021095
     28          1           0       -4.680638   -1.513090    0.282651
     29          1           0       -4.161561   -0.115237    1.219501
     30          1           0       -5.276060   -0.012617   -1.626776
     31          1           0       -4.757077    1.384934   -0.691304
     32          1           0       -6.524637    0.893820    1.032416
     33          1           0       -7.046569   -0.511672    0.091630
     34          1           0       -7.248422    1.119960   -0.568929
 ---------------------------------------------------------------------

 SCF Done:  E(RHF) =  -669.534571978     A.U. after   15 cycles
 E2 =    -0.2093370880D+01 EUMP2 =    -0.67162794285789D+03

 The electronic state is 1-A.
 Alpha  occ. eigenvalues --  -20.60781 -20.60776 -15.85834 -11.31207 -11.27827
 Alpha  occ. eigenvalues --  -11.27782 -11.27593 -11.26852 -11.26808 -11.21924
 Alpha  occ. eigenvalues --  -11.21794 -11.21696 -11.21630 -11.21365 -11.20959
 Alpha  occ. eigenvalues --   -1.59852  -1.39407  -1.19430  -1.08811  -1.08692
 Alpha  occ. eigenvalues --   -1.04836  -1.03739  -0.96181  -0.95634  -0.87197
 Alpha  occ. eigenvalues --   -0.86220  -0.82466  -0.79818  -0.78514  -0.77505
 Alpha  occ. eigenvalues --   -0.72055  -0.71174  -0.70533  -0.65340  -0.65071
 Alpha  occ. eigenvalues --   -0.64827  -0.62174  -0.61180  -0.59552  -0.57798
 Alpha  occ. eigenvalues --   -0.55636  -0.55335  -0.53355  -0.52928  -0.52794
 Alpha  occ. eigenvalues --   -0.52426  -0.50004  -0.48814  -0.48807  -0.48098
 Alpha  occ. eigenvalues --   -0.46826  -0.46041  -0.45973  -0.44810  -0.44008
 Alpha  occ. eigenvalues --   -0.37413  -0.36373
 Alpha virt. eigenvalues --    0.05022   0.11182   0.16462   0.21133   0.22663
 Alpha virt. eigenvalues --    0.24130   0.26286   0.26855   0.27463   0.27714
 Alpha virt. eigenvalues --    0.28444   0.30401   0.31192   0.31535   0.31762

 Mulliken charges:
               1
     1  C   -0.171737
     2  C   -0.218477
     3  C   -0.171092
     4  C    0.161368
     5  C   -0.169239
     6  C   -0.219416
     7  H    0.225959
     8  H    0.223995
     9  H    0.276141
    10  H    0.275586
    11  H    0.223671
    12  N    0.488443
    13  O   -0.460685
    14  O   -0.460332
    15  C   -0.297616
    16  C   -0.298305
    17  C   -0.484154
    18  H    0.151495
    19  H    0.145205
    20  H    0.153777
    21  H    0.144932
    22  H    0.163332
    23  H    0.155994
    24  H    0.162079
    25  C   -0.298022
    26  C   -0.299257
    27  C   -0.475681
    28  H    0.151344
    29  H    0.147069
    30  H    0.153198
    31  H    0.149068
    32  H    0.154289
    33  H    0.156494
    34  H    0.160574
 Sum of Mulliken charges =  -0.00000

 Dipole moment (field-independent basis, Debye):
    X=             -3.2417    Y=              3.9324    Z=              0.7917  Tot=              5.1574
 Quadrupole moment (field-independent basis, Debye-Ang):
   XX=           -115.6418   YY=            -91.9144   ZZ=            -90.7097
   XY=             11.7960   XZ=              1.6238   YZ=             -1.1818

 Normal termination of Gaussian 16 at Thu May  6 09:20:52 2021.
