 Gaussian 16, Revision A.03,
 Gaussian 16:  EM64L-G16RevA.03 25-Dec-2016

 -------------
 #p 6-31g* mp2
 -------------

 ------------------------------------------------------
 Input file generated by CHIRIPA (05-May-2021 14:55:19)
 ------------------------------------------------------
 Symbolic Z-matrix:
 Charge =  0 Multiplicity = 1

                         Standard orientation:
 ---------------------------------------------------------------------
 Center     Atomic      Atomic             Coordinates (Angstroms)
 Number     Number       Type             X           Y           Z
 ---------------------------------------------------------------------
      1          6           0        3.387904   -2.262421   -0.665372
      2          6           0        4.408792   -1.395303   -1.068378
      3          6           0        4.349696   -0.034323   -0.754070
      4          6           0        3.250232    0.427647   -0.032231
      5          6           0        2.217339   -0.411182    0.383449
      6          6           0        2.297358   -1.768464    0.057980
      7          1           0        3.441937   -3.318227   -0.913869
      8          1           0        5.256920   -1.776127   -1.630248
      9          1           0        5.126132    0.659120   -1.053573
     10          1           0        1.384482   -0.002154    0.942432
     11          1           0        1.503065   -2.439557    0.372268
     12          7           0        3.176595    1.866498    0.306420
     13          8           0        2.197329    2.248670    0.943304
     14          8           0        4.099538    2.584853   -0.071441
     15          6           0       -4.876842   -0.275369   -0.189003
     16          6           0       -5.486223    1.102090   -0.452154
     17          6           0       -6.888760    1.022507   -1.055766
     18          1           0       -4.840655   -0.839326   -1.131121
     19          1           0       -5.536439   -0.837414    0.486594
     20          1           0       -4.824981    1.661885   -1.125953
     21          1           0       -5.520786    1.662905    0.490665
     22          1           0       -7.567432    0.486978   -0.384042
     23          1           0       -6.867673    0.485953   -2.009845
     24          1           0       -7.305469    2.018408   -1.235750
     25          6           0       -3.474820   -0.212329    0.414398
     26          6           0       -2.865440   -1.589787    0.677549
     27          6           0       -1.462902   -1.510205    1.281162
     28          1           0       -2.815224    0.349717   -0.261200
     29          1           0       -3.511008    0.351628    1.356516
     30          1           0       -2.830877   -2.150603   -0.265271
     31          1           0       -3.526681   -2.149583    1.351348
     32          1           0       -1.483989   -0.973651    2.235240
     33          1           0       -0.784230   -0.974676    0.609436
     34          1           0       -1.046194   -2.506106    1.461145
 ---------------------------------------------------------------------

 SCF Done:  E(RHF) =  -669.535252908     A.U. after   15 cycles
 E2 =    -0.2091680271D+01 EUMP2 =    -0.67162693317861D+03

 The electronic state is 1-A.
 Alpha  occ. eigenvalues --  -20.60713 -20.60708 -15.85764 -11.31109 -11.27688
 Alpha  occ. eigenvalues --  -11.27627 -11.27419 -11.26708 -11.26640 -11.22156
 Alpha  occ. eigenvalues --  -11.21962 -11.21680 -11.21660 -11.21555 -11.21125
 Alpha  occ. eigenvalues --   -1.59788  -1.39342  -1.19283  -1.08726  -1.08682
 Alpha  occ. eigenvalues --   -1.04687  -1.03891  -0.96375  -0.95520  -0.87411
 Alpha  occ. eigenvalues --   -0.86079  -0.82354  -0.79976  -0.78487  -0.77392
 Alpha  occ. eigenvalues --   -0.71984  -0.71112  -0.70403  -0.65358  -0.64933
 Alpha  occ. eigenvalues --   -0.64691  -0.62124  -0.61223  -0.59768  -0.57949
 Alpha  occ. eigenvalues --   -0.55667  -0.55171  -0.53138  -0.53038  -0.52894
 Alpha  occ. eigenvalues --   -0.52584  -0.50300  -0.48741  -0.48739  -0.48265
 Alpha  occ. eigenvalues --   -0.46965  -0.46041  -0.45932  -0.44751  -0.44126
 Alpha  occ. eigenvalues --   -0.37271  -0.36275
 Alpha virt. eigenvalues --    0.05100   0.11357   0.16554   0.20536   0.22726
 Alpha virt. eigenvalues --    0.23967   0.25781   0.26419   0.26795   0.27980
 Alpha virt. eigenvalues --    0.29561   0.29651   0.31198   0.31580   0.32440

 Mulliken charges:
               1
     1  C   -0.171457
     2  C   -0.218532
     3  C   -0.171193
     4  C    0.159530
     5  C   -0.177694
     6  C   -0.221345
     7  H    0.225312
     8  H    0.223076
     9  H    0.275246
    10  H    0.280447
    11  H    0.228413
    12  N    0.488203
    13  O   -0.460558
    14  O   -0.460766
    15  C   -0.298791
    16  C   -0.300251
    17  C   -0.475955
    18  H    0.149234
    19  H    0.149540
    20  H    0.153868
    21  H    0.153542
    22  H    0.154954
    23  H    0.154833
    24  H    0.161570
    25  C   -0.299924
    26  C   -0.298855
    27  C   -0.485573
    28  H    0.152730
    29  H    0.152799
    30  H    0.151904
    31  H    0.154357
    32  H    0.162488
    33  H    0.153645
    34  H    0.155202
 Sum of Mulliken charges =  -0.00000

 Dipole moment (field-independent basis, Debye):
    X=              0.0759    Y=             -5.0213    Z=             -1.1749  Tot=              5.1575
 Quadrupole moment (field-independent basis, Debye-Ang):
   XX=            -89.8703   YY=            -99.7556   ZZ=            -93.5404
   XY=            -15.8027   XZ=             -7.2147   YZ=             -0.6489

 Normal termination of Gaussian 16 at Thu May  6 17:22:57 2021.
