 Gaussian 16, Revision A.03,
 Gaussian 16:  EM64L-G16RevA.03 25-Dec-2016

 -------------
 #p 6-31g* mp2
 -------------

 ------------------------------------------------------
 Input file generated by CHIRIPA (05-May-2021 14:51:09)
 ------------------------------------------------------
 Symbolic Z-matrix:
 Charge =  0 Multiplicity = 1

                         Standard orientation:
 ---------------------------------------------------------------------
 Center     Atomic      Atomic             Coordinates (Angstroms)
 Number     Number       Type             X           Y           Z
 ---------------------------------------------------------------------
      1          6           0       -3.367128   -0.664070   -0.008510
      2          6           0       -2.288872   -0.164402    0.953613
      3          6           0       -0.926907   -0.812662    0.703404
      4          1           0       -3.456003   -1.755076    0.085044
      5          1           0       -3.048803   -0.463787   -1.040959
      6          1           0       -2.609762   -0.364319    1.983991
      7          1           0       -2.202687    0.925564    0.857895
      8          1           0       -0.581192   -0.602313   -0.313864
      9          1           0       -0.990580   -1.899525    0.818630
     10          1           0       -0.170978   -0.441118    1.402251
     11          6           0       -4.734280   -0.025186    0.229083
     12          6           0       -5.812535   -0.524854   -0.733041
     13          6           0       -7.174500    0.123406   -0.482832
     14          1           0       -5.052605   -0.225469    1.261532
     15          1           0       -4.645405    1.065820    0.135528
     16          1           0       -5.898720   -1.614820   -0.637323
     17          1           0       -5.491646   -0.324937   -1.763419
     18          1           0       -7.110828    1.210269   -0.598058
     19          1           0       -7.520215   -0.086943    0.534436
     20          1           0       -7.930429   -0.248138   -1.181678
     21          6           0        3.703497    1.021610   -0.177930
     22          6           0        2.206787    0.968946    0.130406
     23          6           0        1.526169    2.330948   -0.009250
     24          1           0        4.184821    1.744359    0.495053
     25          1           0        3.847291    1.401433   -1.198936
     26          1           0        2.065805    0.588028    1.150034
     27          1           0        1.729003    0.246097   -0.543261
     28          1           0        1.637312    2.714428   -1.028657
     29          1           0        1.976029    3.058302    0.674258
     30          1           0        0.456786    2.270308    0.215700
     31          6           0        4.397911   -0.332353   -0.042642
     32          6           0        5.894620   -0.279690   -0.350978
     33          6           0        6.575238   -1.641693   -0.211322
     34          1           0        4.254116   -0.712176    0.978364
     35          1           0        3.916586   -1.055103   -0.715624
     36          1           0        6.372405    0.443159    0.322689
     37          1           0        6.035603    0.101227   -1.370606
     38          1           0        6.125378   -2.369047   -0.894831
     39          1           0        6.464094   -2.025172    0.808085
     40          1           0        7.644621   -1.581053   -0.436272
 ---------------------------------------------------------------------

 SCF Done:  E(RHF) =  -470.732163601     A.U. after   11 cycles
 E2 =    -0.1583501784D+01 EUMP2 =    -0.47231566538421D+03

 The electronic state is 1-A.
 Alpha  occ. eigenvalues --  -11.21596 -11.21582 -11.21572 -11.21501 -11.21395
 Alpha  occ. eigenvalues --  -11.21355 -11.21335 -11.21291 -11.21066 -11.21048
 Alpha  occ. eigenvalues --  -11.21044 -11.20961  -1.08430  -1.08375  -1.03574
 Alpha  occ. eigenvalues --   -1.03434  -0.96031  -0.95875  -0.87003  -0.86942
 Alpha  occ. eigenvalues --   -0.79736  -0.79418  -0.78264  -0.78156  -0.65078
 Alpha  occ. eigenvalues --   -0.65003  -0.61027  -0.60845  -0.59578  -0.59098
 Alpha  occ. eigenvalues --   -0.57700  -0.57410  -0.55290  -0.55157  -0.52708
 Alpha  occ. eigenvalues --   -0.52576  -0.52410  -0.52342  -0.49976  -0.49834
 Alpha  occ. eigenvalues --   -0.47929  -0.47861  -0.46722  -0.46468  -0.45816
 Alpha  occ. eigenvalues --   -0.45754  -0.45689  -0.45547  -0.43821  -0.43622
 Alpha virt. eigenvalues --    0.21189   0.23057   0.23467   0.25282   0.25873
 Alpha virt. eigenvalues --    0.26492   0.26653   0.27298   0.27960   0.29358
 Alpha virt. eigenvalues --    0.29520   0.30278   0.31052   0.31948   0.32350

 Mulliken charges:
               1
     1  C   -0.298481
     2  C   -0.301577
     3  C   -0.478419
     4  H    0.149698
     5  H    0.149441
     6  H    0.151741
     7  H    0.152136
     8  H    0.156353
     9  H    0.154223
    10  H    0.165216
    11  C   -0.298249
    12  C   -0.299628
    13  C   -0.475698
    14  H    0.149507
    15  H    0.149618
    16  H    0.151908
    17  H    0.151882
    18  H    0.155195
    19  H    0.155170
    20  H    0.160219
    21  C   -0.298070
    22  C   -0.300363
    23  C   -0.479451
    24  H    0.149036
    25  H    0.148961
    26  H    0.151594
    27  H    0.155688
    28  H    0.154800
    29  H    0.155054
    30  H    0.162770
    31  C   -0.298130
    32  C   -0.299563
    33  C   -0.475665
    34  H    0.149336
    35  H    0.149688
    36  H    0.151837
    37  H    0.151805
    38  H    0.155161
    39  H    0.155135
    40  H    0.160122
 Sum of Mulliken charges =  -0.00000

 Dipole moment (field-independent basis, Debye):
    X=             -0.0018    Y=             -0.0166    Z=              0.0028  Tot=              0.0169
 Quadrupole moment (field-independent basis, Debye-Ang):
   XX=            -86.4423   YY=            -85.2355   ZZ=            -83.3735
   XY=              1.1429   XZ=              0.0819   YZ=             -0.2664

 Normal termination of Gaussian 16 at Wed May  5 18:10:40 2021.
