 Gaussian 16, Revision A.03,
 Gaussian 16:  EM64L-G16RevA.03 25-Dec-2016

 -------------
 #p 6-31g* mp2
 -------------

 ------------------------------------------------------
 Input file generated by CHIRIPA (05-May-2021 14:57:23)
 ------------------------------------------------------
 Symbolic Z-matrix:
 Charge =  0 Multiplicity = 1

                         Standard orientation:
 ---------------------------------------------------------------------
 Center     Atomic      Atomic             Coordinates (Angstroms)
 Number     Number       Type             X           Y           Z
 ---------------------------------------------------------------------
      1          6           0       -1.815065    1.990739    0.702827
      2          6           0       -2.094500    0.882423    1.509098
      3          6           0       -3.024832   -0.077274    1.099206
      4          6           0       -3.660104    0.103626   -0.128391
      5          6           0       -3.403196    1.197052   -0.954047
      6          6           0       -2.469152    2.144245   -0.524009
      7          1           0       -1.090919    2.731399    1.029066
      8          1           0       -1.588046    0.760622    2.462363
      9          1           0       -3.260133   -0.944840    1.703674
     10          1           0       -3.924048    1.291222   -1.899173
     11          1           0       -2.254127    3.003978   -1.152237
     12          7           0       -4.646970   -0.905744   -0.572988
     13          8           0       -5.193143   -0.723367   -1.658839
     14          8           0       -4.855617   -1.860153    0.172805
     15          6           0        1.267184   -0.886330    1.061057
     16          6           0        1.649721    0.456421    0.976174
     17          6           0        2.883142    0.809541    0.420722
     18          6           0        3.713071   -0.210396   -0.042135
     19          6           0        3.360276   -1.557186    0.028464
     20          6           0        2.122174   -1.887083    0.587765
     21          1           0        0.307214   -1.151623    1.494041
     22          1           0        0.987752    1.235734    1.342934
     23          1           0        3.204295    1.841136    0.342679
     24          1           0        4.041522   -2.311763   -0.345616
     25          1           0        1.827710   -2.930711    0.652394
     26          7           0        5.021316    0.151144   -0.632206
     27          8           0        5.734450   -0.766233   -1.032828
     28          8           0        5.308814    1.345050   -0.682908
 ---------------------------------------------------------------------

 SCF Done:  E(RHF) =  -868.335922619     A.U. after   16 cycles
 E2 =    -0.2601994635D+01 EUMP2 =    -0.87093791725399D+03

 The electronic state is 1-A.
 Alpha  occ. eigenvalues --  -20.61564 -20.61549 -20.61118 -20.61107 -15.86621
 Alpha  occ. eigenvalues --  -15.86173 -11.32182 -11.31595 -11.28845 -11.28722
 Alpha  occ. eigenvalues --  -11.28622 -11.28229 -11.28143 -11.27951 -11.27926
 Alpha  occ. eigenvalues --  -11.27763 -11.27284 -11.27148  -1.60631  -1.60190
 Alpha  occ. eigenvalues --   -1.40179  -1.39742  -1.20394  -1.19782  -1.09773
 Alpha  occ. eigenvalues --   -1.09161  -1.05830  -1.05207  -0.96565  -0.95989
 Alpha  occ. eigenvalues --   -0.87244  -0.86592  -0.83400  -0.82823  -0.78391
 Alpha  occ. eigenvalues --   -0.77872  -0.72837  -0.72391  -0.71958  -0.71553
 Alpha  occ. eigenvalues --   -0.71514  -0.70905  -0.66088  -0.65913  -0.65432
 Alpha  occ. eigenvalues --   -0.65167  -0.63158  -0.62557  -0.56396  -0.55704
 Alpha  occ. eigenvalues --   -0.54168  -0.53912  -0.53491  -0.53267  -0.49610
 Alpha  occ. eigenvalues --   -0.49578  -0.49155  -0.49141  -0.45542  -0.45136
 Alpha  occ. eigenvalues --   -0.38457  -0.37746  -0.37359  -0.36778
 Alpha virt. eigenvalues --    0.04089   0.04696   0.10077   0.10859   0.15379
 Alpha virt. eigenvalues --    0.16220   0.18445   0.22286   0.24843   0.25505
 Alpha virt. eigenvalues --    0.28247   0.29102   0.29922   0.31079   0.32062

 Mulliken charges:
               1
     1  C   -0.171653
     2  C   -0.224773
     3  C   -0.173251
     4  C    0.160151
     5  C   -0.168471
     6  C   -0.217131
     7  H    0.223770
     8  H    0.220757
     9  H    0.276411
    10  H    0.279884
    11  H    0.228580
    12  N    0.487954
    13  O   -0.456561
    14  O   -0.459624
    15  C   -0.169276
    16  C   -0.215166
    17  C   -0.172254
    18  C    0.158836
    19  C   -0.169966
    20  C   -0.218636
    21  H    0.222713
    22  H    0.211476
    23  H    0.273860
    24  H    0.277445
    25  H    0.226455
    26  N    0.488091
    27  O   -0.458622
    28  O   -0.460998
 Sum of Mulliken charges =  -0.00000

 Dipole moment (field-independent basis, Debye):
    X=             -1.3552    Y=              2.2256    Z=              3.3940  Tot=              4.2790
 Quadrupole moment (field-independent basis, Debye-Ang):
   XX=           -164.4926   YY=            -97.6979   ZZ=           -102.8954
   XY=            -18.4961   XZ=              2.6312   YZ=             -2.5621

 Normal termination of Gaussian 16 at Fri May  7 11:02:26 2021.
