 Gaussian 16, Revision A.03,
 Gaussian 16:  EM64L-G16RevA.03 25-Dec-2016

 -------------
 #p 6-31g* mp2
 -------------

 ------------------------------------------------------
 Input file generated by CHIRIPA (05-May-2021 14:57:26)
 ------------------------------------------------------
 Symbolic Z-matrix:
 Charge =  0 Multiplicity = 1

                         Standard orientation:
 ---------------------------------------------------------------------
 Center     Atomic      Atomic             Coordinates (Angstroms)
 Number     Number       Type             X           Y           Z
 ---------------------------------------------------------------------
      1          6           0        6.465283    0.992556    0.166786
      2          6           0        5.280150    1.728802    0.067165
      3          6           0        4.049040    1.078721   -0.060544
      4          6           0        4.039810   -0.315049   -0.085281
      5          6           0        5.203432   -1.076517    0.011871
      6          6           0        6.423215   -0.405289    0.138870
      7          1           0        7.417239    1.505769    0.265718
      8          1           0        5.309798    2.814485    0.088560
      9          1           0        3.116413    1.624053   -0.139523
     10          1           0        5.142027   -2.157746   -0.012455
     11          1           0        7.342018   -0.979650    0.216043
     12          7           0        2.742484   -1.014454   -0.220105
     13          8           0        2.761243   -2.243240   -0.239366
     14          8           0        1.731446   -0.320620   -0.303966
     15          6           0       -1.954251    1.228733    0.204675
     16          6           0       -3.063366    2.030549   -0.084244
     17          6           0       -4.342084    1.471195   -0.165184
     18          6           0       -4.475920    0.100302    0.049369
     19          6           0       -3.390386   -0.724930    0.339021
     20          6           0       -2.121006   -0.144028    0.415015
     21          1           0       -0.964539    1.671622    0.265630
     22          1           0       -2.936849    3.096946   -0.248057
     23          1           0       -5.217936    2.068672   -0.387271
     24          1           0       -3.547990   -1.784872    0.497460
     25          1           0       -1.261457   -0.769167    0.639559
     26          7           0       -5.824698   -0.503267   -0.033701
     27          8           0       -5.916025   -1.713638    0.159425
     28          8           0       -6.765005    0.245456   -0.290362
 ---------------------------------------------------------------------

 SCF Done:  E(RHF) =  -868.340257259     A.U. after   16 cycles
 E2 =    -0.2598511156D+01 EUMP2 =    -0.87093876841454D+03

 The electronic state is 1-A.
 Alpha  occ. eigenvalues --  -20.61926 -20.61877 -20.59992 -20.59981 -15.86928
 Alpha  occ. eigenvalues --  -15.85032 -11.32024 -11.30212 -11.28596 -11.28527
 Alpha  occ. eigenvalues --  -11.28231 -11.27519 -11.27481 -11.26800 -11.26660
 Alpha  occ. eigenvalues --  -11.26361 -11.25798 -11.25477  -1.60956  -1.59068
 Alpha  occ. eigenvalues --   -1.40521  -1.38627  -1.20165  -1.18340  -1.09606
 Alpha  occ. eigenvalues --   -1.07752  -1.05530  -1.03701  -0.96489  -0.94629
 Alpha  occ. eigenvalues --   -0.86940  -0.85089  -0.83336  -0.81465  -0.78417
 Alpha  occ. eigenvalues --   -0.76550  -0.73168  -0.72251  -0.71270  -0.71254
 Alpha  occ. eigenvalues --   -0.70389  -0.69415  -0.65824  -0.65528  -0.63974
 Alpha  occ. eigenvalues --   -0.63650  -0.62886  -0.61036  -0.56029  -0.54163
 Alpha  occ. eigenvalues --   -0.53868  -0.53619  -0.52061  -0.51763  -0.49923
 Alpha  occ. eigenvalues --   -0.49873  -0.48022  -0.47990  -0.45980  -0.44075
 Alpha  occ. eigenvalues --   -0.38119  -0.37119  -0.36296  -0.35308
 Alpha virt. eigenvalues --    0.04100   0.05952   0.10540   0.12351   0.15647
 Alpha virt. eigenvalues --    0.17515   0.20580   0.22514   0.26473   0.27243
 Alpha virt. eigenvalues --    0.28566   0.29097   0.30545   0.31524   0.32917

 Mulliken charges:
               1
     1  C   -0.169701
     2  C   -0.218148
     3  C   -0.169935
     4  C    0.158272
     5  C   -0.170053
     6  C   -0.218318
     7  H    0.228422
     8  H    0.224932
     9  H    0.270659
    10  H    0.277374
    11  H    0.226332
    12  N    0.491291
    13  O   -0.454820
    14  O   -0.473302
    15  C   -0.171433
    16  C   -0.219351
    17  C   -0.173180
    18  C    0.158023
    19  C   -0.173397
    20  C   -0.220726
    21  H    0.228022
    22  H    0.217754
    23  H    0.271584
    24  H    0.274401
    25  H    0.242744
    26  N    0.488143
    27  O   -0.461733
    28  O   -0.463858
 Sum of Mulliken charges =  -0.00000

 Dipole moment (field-independent basis, Debye):
    X=             10.0131    Y=              4.4240    Z=              0.7930  Tot=             10.9756
 Quadrupole moment (field-independent basis, Debye-Ang):
   XX=           -109.5339   YY=            -98.2810   ZZ=           -106.4324
   XY=             -4.5529   XZ=              1.0256   YZ=             -1.4321

 Normal termination of Gaussian 16 at Wed May  5 22:48:09 2021.
