 Gaussian 16, Revision A.03,
 Gaussian 16:  EM64L-G16RevA.03 25-Dec-2016

 -------------
 #p 6-31g* mp2
 -------------

 ------------------------------------------------------
 Input file generated by CHIRIPA (05-May-2021 14:57:22)
 ------------------------------------------------------
 Symbolic Z-matrix:
 Charge =  0 Multiplicity = 1

                         Standard orientation:
 ---------------------------------------------------------------------
 Center     Atomic      Atomic             Coordinates (Angstroms)
 Number     Number       Type             X           Y           Z
 ---------------------------------------------------------------------
      1          6           0       -3.515553    2.582478    0.306716
      2          6           0       -4.585099    1.681047    0.302852
      3          6           0       -4.371424    0.326970    0.028325
      4          6           0       -3.069445   -0.093184   -0.239277
      5          6           0       -1.983184    0.780495   -0.242861
      6          6           0       -2.220293    2.130122    0.034327
      7          1           0       -3.690643    3.632629    0.521008
      8          1           0       -5.592077    2.029528    0.514043
      9          1           0       -5.181214   -0.392452    0.018776
     10          1           0       -0.990566    0.403349   -0.457076
     11          1           0       -1.387760    2.827925    0.036639
     12          7           0       -2.830833   -1.524330   -0.531315
     13          8           0       -1.674343   -1.869359   -0.763958
     14          8           0       -3.804817   -2.273934   -0.522041
     15          6           0        1.642031   -1.525318    1.708685
     16          6           0        2.305240   -0.400673    2.210530
     17          6           0        3.120478    0.372766    1.378829
     18          6           0        3.250570   -0.009018    0.044436
     19          6           0        2.602843   -1.124019   -0.485200
     20          6           0        1.792684   -1.882771    0.364791
     21          1           0        1.010707   -2.120439    2.361874
     22          1           0        2.190091   -0.120698    3.253794
     23          1           0        3.645422    1.248291    1.741192
     24          1           0        2.737127   -1.378119   -1.529623
     25          1           0        1.278834   -2.755676   -0.027690
     26          7           0        4.110938    0.802014   -0.845730
     27          8           0        4.209088    0.444560   -2.017580
     28          8           0        4.670853    1.779795   -0.354738
 ---------------------------------------------------------------------

 SCF Done:  E(RHF) =  -868.340017351     A.U. after   16 cycles
 E2 =    -0.2599382635D+01 EUMP2 =    -0.87093939998595D+03

 The electronic state is 1-A.
 Alpha  occ. eigenvalues --  -20.61410 -20.61364 -20.60706 -20.60689 -15.86432
 Alpha  occ. eigenvalues --  -15.85746 -11.31568 -11.31006 -11.28123 -11.28075
 Alpha  occ. eigenvalues --  -11.27815 -11.27563 -11.27434 -11.27156 -11.27087
 Alpha  occ. eigenvalues --  -11.27047 -11.26575 -11.26322  -1.60462  -1.59782
 Alpha  occ. eigenvalues --   -1.40022  -1.39336  -1.19723  -1.19138  -1.09161
 Alpha  occ. eigenvalues --   -1.08535  -1.05085  -1.04487  -0.96033  -0.95396
 Alpha  occ. eigenvalues --   -0.86494  -0.85871  -0.82873  -0.82209  -0.77944
 Alpha  occ. eigenvalues --   -0.77285  -0.72671  -0.71958  -0.71776  -0.71113
 Alpha  occ. eigenvalues --   -0.70821  -0.70194  -0.65379  -0.65079  -0.64754
 Alpha  occ. eigenvalues --   -0.64414  -0.62428  -0.61803  -0.55596  -0.54951
 Alpha  occ. eigenvalues --   -0.53439  -0.53200  -0.52836  -0.52520  -0.49417
 Alpha  occ. eigenvalues --   -0.49391  -0.48726  -0.48705  -0.45479  -0.44764
 Alpha  occ. eigenvalues --   -0.37700  -0.37110  -0.36678  -0.36087
 Alpha virt. eigenvalues --    0.04557   0.05195   0.10970   0.11564   0.16103
 Alpha virt. eigenvalues --    0.16745   0.21129   0.21869   0.27040   0.27691
 Alpha virt. eigenvalues --    0.28085   0.28660   0.30685   0.31444   0.32064

 Mulliken charges:
               1
     1  C   -0.170229
     2  C   -0.218910
     3  C   -0.171022
     4  C    0.156360
     5  C   -0.172276
     6  C   -0.219597
     7  H    0.227361
     8  H    0.224435
     9  H    0.275538
    10  H    0.277993
    11  H    0.226969
    12  N    0.489839
    13  O   -0.469385
    14  O   -0.458353
    15  C   -0.174850
    16  C   -0.220489
    17  C   -0.175851
    18  C    0.155675
    19  C   -0.177685
    20  C   -0.211979
    21  H    0.228645
    22  H    0.221364
    23  H    0.272776
    24  H    0.277419
    25  H    0.241132
    26  N    0.487723
    27  O   -0.459641
    28  O   -0.462962
 Sum of Mulliken charges =  -0.00000

 Dipole moment (field-independent basis, Debye):
    X=             -4.0752    Y=              2.0391    Z=              4.1267  Tot=              6.1478
 Quadrupole moment (field-independent basis, Debye-Ang):
   XX=           -115.5388   YY=           -104.0597   ZZ=           -103.3299
   XY=            -23.7503   XZ=              7.1947   YZ=              1.0476

 Normal termination of Gaussian 16 at Thu May  6 00:12:20 2021.
