 Gaussian 16, Revision A.03,
 Gaussian 16:  EM64L-G16RevA.03 25-Dec-2016

 -------------
 #p 6-31g* mp2
 -------------

 ------------------------------------------------------
 Input file generated by CHIRIPA (05-May-2021 14:53:14)
 ------------------------------------------------------
 Symbolic Z-matrix:
 Charge =  0 Multiplicity = 1

                         Standard orientation:
 ---------------------------------------------------------------------
 Center     Atomic      Atomic             Coordinates (Angstroms)
 Number     Number       Type             X           Y           Z
 ---------------------------------------------------------------------
      1          6           0        3.652895    0.558776    0.380061
      2          6           0        4.358491   -0.696801   -0.133403
      3          6           0        5.571677   -1.081458    0.713953
      4          1           0        4.368390    1.392252    0.398207
      5          1           0        3.337857    0.394582    1.419863
      6          1           0        4.670881   -0.530791   -1.172378
      7          1           0        3.641183   -1.527339   -0.150510
      8          1           0        5.272908   -1.273918    1.749471
      9          1           0        6.308456   -0.271707    0.721797
     10          1           0        6.061002   -1.981648    0.329142
     11          6           0        2.438068    0.956020   -0.456671
     12          6           0        1.732472    2.211597    0.056793
     13          6           0        0.519286    2.596254   -0.790563
     14          1           0        2.753106    1.120214   -1.496473
     15          1           0        1.722573    0.122544   -0.474817
     16          1           0        2.449780    3.042135    0.073900
     17          1           0        1.420082    2.045587    1.095768
     18          1           0       -0.217493    1.786503   -0.798407
     19          1           0        0.818055    2.788714   -1.826081
     20          1           0        0.029961    3.496444   -0.405752
     21          6           0       -4.435212    0.686721    0.740330
     22          6           0       -4.226192    0.392281   -0.611018
     23          6           0       -3.090613   -0.315485   -1.016079
     24          6           0       -2.180523   -0.715312   -0.038753
     25          6           0       -2.360702   -0.437177    1.315303
     26          6           0       -3.503442    0.271783    1.697489
     27          1           0       -5.320139    1.236994    1.046106
     28          1           0       -4.948128    0.713270   -1.356550
     29          1           0       -2.904025   -0.556863   -2.055473
     30          1           0       -1.623249   -0.770395    2.035405
     31          1           0       -3.663174    0.499041    2.747672
     32          7           0       -0.974545   -1.465224   -0.455465
     33          8           0       -0.187775   -1.806294    0.425046
     34          8           0       -0.838905   -1.697737   -1.654706
 ---------------------------------------------------------------------

 SCF Done:  E(RHF) =  -669.536239376     A.U. after   15 cycles
 E2 =    -0.2092880987D+01 EUMP2 =    -0.67162912036371D+03

 The electronic state is 1-A.
 Alpha  occ. eigenvalues --  -20.61026 -20.61019 -15.86041 -11.31344 -11.27898
 Alpha  occ. eigenvalues --  -11.27894 -11.27620 -11.26887 -11.26877 -11.21020
 Alpha  occ. eigenvalues --  -11.20711 -11.20547 -11.20459 -11.20333 -11.20238
 Alpha  occ. eigenvalues --   -1.60085  -1.39638  -1.19505  -1.08914  -1.07557
 Alpha  occ. eigenvalues --   -1.04889  -1.02780  -0.95759  -0.95237  -0.86293
 Alpha  occ. eigenvalues --   -0.86267  -0.82590  -0.78833  -0.77650  -0.77336
 Alpha  occ. eigenvalues --   -0.72260  -0.71420  -0.70605  -0.65156  -0.64889
 Alpha  occ. eigenvalues --   -0.64164  -0.62235  -0.60181  -0.58625  -0.56844
 Alpha  occ. eigenvalues --   -0.55393  -0.54574  -0.53203  -0.52979  -0.51982
 Alpha  occ. eigenvalues --   -0.51665  -0.49211  -0.49036  -0.49017  -0.47155
 Alpha  occ. eigenvalues --   -0.45850  -0.45184  -0.44888  -0.44570  -0.42985
 Alpha  occ. eigenvalues --   -0.37461  -0.36481
 Alpha virt. eigenvalues --    0.04832   0.11158   0.16320   0.21295   0.23534
 Alpha virt. eigenvalues --    0.24814   0.27196   0.27277   0.28120   0.28240
 Alpha virt. eigenvalues --    0.28869   0.30871   0.31734   0.32279   0.32364

 Mulliken charges:
               1
     1  C   -0.295986
     2  C   -0.302578
     3  C   -0.475286
     4  H    0.144162
     5  H    0.148308
     6  H    0.149468
     7  H    0.166144
     8  H    0.153975
     9  H    0.151269
    10  H    0.158945
    11  C   -0.307159
    12  C   -0.298982
    13  C   -0.474488
    14  H    0.147273
    15  H    0.169411
    16  H    0.149304
    17  H    0.148110
    18  H    0.149646
    19  H    0.156057
    20  H    0.155462
    21  C   -0.170158
    22  C   -0.217894
    23  C   -0.171468
    24  C    0.159151
    25  C   -0.171261
    26  C   -0.218111
    27  H    0.226303
    28  H    0.224227
    29  H    0.276479
    30  H    0.275789
    31  H    0.224061
    32  N    0.487943
    33  O   -0.460255
    34  O   -0.457862
 Sum of Mulliken charges =  -0.00000

 Dipole moment (field-independent basis, Debye):
    X=             -4.4744    Y=              2.4296    Z=              1.4280  Tot=              5.2880
 Quadrupole moment (field-independent basis, Debye-Ang):
   XX=            -77.3014   YY=            -99.5709   ZZ=            -90.2658
   XY=             -2.6299   XZ=             -2.4542   YZ=             -1.4877

 Normal termination of Gaussian 16 at Wed May  5 17:08:03 2021.
