 Gaussian 16, Revision A.03,
 Gaussian 16:  EM64L-G16RevA.03 25-Dec-2016

 -------------
 #p 6-31g* mp2
 -------------

 ------------------------------------------------------
 Input file generated by CHIRIPA (05-May-2021 14:57:24)
 ------------------------------------------------------
 Symbolic Z-matrix:
 Charge =  0 Multiplicity = 1

                         Standard orientation:
 ---------------------------------------------------------------------
 Center     Atomic      Atomic             Coordinates (Angstroms)
 Number     Number       Type             X           Y           Z
 ---------------------------------------------------------------------
      1          6           0       -4.852476   -1.675071    0.335759
      2          6           0       -3.496349   -1.985855    0.480174
      3          6           0       -2.514673   -1.035677    0.183489
      4          6           0       -2.926529    0.221078   -0.257230
      5          6           0       -4.269688    0.560937   -0.411206
      6          6           0       -5.234144   -0.404906   -0.108686
      7          1           0       -5.608377   -2.419277    0.568497
      8          1           0       -3.197019   -2.971473    0.825142
      9          1           0       -1.457761   -1.249611    0.286385
     10          1           0       -4.537289    1.551971   -0.757127
     11          1           0       -6.286592   -0.160753   -0.221774
     12          7           0       -1.896387    1.235281   -0.574405
     13          8           0       -2.285225    2.335290   -0.960958
     14          8           0       -0.719631    0.911001   -0.430449
     15          6           0        2.087497    1.112386    2.201939
     16          6           0        2.478498   -0.227213    2.297423
     17          6           0        3.038567   -0.883515    1.197360
     18          6           0        3.193837   -0.166679    0.011895
     19          6           0        2.814129    1.168656   -0.114561
     20          6           0        2.256263    1.804824    0.998374
     21          1           0        1.653278    1.614397    3.061494
     22          1           0        2.348624   -0.767460    3.230861
     23          1           0        3.349965   -1.920004    1.243641
     24          1           0        2.956144    1.680946   -1.058388
     25          1           0        1.953518    2.845234    0.921323
     26          7           0        3.785591   -0.850820   -1.159506
     27          8           0        3.911790   -0.197118   -2.192649
     28          8           0        4.112003   -2.027796   -1.022325
 ---------------------------------------------------------------------

 SCF Done:  E(RHF) =  -868.338285723     A.U. after   16 cycles
 E2 =    -0.2600044633D+01 EUMP2 =    -0.87093833035580D+03

 The electronic state is 1-A.
 Alpha  occ. eigenvalues --  -20.61178 -20.61159 -20.60002 -20.59975 -15.86199
 Alpha  occ. eigenvalues --  -15.85035 -11.31473 -11.30190 -11.28035 -11.28021
 Alpha  occ. eigenvalues --  -11.27758 -11.27027 -11.27015 -11.26827 -11.26630
 Alpha  occ. eigenvalues --  -11.26478 -11.25863 -11.25614  -1.60249  -1.59069
 Alpha  occ. eigenvalues --   -1.39801  -1.38629  -1.19640  -1.18338  -1.09055
 Alpha  occ. eigenvalues --   -1.07794  -1.05026  -1.03715  -0.95906  -0.94665
 Alpha  occ. eigenvalues --   -0.86428  -0.85150  -0.82738  -0.81506  -0.77796
 Alpha  occ. eigenvalues --   -0.76571  -0.72441  -0.71564  -0.71268  -0.70744
 Alpha  occ. eigenvalues --   -0.70382  -0.69509  -0.65294  -0.65027  -0.64018
 Alpha  occ. eigenvalues --   -0.63762  -0.62371  -0.61094  -0.55532  -0.54289
 Alpha  occ. eigenvalues --   -0.53365  -0.53115  -0.52032  -0.51844  -0.49201
 Alpha  occ. eigenvalues --   -0.49181  -0.48029  -0.48003  -0.45228  -0.44081
 Alpha  occ. eigenvalues --   -0.37620  -0.36628  -0.36313  -0.35213
 Alpha virt. eigenvalues --    0.04716   0.05963   0.11028   0.12371   0.16250
 Alpha virt. eigenvalues --    0.17505   0.21188   0.22326   0.27098   0.28070
 Alpha virt. eigenvalues --    0.28268   0.29183   0.30747   0.31826   0.32272

 Mulliken charges:
               1
     1  C   -0.170418
     2  C   -0.218693
     3  C   -0.171355
     4  C    0.157428
     5  C   -0.170881
     6  C   -0.218631
     7  H    0.226590
     8  H    0.224419
     9  H    0.276945
    10  H    0.275601
    11  H    0.224188
    12  N    0.489843
    13  O   -0.462041
    14  O   -0.462529
    15  C   -0.171382
    16  C   -0.221076
    17  C   -0.175878
    18  C    0.157416
    19  C   -0.159076
    20  C   -0.200687
    21  H    0.220942
    22  H    0.216362
    23  H    0.269582
    24  H    0.276015
    25  H    0.225716
    26  N    0.487980
    27  O   -0.460024
    28  O   -0.466356
 Sum of Mulliken charges =  -0.00000

 Dipole moment (field-independent basis, Debye):
    X=             -5.9581    Y=             -0.9244    Z=              5.1058  Tot=              7.9008
 Quadrupole moment (field-independent basis, Debye-Ang):
   XX=            -95.9346   YY=           -102.0186   ZZ=           -105.3709
   XY=             15.6845   XZ=             11.7405   YZ=             -2.9616

 Normal termination of Gaussian 16 at Fri May  7 12:34:46 2021.
