 Gaussian 16, Revision A.03,
 Gaussian 16:  EM64L-G16RevA.03 25-Dec-2016

 -------------
 #p 6-31g* mp2
 -------------

 ------------------------------------------------------
 Input file generated by CHIRIPA (05-May-2021 14:55:20)
 ------------------------------------------------------
 Symbolic Z-matrix:
 Charge =  0 Multiplicity = 1

                         Standard orientation:
 ---------------------------------------------------------------------
 Center     Atomic      Atomic             Coordinates (Angstroms)
 Number     Number       Type             X           Y           Z
 ---------------------------------------------------------------------
      1          6           0        3.404875   -2.430541    0.062250
      2          6           0        2.402232   -2.049765    0.960157
      3          6           0        1.931458   -0.733548    0.982352
      4          6           0        2.488210    0.180074    0.088701
      5          6           0        3.488221   -0.168683   -0.817741
      6          6           0        3.943720   -1.490442   -0.822274
      7          1           0        3.764651   -3.455163    0.051868
      8          1           0        1.981919   -2.777729    1.648234
      9          1           0        1.156174   -0.411746    1.667039
     10          1           0        3.887828    0.579424   -1.491587
     11          1           0        4.722483   -1.783326   -1.520695
     12          7           0        1.997908    1.576428    0.102849
     13          8           0        2.504770    2.362388   -0.694643
     14          8           0        1.116031    1.858490    0.911163
     15          6           0       -3.449570   -0.564560   -0.513357
     16          6           0       -3.923865   -1.733412    0.350825
     17          6           0       -4.242510   -2.983833   -0.469362
     18          1           0       -4.222904   -0.329519   -1.257438
     19          1           0       -2.557423   -0.872168   -1.076249
     20          1           0       -4.814039   -1.423245    0.912966
     21          1           0       -3.149393   -1.965572    1.093059
     22          1           0       -3.357097   -3.320458   -1.018296
     23          1           0       -5.031201   -2.775048   -1.199413
     24          1           0       -4.579679   -3.807030    0.168232
     25          6           0       -3.127115    0.692717    0.292252
     26          6           0       -2.652819    1.861570   -0.571930
     27          6           0       -2.334175    3.111991    0.248256
     28          1           0       -4.019262    1.000326    0.855144
     29          1           0       -2.353782    0.457677    1.036332
     30          1           0       -3.427292    2.093730   -1.314164
     31          1           0       -1.762645    1.551402   -1.134071
     32          1           0       -1.545484    2.903206    0.978308
     33          1           0       -3.219588    3.448615    0.797192
     34          1           0       -1.997006    3.935188   -0.389337
 ---------------------------------------------------------------------

 SCF Done:  E(RHF) =  -669.536155645     A.U. after   15 cycles
 E2 =    -0.2091463992D+01 EUMP2 =    -0.67162761963642D+03

 The electronic state is 1-A.
 Alpha  occ. eigenvalues --  -20.60982 -20.60975 -15.86015 -11.31327 -11.27891
 Alpha  occ. eigenvalues --  -11.27882 -11.27620 -11.26892 -11.26882 -11.21467
 Alpha  occ. eigenvalues --  -11.21040 -11.21031 -11.20770 -11.20651 -11.19639
 Alpha  occ. eigenvalues --   -1.60038  -1.39596  -1.19493  -1.08898  -1.07927
 Alpha  occ. eigenvalues --   -1.04888  -1.02915  -0.95744  -0.95348  -0.86372
 Alpha  occ. eigenvalues --   -0.86287  -0.82577  -0.79051  -0.77691  -0.77617
 Alpha  occ. eigenvalues --   -0.72243  -0.71355  -0.70601  -0.65152  -0.64890
 Alpha  occ. eigenvalues --   -0.64562  -0.62236  -0.60298  -0.58815  -0.56949
 Alpha  occ. eigenvalues --   -0.55391  -0.54626  -0.53218  -0.52979  -0.52038
 Alpha  occ. eigenvalues --   -0.51780  -0.49382  -0.48988  -0.48897  -0.47335
 Alpha  occ. eigenvalues --   -0.46100  -0.45260  -0.45120  -0.44918  -0.43189
 Alpha  occ. eigenvalues --   -0.37470  -0.36489
 Alpha virt. eigenvalues --    0.04879   0.11159   0.16361   0.21090   0.23151
 Alpha virt. eigenvalues --    0.24861   0.26391   0.27363   0.27729   0.28678
 Alpha virt. eigenvalues --    0.28793   0.30843   0.31840   0.32090   0.32461

 Mulliken charges:
               1
     1  C   -0.170566
     2  C   -0.218519
     3  C   -0.171227
     4  C    0.157728
     5  C   -0.170599
     6  C   -0.218541
     7  H    0.226208
     8  H    0.224067
     9  H    0.275515
    10  H    0.275988
    11  H    0.223994
    12  N    0.491114
    13  O   -0.458398
    14  O   -0.463096
    15  C   -0.297763
    16  C   -0.298019
    17  C   -0.475213
    18  H    0.149517
    19  H    0.146960
    20  H    0.152587
    21  H    0.146794
    22  H    0.152924
    23  H    0.156111
    24  H    0.158332
    25  C   -0.298067
    26  C   -0.296464
    27  C   -0.481441
    28  H    0.147817
    29  H    0.148852
    30  H    0.146768
    31  H    0.151508
    32  H    0.178851
    33  H    0.145676
    34  H    0.160601
 Sum of Mulliken charges =  -0.00000

 Dipole moment (field-independent basis, Debye):
    X=              1.9805    Y=             -4.8264    Z=             -0.0210  Tot=              5.2170
 Quadrupole moment (field-independent basis, Debye-Ang):
   XX=            -84.2988   YY=            -97.7603   ZZ=            -92.7145
   XY=            -11.8616   XZ=             -2.8473   YZ=             -1.8341

 Normal termination of Gaussian 16 at Thu May  6 04:31:08 2021.
