 Gaussian 16, Revision A.03,
 Gaussian 16:  EM64L-G16RevA.03 25-Dec-2016

 -------------
 #p 6-31g* mp2
 -------------

 ------------------------------------------------------
 Input file generated by CHIRIPA (05-May-2021 14:53:17)
 ------------------------------------------------------
 Symbolic Z-matrix:
 Charge =  0 Multiplicity = 1

                         Standard orientation:
 ---------------------------------------------------------------------
 Center     Atomic      Atomic             Coordinates (Angstroms)
 Number     Number       Type             X           Y           Z
 ---------------------------------------------------------------------
      1          6           0       -4.117212   -0.281964    0.283325
      2          6           0       -3.500291   -1.658035    0.535957
      3          6           0       -2.021353   -1.582016    0.916429
      4          1           0       -3.557074    0.222862   -0.515638
      5          1           0       -4.000834    0.335427    1.184812
      6          1           0       -3.619028   -2.273111   -0.365264
      7          1           0       -4.062082   -2.159721    1.334279
      8          1           0       -1.888036   -0.990869    1.828225
      9          1           0       -1.442465   -1.104902    0.119026
     10          1           0       -1.600469   -2.576856    1.092522
     11          6           0       -5.595304   -0.341476   -0.098028
     12          6           0       -6.212225    1.034595   -0.350661
     13          6           0       -7.691162    0.958576   -0.731132
     14          1           0       -5.711682   -0.958867   -0.999515
     15          1           0       -6.155442   -0.846302    0.700934
     16          1           0       -5.650434    1.536282   -1.148983
     17          1           0       -6.093487    1.649671    0.550560
     18          1           0       -8.270050    0.481462    0.066271
     19          1           0       -7.824480    0.367429   -1.642929
     20          1           0       -8.112047    1.953416   -0.907226
     21          6           0        1.417120    1.032750    0.233774
     22          6           0        1.670396   -0.237338   -0.294666
     23          6           0        2.983338   -0.685049   -0.468696
     24          6           0        4.023735    0.167232   -0.101980
     25          6           0        3.803687    1.438040    0.427092
     26          6           0        2.482696    1.864919    0.592334
     27          1           0        0.394069    1.372451    0.365550
     28          1           0        0.844823   -0.885754   -0.574004
     29          1           0        3.207912   -1.663556   -0.875523
     30          1           0        4.647382    2.061832    0.696318
     31          1           0        2.288986    2.851784    1.002965
     32          7           0        5.417948   -0.295711   -0.281565
     33          8           0        6.317045    0.474214    0.049308
     34          8           0        5.585237   -1.419727   -0.749797
 ---------------------------------------------------------------------

 SCF Done:  E(RHF) =  -669.535469712     A.U. after   15 cycles
 E2 =    -0.2090964004D+01 EUMP2 =    -0.67162643371603D+03

 The electronic state is 1-A.
 Alpha  occ. eigenvalues --  -20.60706 -20.60701 -15.85759 -11.31108 -11.27679
 Alpha  occ. eigenvalues --  -11.27666 -11.27401 -11.26692 -11.26646 -11.22511
 Alpha  occ. eigenvalues --  -11.22275 -11.22243 -11.22195 -11.22041 -11.21556
 Alpha  occ. eigenvalues --   -1.59782  -1.39336  -1.19277  -1.09206  -1.08674
 Alpha  occ. eigenvalues --   -1.04680  -1.04316  -0.96789  -0.95512  -0.87813
 Alpha  occ. eigenvalues --   -0.86077  -0.82345  -0.80392  -0.78998  -0.77397
 Alpha  occ. eigenvalues --   -0.71978  -0.71105  -0.70384  -0.65843  -0.64930
 Alpha  occ. eigenvalues --   -0.64708  -0.62091  -0.61663  -0.60156  -0.58375
 Alpha  occ. eigenvalues --   -0.56096  -0.55170  -0.53484  -0.53257  -0.53000
 Alpha  occ. eigenvalues --   -0.52730  -0.50717  -0.48761  -0.48733  -0.48671
 Alpha  occ. eigenvalues --   -0.47408  -0.46547  -0.46446  -0.44745  -0.44557
 Alpha  occ. eigenvalues --   -0.37254  -0.36281
 Alpha virt. eigenvalues --    0.05137   0.11352   0.16634   0.19816   0.22366
 Alpha virt. eigenvalues --    0.23786   0.25351   0.26154   0.26814   0.27814
 Alpha virt. eigenvalues --    0.29104   0.30281   0.30922   0.31324   0.31549

 Mulliken charges:
               1
     1  C   -0.298932
     2  C   -0.299695
     3  C   -0.479658
     4  H    0.146442
     5  H    0.149289
     6  H    0.154379
     7  H    0.156334
     8  H    0.157908
     9  H    0.144464
    10  H    0.165370
    11  C   -0.298744
    12  C   -0.300129
    13  C   -0.476111
    14  H    0.151091
    15  H    0.151646
    16  H    0.151576
    17  H    0.151987
    18  H    0.156245
    19  H    0.156166
    20  H    0.161603
    21  C   -0.172290
    22  C   -0.221681
    23  C   -0.171739
    24  C    0.158740
    25  C   -0.171338
    26  C   -0.218699
    27  H    0.226206
    28  H    0.229057
    29  H    0.275519
    30  H    0.275272
    31  H    0.223038
    32  N    0.487974
    33  O   -0.460679
    34  O   -0.460614
 Sum of Mulliken charges =  -0.00000

 Dipole moment (field-independent basis, Debye):
    X=             -5.1657    Y=              1.5742    Z=              0.6805  Tot=              5.4430
 Quadrupole moment (field-independent basis, Debye-Ang):
   XX=           -134.5867   YY=            -90.4635   ZZ=            -94.0312
   XY=              7.7283   XZ=              3.1332   YZ=              1.8311

 Normal termination of Gaussian 16 at Thu May  6 10:42:43 2021.
