 Gaussian 16, Revision A.03,
 Gaussian 16:  EM64L-G16RevA.03 25-Dec-2016

 -------------
 #p 6-31g* mp2
 -------------

 ------------------------------------------------------
 Input file generated by CHIRIPA (05-May-2021 14:55:21)
 ------------------------------------------------------
 Symbolic Z-matrix:
 Charge =  0 Multiplicity = 1

                         Standard orientation:
 ---------------------------------------------------------------------
 Center     Atomic      Atomic             Coordinates (Angstroms)
 Number     Number       Type             X           Y           Z
 ---------------------------------------------------------------------
      1          6           0       -4.207505   -0.350075   -1.561922
      2          6           0       -3.009123   -1.059703   -1.691658
      3          6           0       -2.031744   -0.990992   -0.694383
      4          6           0       -2.286996   -0.199414    0.424340
      5          6           0       -3.470921    0.519311    0.582593
      6          6           0       -4.434179    0.435781   -0.427211
      7          1           0       -4.961272   -0.409207   -2.341495
      8          1           0       -2.830365   -1.670806   -2.571796
      9          1           0       -1.095128   -1.530034   -0.769236
     10          1           0       -3.620455    1.120098    1.471476
     11          1           0       -5.363929    0.987970   -0.323774
     12          7           0       -1.259762   -0.118829    1.486742
     13          8           0       -1.508838    0.585636    2.462614
     14          8           0       -0.224993   -0.761658    1.323463
     15          6           0        3.346724   -0.320800    0.117604
     16          6           0        3.520528   -1.620920   -0.668185
     17          6           0        3.926036   -2.798233    0.219111
     18          1           0        4.286189   -0.084665    0.635860
     19          1           0        2.588263   -0.471012    0.898352
     20          1           0        4.277440   -1.467893   -1.448111
     21          1           0        2.580598   -1.853886   -1.184785
     22          1           0        3.168729   -2.979369    0.988707
     23          1           0        4.875211   -2.591183    0.723885
     24          1           0        4.044795   -3.717423   -0.362993
     25          6           0        2.941394    0.865301   -0.755666
     26          6           0        2.767590    2.165421    0.030124
     27          6           0        2.362083    3.342733   -0.857173
     28          1           0        3.699855    1.015513   -1.536415
     29          1           0        2.001928    0.629166   -1.273922
     30          1           0        3.707519    2.398387    0.546723
     31          1           0        2.010678    2.012394    0.810049
     32          1           0        1.412907    3.135684   -1.361947
     33          1           0        3.119389    3.523870   -1.626768
     34          1           0        2.243322    4.261924   -0.275069
 ---------------------------------------------------------------------

 SCF Done:  E(RHF) =  -669.536483418     A.U. after   15 cycles
 E2 =    -0.2091640528D+01 EUMP2 =    -0.67162812394565D+03

 The electronic state is 1-A.
 Alpha  occ. eigenvalues --  -20.61051 -20.61046 -15.86080 -11.31355 -11.27914
 Alpha  occ. eigenvalues --  -11.27908 -11.27640 -11.26909 -11.26900 -11.20832
 Alpha  occ. eigenvalues --  -11.20756 -11.20562 -11.20498 -11.20304 -11.20190
 Alpha  occ. eigenvalues --   -1.60108  -1.39665  -1.19519  -1.08931  -1.07532
 Alpha  occ. eigenvalues --   -1.04908  -1.02747  -0.95781  -0.95191  -0.86310
 Alpha  occ. eigenvalues --   -0.86217  -0.82617  -0.78807  -0.77678  -0.77328
 Alpha  occ. eigenvalues --   -0.72309  -0.71420  -0.70626  -0.65181  -0.64910
 Alpha  occ. eigenvalues --   -0.64128  -0.62255  -0.60142  -0.58571  -0.56810
 Alpha  occ. eigenvalues --   -0.55413  -0.54470  -0.53242  -0.52999  -0.51938
 Alpha  occ. eigenvalues --   -0.51629  -0.49160  -0.49065  -0.49027  -0.47135
 Alpha  occ. eigenvalues --   -0.45828  -0.45190  -0.44915  -0.44580  -0.42959
 Alpha  occ. eigenvalues --   -0.37494  -0.36507
 Alpha virt. eigenvalues --    0.04826   0.11138   0.16313   0.20946   0.23360
 Alpha virt. eigenvalues --    0.24889   0.26390   0.27439   0.28314   0.28650
 Alpha virt. eigenvalues --    0.29007   0.31026   0.31752   0.32386   0.32614

 Mulliken charges:
               1
     1  C   -0.170413
     2  C   -0.218493
     3  C   -0.171318
     4  C    0.157753
     5  C   -0.170460
     6  C   -0.218551
     7  H    0.226328
     8  H    0.224283
     9  H    0.275940
    10  H    0.276006
    11  H    0.224100
    12  N    0.491404
    13  O   -0.458303
    14  O   -0.464286
    15  C   -0.309532
    16  C   -0.295752
    17  C   -0.476964
    18  H    0.144920
    19  H    0.179611
    20  H    0.146804
    21  H    0.144784
    22  H    0.162470
    23  H    0.153788
    24  H    0.154628
    25  C   -0.294395
    26  C   -0.302522
    27  C   -0.474764
    28  H    0.144003
    29  H    0.143451
    30  H    0.150511
    31  H    0.162528
    32  H    0.150869
    33  H    0.152388
    34  H    0.159187
 Sum of Mulliken charges =  -0.00000

 Dipole moment (field-independent basis, Debye):
    X=             -3.8826    Y=             -0.3093    Z=             -3.5108  Tot=              5.2437
 Quadrupole moment (field-independent basis, Debye-Ang):
   XX=            -76.5748   YY=            -94.6666   ZZ=            -97.3861
   XY=             -0.2145   XZ=              5.8423   YZ=              3.0712

 Normal termination of Gaussian 16 at Wed May  5 17:25:13 2021.
