 Gaussian 16, Revision A.03,
 Gaussian 16:  EM64L-G16RevA.03 25-Dec-2016

 -------------
 #p 6-31g* mp2
 -------------

 ------------------------------------------------------
 Input file generated by CHIRIPA (05-May-2021 14:53:17)
 ------------------------------------------------------
 Symbolic Z-matrix:
 Charge =  0 Multiplicity = 1

                         Standard orientation:
 ---------------------------------------------------------------------
 Center     Atomic      Atomic             Coordinates (Angstroms)
 Number     Number       Type             X           Y           Z
 ---------------------------------------------------------------------
      1          6           0       -5.069726   -0.053880    0.113797
      2          6           0       -5.603562   -0.677266   -1.176317
      3          6           0       -6.821957   -1.570574   -0.941144
      4          1           0       -4.808577   -0.854286    0.819557
      5          1           0       -5.869248    0.532212    0.587775
      6          1           0       -4.802863   -1.260877   -1.648434
      7          1           0       -5.863291    0.124713   -1.879160
      8          1           0       -7.639173   -0.997058   -0.491880
      9          1           0       -6.572721   -2.390520   -0.259843
     10          1           0       -7.187178   -2.005851   -1.876563
     11          6           0       -3.851727    0.841851   -0.105007
     12          6           0       -3.317891    1.465236    1.185107
     13          6           0       -2.099496    2.358545    0.949934
     14          1           0       -3.052205    0.255758   -0.578985
     15          1           0       -4.112876    1.642256   -0.810767
     16          1           0       -3.058163    0.663258    1.887950
     17          1           0       -4.118590    2.048848    1.657225
     18          1           0       -2.348732    3.178491    0.268634
     19          1           0       -1.282280    1.785028    0.500670
     20          1           0       -1.734275    2.793821    1.885353
     21          6           0        1.632231   -1.654302    1.055018
     22          6           0        2.905399   -2.213449    0.903632
     23          6           0        3.939481   -1.476616    0.318570
     24          6           0        3.664056   -0.177626   -0.105761
     25          6           0        2.406129    0.407308    0.031211
     26          6           0        1.387091   -0.348010    0.619093
     27          1           0        0.834775   -2.233871    1.510604
     28          1           0        3.098662   -3.227701    1.241253
     29          1           0        4.934445   -1.884923    0.189144
     30          1           0        2.243869    1.420801   -0.315085
     31          1           0        0.399310    0.088807    0.735380
     32          7           0        4.750829    0.612210   -0.726633
     33          8           0        4.482519    1.754565   -1.092247
     34          8           0        5.850374    0.073975   -0.835903
 ---------------------------------------------------------------------

 SCF Done:  E(RHF) =  -669.535424510     A.U. after   15 cycles
 E2 =    -0.2090849952D+01 EUMP2 =    -0.67162627446193D+03

 The electronic state is 1-A.
 Alpha  occ. eigenvalues --  -20.60737 -20.60732 -15.85791 -11.31159 -11.27732
 Alpha  occ. eigenvalues --  -11.27720 -11.27479 -11.26751 -11.26722 -11.22450
 Alpha  occ. eigenvalues --  -11.22126 -11.22111 -11.22065 -11.21985 -11.21512
 Alpha  occ. eigenvalues --   -1.59813  -1.39366  -1.19333  -1.09123  -1.08729
 Alpha  occ. eigenvalues --   -1.04738  -1.04227  -0.96681  -0.95563  -0.87698
 Alpha  occ. eigenvalues --   -0.86137  -0.82397  -0.80289  -0.78909  -0.77442
 Alpha  occ. eigenvalues --   -0.72009  -0.71136  -0.70445  -0.65781  -0.64986
 Alpha  occ. eigenvalues --   -0.64756  -0.62158  -0.61572  -0.60044  -0.58271
 Alpha  occ. eigenvalues --   -0.56004  -0.55235  -0.53366  -0.53138  -0.53067
 Alpha  occ. eigenvalues --   -0.52794  -0.50617  -0.48773  -0.48763  -0.48591
 Alpha  occ. eigenvalues --   -0.47327  -0.46452  -0.46373  -0.44771  -0.44465
 Alpha  occ. eigenvalues --   -0.37319  -0.36340
 Alpha virt. eigenvalues --    0.05094   0.11310   0.16582   0.19191   0.22540
 Alpha virt. eigenvalues --    0.23580   0.25424   0.26358   0.27068   0.28305
 Alpha virt. eigenvalues --    0.28588   0.30222   0.31004   0.31380   0.32116

 Mulliken charges:
               1
     1  C   -0.298413
     2  C   -0.300100
     3  C   -0.475983
     4  H    0.148038
     5  H    0.151566
     6  H    0.151648
     7  H    0.153734
     8  H    0.156251
     9  H    0.154678
    10  H    0.161947
    11  C   -0.298387
    12  C   -0.300711
    13  C   -0.479675
    14  H    0.145893
    15  H    0.153125
    16  H    0.148522
    17  H    0.156677
    18  H    0.162083
    19  H    0.145814
    20  H    0.164226
    21  C   -0.172194
    22  C   -0.218443
    23  C   -0.171142
    24  C    0.158593
    25  C   -0.173135
    26  C   -0.225456
    27  H    0.225769
    28  H    0.223222
    29  H    0.275531
    30  H    0.275763
    31  H    0.233344
    32  N    0.488115
    33  O   -0.460245
    34  O   -0.460657
 Sum of Mulliken charges =  -0.00000

 Dipole moment (field-independent basis, Debye):
    X=             -4.0353    Y=             -2.7140    Z=              2.1810  Tot=              5.3297
 Quadrupole moment (field-independent basis, Debye-Ang):
   XX=           -120.8436   YY=            -90.5597   ZZ=            -95.9615
   XY=            -13.7481   XZ=              9.0307   YZ=             -0.7173

 Normal termination of Gaussian 16 at Wed May  5 15:44:09 2021.
