 Gaussian 16, Revision A.03,
 Gaussian 16:  EM64L-G16RevA.03 25-Dec-2016

 -------------
 #p 6-31g* mp2
 -------------

 ------------------------------------------------------
 Input file generated by CHIRIPA (05-May-2021 14:51:08)
 ------------------------------------------------------
 Symbolic Z-matrix:
 Charge =  0 Multiplicity = 1

                         Standard orientation:
 ---------------------------------------------------------------------
 Center     Atomic      Atomic             Coordinates (Angstroms)
 Number     Number       Type             X           Y           Z
 ---------------------------------------------------------------------
      1          6           0       -3.321420   -0.008503   -0.389318
      2          6           0       -2.825125   -1.286189   -1.066956
      3          6           0       -3.940822   -2.306794   -1.293627
      4          1           0       -3.784496   -0.267382    0.572705
      5          1           0       -4.111888    0.441793   -1.005588
      6          1           0       -2.034865   -1.733199   -0.450282
      7          1           0       -2.363005   -1.024218   -2.027390
      8          1           0       -4.726840   -1.883869   -1.927592
      9          1           0       -4.396836   -2.596878   -0.341523
     10          1           0       -3.563952   -3.212388   -1.779146
     11          6           0       -2.217608    1.021483   -0.155957
     12          6           0       -2.713903    2.299169    0.521682
     13          6           0       -1.598206    3.319774    0.748353
     14          1           0       -1.427140    0.571187    0.460314
     15          1           0       -1.754532    1.280361   -1.117979
     16          1           0       -3.176023    2.037198    1.482115
     17          1           0       -3.504163    2.746179   -0.094993
     18          1           0       -1.142192    3.609858   -0.203752
     19          1           0       -0.812188    2.896849    1.382317
     20          1           0       -1.975076    4.225368    1.233871
     21          6           0        2.074034   -0.504653    0.588448
     22          6           0        1.774926   -1.763216    1.403640
     23          6           0        0.379861   -1.744722    2.029137
     24          1           0        1.972771    0.376809    1.236304
     25          1           0        1.318084   -0.400021   -0.202113
     26          1           0        2.532017   -1.866192    2.191564
     27          1           0        1.877101   -2.641797    0.753815
     28          1           0       -0.388996   -1.666297    1.253696
     29          1           0        0.269643   -0.886284    2.699613
     30          1           0        0.187057   -2.653762    2.607352
     31          6           0        3.464993   -0.508327   -0.043174
     32          6           0        3.764102    0.750237   -0.858366
     33          6           0        5.159166    0.731742   -1.483863
     34          1           0        4.220944   -0.612958    0.747388
     35          1           0        3.566257   -1.389788   -0.691029
     36          1           0        3.661928    1.628818   -0.208541
     37          1           0        3.007010    0.853212   -1.646290
     38          1           0        5.269385   -0.126695   -2.154338
     39          1           0        5.928024    0.653318   -0.708422
     40          1           0        5.351970    1.640783   -2.062078
 ---------------------------------------------------------------------

 SCF Done:  E(RHF) =  -470.733030491     A.U. after   11 cycles
 E2 =    -0.1583897653D+01 EUMP2 =    -0.47231692814393D+03

 The electronic state is 1-A.
 Alpha  occ. eigenvalues --  -11.21635 -11.21624 -11.21591 -11.21565 -11.21407
 Alpha  occ. eigenvalues --  -11.21374 -11.21347 -11.21293 -11.21125 -11.21083
 Alpha  occ. eigenvalues --  -11.21064 -11.21039  -1.08455  -1.08399  -1.03553
 Alpha  occ. eigenvalues --   -1.03517  -0.96007  -0.95959  -0.87026  -0.86977
 Alpha  occ. eigenvalues --   -0.79632  -0.79582  -0.78359  -0.78115  -0.65163
 Alpha  occ. eigenvalues --   -0.64976  -0.61043  -0.60834  -0.59371  -0.59333
 Alpha  occ. eigenvalues --   -0.57628  -0.57561  -0.55302  -0.55247  -0.52697
 Alpha  occ. eigenvalues --   -0.52671  -0.52433  -0.52387  -0.50030  -0.49853
 Alpha  occ. eigenvalues --   -0.48008  -0.47899  -0.46808  -0.46538  -0.46082
 Alpha  occ. eigenvalues --   -0.45752  -0.45703  -0.45171  -0.43799  -0.43764
 Alpha virt. eigenvalues --    0.20634   0.23173   0.23701   0.24101   0.25824
 Alpha virt. eigenvalues --    0.26374   0.26898   0.27891   0.28255   0.29468
 Alpha virt. eigenvalues --    0.30422   0.31461   0.31678   0.31887   0.32188

 Mulliken charges:
               1
     1  C   -0.297597
     2  C   -0.307530
     3  C   -0.475087
     4  H    0.149843
     5  H    0.149536
     6  H    0.157857
     7  H    0.151665
     8  H    0.155360
     9  H    0.155518
    10  H    0.160065
    11  C   -0.305660
    12  C   -0.299395
    13  C   -0.475626
    14  H    0.157942
    15  H    0.148788
    16  H    0.151905
    17  H    0.151668
    18  H    0.155227
    19  H    0.155163
    20  H    0.159953
    21  C   -0.300617
    22  C   -0.299038
    23  C   -0.486015
    24  H    0.149269
    25  H    0.152567
    26  H    0.152077
    27  H    0.152013
    28  H    0.164425
    29  H    0.154836
    30  H    0.160659
    31  C   -0.298373
    32  C   -0.299638
    33  C   -0.475732
    34  H    0.149491
    35  H    0.149662
    36  H    0.152186
    37  H    0.152104
    38  H    0.155115
    39  H    0.155143
    40  H    0.160270
 Sum of Mulliken charges =  -0.00000

 Dipole moment (field-independent basis, Debye):
    X=              0.0104    Y=             -0.0111    Z=              0.0026  Tot=              0.0154
 Quadrupole moment (field-independent basis, Debye-Ang):
   XX=            -86.0783   YY=            -85.1626   ZZ=            -83.5854
   XY=             -0.5849   XZ=              0.8056   YZ=             -0.1234

 Normal termination of Gaussian 16 at Wed May  5 22:54:16 2021.
