 Gaussian 16, Revision A.03,
 Gaussian 16:  EM64L-G16RevA.03 25-Dec-2016

 -------------
 #p 6-31g* mp2
 -------------

 ------------------------------------------------------
 Input file generated by CHIRIPA (05-May-2021 14:57:25)
 ------------------------------------------------------
 Symbolic Z-matrix:
 Charge =  0 Multiplicity = 1

                         Standard orientation:
 ---------------------------------------------------------------------
 Center     Atomic      Atomic             Coordinates (Angstroms)
 Number     Number       Type             X           Y           Z
 ---------------------------------------------------------------------
      1          6           0        2.314440    1.439212   -0.235703
      2          6           0        3.537512    2.041751   -0.548055
      3          6           0        4.727473    1.311339   -0.477062
      4          6           0        4.657314   -0.025545   -0.088333
      5          6           0        3.454244   -0.654136    0.229134
      6          6           0        2.276776    0.095561    0.151212
      7          1           0        1.394903    2.014104   -0.293544
      8          1           0        3.569781    3.085079   -0.848838
      9          1           0        5.688017    1.752862   -0.713348
     10          1           0        3.453881   -1.695960    0.525817
     11          1           0        1.328357   -0.374993    0.394368
     12          7           0        5.910460   -0.809007   -0.009508
     13          8           0        5.821800   -1.985297    0.335625
     14          8           0        6.957607   -0.231959   -0.294351
     15          6           0       -2.066547    0.104759    0.900038
     16          6           0       -2.938021    1.193698    1.006179
     17          6           0       -4.261170    1.089623    0.566871
     18          6           0       -4.681280   -0.123721    0.024108
     19          6           0       -3.837019   -1.226582   -0.095095
     20          6           0       -2.518031   -1.099783    0.350709
     21          1           0       -1.040308    0.194433    1.243825
     22          1           0       -2.590141    2.130384    1.432375
     23          1           0       -4.957023    1.916828    0.637173
     24          1           0       -4.212763   -2.147423   -0.524379
     25          1           0       -1.843453   -1.947124    0.267034
     26          7           0       -6.079836   -0.245929   -0.444406
     27          8           0       -6.425503   -1.325773   -0.918840
     28          8           0       -6.803876    0.740442   -0.328321
 ---------------------------------------------------------------------

 SCF Done:  E(RHF) =  -868.336347955     A.U. after   16 cycles
 E2 =    -0.2599760672D+01 EUMP2 =    -0.87093610862695D+03

 The electronic state is 1-A.
 Alpha  occ. eigenvalues --  -20.61344 -20.61343 -20.61338 -20.61335 -15.86403
 Alpha  occ. eigenvalues --  -15.86402 -11.31939 -11.31909 -11.28555 -11.28511
 Alpha  occ. eigenvalues --  -11.28504 -11.28474 -11.28429 -11.28336 -11.27692
 Alpha  occ. eigenvalues --  -11.27630 -11.27621 -11.27509  -1.60415  -1.60415
 Alpha  occ. eigenvalues --   -1.39964  -1.39963  -1.20139  -1.20115  -1.09538
 Alpha  occ. eigenvalues --   -1.09490  -1.05558  -1.05549  -0.96340  -0.96291
 Alpha  occ. eigenvalues --   -0.86975  -0.86947  -0.83160  -0.83123  -0.78158
 Alpha  occ. eigenvalues --   -0.78132  -0.72621  -0.72618  -0.71740  -0.71739
 Alpha  occ. eigenvalues --   -0.71377  -0.71202  -0.65809  -0.65780  -0.65670
 Alpha  occ. eigenvalues --   -0.65496  -0.62919  -0.62876  -0.56193  -0.56051
 Alpha  occ. eigenvalues --   -0.53890  -0.53856  -0.53663  -0.53642  -0.49398
 Alpha  occ. eigenvalues --   -0.49385  -0.49363  -0.49361  -0.45338  -0.45330
 Alpha  occ. eigenvalues --   -0.38177  -0.38111  -0.37151  -0.37141
 Alpha virt. eigenvalues --    0.04367   0.04412   0.10450   0.10495   0.15707
 Alpha virt. eigenvalues --    0.15858   0.17632   0.22010   0.24662   0.25997
 Alpha virt. eigenvalues --    0.27524   0.29008   0.29875   0.30740   0.32015

 Mulliken charges:
               1
     1  C   -0.170917
     2  C   -0.218137
     3  C   -0.169559
     4  C    0.159292
     5  C   -0.169849
     6  C   -0.220576
     7  H    0.223187
     8  H    0.226011
     9  H    0.278250
    10  H    0.276613
    11  H    0.214921
    12  N    0.487966
    13  O   -0.459348
    14  O   -0.458138
    15  C   -0.176677
    16  C   -0.218764
    17  C   -0.169959
    18  C    0.159576
    19  C   -0.169810
    20  C   -0.217969
    21  H    0.220250
    22  H    0.223563
    23  H    0.277815
    24  H    0.278513
    25  H    0.222541
    26  N    0.487877
    27  O   -0.458089
    28  O   -0.458582
 Sum of Mulliken charges =  -0.00000

 Dipole moment (field-independent basis, Debye):
    X=              0.4932    Y=              3.2152    Z=              1.2867  Tot=              3.4981
 Quadrupole moment (field-independent basis, Debye-Ang):
   XX=           -189.3512   YY=            -97.3375   ZZ=           -105.5437
   XY=             12.0940   XZ=             -9.7535   YZ=             -0.3189

 Normal termination of Gaussian 16 at Fri May  7 01:58:08 2021.
