 Gaussian 16, Revision A.03,
 Gaussian 16:  EM64L-G16RevA.03 25-Dec-2016

 -------------
 #p 6-31g* mp2
 -------------

 ------------------------------------------------------
 Input file generated by CHIRIPA (05-May-2021 14:55:24)
 ------------------------------------------------------
 Symbolic Z-matrix:
 Charge =  0 Multiplicity = 1

                         Standard orientation:
 ---------------------------------------------------------------------
 Center     Atomic      Atomic             Coordinates (Angstroms)
 Number     Number       Type             X           Y           Z
 ---------------------------------------------------------------------
      1          6           0       -2.397143    2.178964    0.274835
      2          6           0       -1.914914    1.041890    0.931371
      3          6           0       -2.590070   -0.177903    0.827367
      4          6           0       -3.749619   -0.224945    0.055017
      5          6           0       -4.255169    0.890437   -0.611039
      6          6           0       -3.563675    2.099748   -0.492921
      7          1           0       -1.866320    3.122457    0.361110
      8          1           0       -1.009219    1.100462    1.528306
      9          1           0       -2.238887   -1.073639    1.325107
     10          1           0       -5.160638    0.800979   -1.198866
     11          1           0       -3.940501    2.981195   -1.003899
     12          7           0       -4.473024   -1.510737   -0.062558
     13          8           0       -5.492370   -1.525949   -0.749101
     14          8           0       -4.006987   -2.478982    0.534056
     15          6           0        5.370417    0.083060    0.140470
     16          6           0        6.297125   -0.986869   -0.437847
     17          6           0        7.741187   -0.840798    0.042927
     18          1           0        5.751157    1.076287   -0.134273
     19          1           0        5.399772    0.029556    1.237589
     20          1           0        6.264970   -0.932271   -1.533566
     21          1           0        5.914029   -1.977669   -0.161857
     22          1           0        7.793585   -0.916937    1.133825
     23          1           0        8.146520    0.134401   -0.245678
     24          1           0        8.386329   -1.615755   -0.382623
     25          6           0        3.923387   -0.049700   -0.330920
     26          6           0        2.996680    1.020229    0.247396
     27          6           0        1.552618    0.874159   -0.233378
     28          1           0        3.894034    0.003804   -1.428040
     29          1           0        3.542649   -1.042927   -0.056177
     30          1           0        3.379777    2.011028   -0.028594
     31          1           0        3.028835    0.965632    1.343114
     32          1           0        1.147285   -0.101040    0.055227
     33          1           0        1.500220    0.950296   -1.324277
     34          1           0        0.907476    1.649116    0.192172
 ---------------------------------------------------------------------

 SCF Done:  E(RHF) =  -669.534628921     A.U. after   15 cycles
 E2 =    -0.2091672925D+01 EUMP2 =    -0.67162630184567D+03

 The electronic state is 1-A.
 Alpha  occ. eigenvalues --  -20.60729 -20.60724 -15.85781 -11.31141 -11.27693
 Alpha  occ. eigenvalues --  -11.27681 -11.27435 -11.26727 -11.26671 -11.22254
 Alpha  occ. eigenvalues --  -11.21896 -11.21886 -11.21864 -11.21751 -11.21317
 Alpha  occ. eigenvalues --   -1.59804  -1.39358  -1.19305  -1.08897  -1.08705
 Alpha  occ. eigenvalues --   -1.04710  -1.04025  -0.96489  -0.95542  -0.87524
 Alpha  occ. eigenvalues --   -0.86099  -0.82373  -0.80095  -0.78679  -0.77420
 Alpha  occ. eigenvalues --   -0.72001  -0.71126  -0.70420  -0.65529  -0.64962
 Alpha  occ. eigenvalues --   -0.64754  -0.62113  -0.61404  -0.59859  -0.58083
 Alpha  occ. eigenvalues --   -0.55773  -0.55209  -0.53456  -0.52971  -0.52883
 Alpha  occ. eigenvalues --   -0.52609  -0.50404  -0.48758  -0.48756  -0.48404
 Alpha  occ. eigenvalues --   -0.47114  -0.46226  -0.46134  -0.44765  -0.44277
 Alpha  occ. eigenvalues --   -0.37265  -0.36272
 Alpha virt. eigenvalues --    0.05095   0.11291   0.16572   0.20421   0.22616
 Alpha virt. eigenvalues --    0.23978   0.26153   0.26536   0.26893   0.27681
 Alpha virt. eigenvalues --    0.28832   0.30805   0.30871   0.31325   0.31675

 Mulliken charges:
               1
     1  C   -0.172084
     2  C   -0.213104
     3  C   -0.173768
     4  C    0.158754
     5  C   -0.171450
     6  C   -0.218342
     7  H    0.224846
     8  H    0.225983
     9  H    0.274961
    10  H    0.275315
    11  H    0.223166
    12  N    0.488069
    13  O   -0.460532
    14  O   -0.460623
    15  C   -0.298569
    16  C   -0.300110
    17  C   -0.475957
    18  H    0.149771
    19  H    0.149598
    20  H    0.152676
    21  H    0.153058
    22  H    0.155405
    23  H    0.155211
    24  H    0.161532
    25  C   -0.299031
    26  C   -0.300616
    27  C   -0.474847
    28  H    0.151210
    29  H    0.151250
    30  H    0.152580
    31  H    0.150264
    32  H    0.155593
    33  H    0.160405
    34  H    0.149388
 Sum of Mulliken charges =  -0.00000

 Dipole moment (field-independent basis, Debye):
    X=              2.6812    Y=              4.4985    Z=              0.3593  Tot=              5.2492
 Quadrupole moment (field-independent basis, Debye-Ang):
   XX=           -112.7481   YY=            -96.1104   ZZ=            -92.9801
   XY=            -19.3939   XZ=              0.3572   YZ=             -1.8778

 Normal termination of Gaussian 16 at Wed May  5 19:08:25 2021.
