 Gaussian 16, Revision A.03,
 Gaussian 16:  EM64L-G16RevA.03 25-Dec-2016

 -------------
 #p 6-31g* mp2
 -------------

 ------------------------------------------------------
 Input file generated by CHIRIPA (05-May-2021 14:51:08)
 ------------------------------------------------------
 Symbolic Z-matrix:
 Charge =  0 Multiplicity = 1

                         Standard orientation:
 ---------------------------------------------------------------------
 Center     Atomic      Atomic             Coordinates (Angstroms)
 Number     Number       Type             X           Y           Z
 ---------------------------------------------------------------------
      1          6           0       -2.784434    0.614792    0.602068
      2          6           0       -1.558468    0.481261    1.506038
      3          6           0       -0.958155    1.833586    1.891575
      4          1           0       -2.504090    1.165480   -0.306279
      5          1           0       -3.544178    1.221817    1.113639
      6          1           0       -0.801805   -0.126489    0.993479
      7          1           0       -1.841717   -0.069340    2.412252
      8          1           0       -1.693974    2.443561    2.425525
      9          1           0       -0.648153    2.386087    0.998690
     10          1           0       -0.082927    1.714717    2.537875
     11          6           0       -3.395812   -0.728601    0.208061
     12          6           0       -4.621778   -0.595070   -0.695909
     13          6           0       -5.222090   -1.947395   -1.081445
     14          1           0       -2.636068   -1.335626   -0.303509
     15          1           0       -3.676156   -1.279289    1.116408
     16          1           0       -4.338529   -0.044469   -1.602122
     17          1           0       -5.378441    0.012680   -0.183349
     18          1           0       -5.532092   -2.499896   -0.188561
     19          1           0       -4.486272   -2.557370   -1.615395
     20          1           0       -6.097319   -1.828526   -1.727746
     21          6           0        3.286921   -0.445718    0.135373
     22          6           0        4.358216   -1.437221   -0.319854
     23          6           0        4.741371   -2.436315    0.772299
     24          1           0        3.649962    0.096405    1.019255
     25          1           0        2.394484   -1.001724    0.454448
     26          1           0        5.247866   -0.879451   -0.639279
     27          1           0        3.992659   -1.976911   -1.202871
     28          1           0        3.868487   -3.018136    1.085602
     29          1           0        5.130825   -1.914440    1.652396
     30          1           0        5.508527   -3.135631    0.425472
     31          6           0        2.893325    0.559527   -0.945503
     32          6           0        1.822029    1.551030   -0.490276
     33          6           0        1.438875    2.550124   -1.582429
     34          1           0        3.785762    1.115533   -1.264578
     35          1           0        2.530284    0.017403   -1.829386
     36          1           0        2.187586    2.090721    0.392740
     37          1           0        0.932380    0.993260   -0.170851
     38          1           0        1.049419    2.028249   -2.462526
     39          1           0        2.311759    3.131945   -1.895732
     40          1           0        0.671719    3.249440   -1.235602
 ---------------------------------------------------------------------

 SCF Done:  E(RHF) =  -470.731976306     A.U. after   11 cycles
 E2 =    -0.1584324484D+01 EUMP2 =    -0.47231630078986D+03

 The electronic state is 1-A.
 Alpha  occ. eigenvalues --  -11.21619 -11.21614 -11.21608 -11.21521 -11.21427
 Alpha  occ. eigenvalues --  -11.21405 -11.21367 -11.21341 -11.21111 -11.21088
 Alpha  occ. eigenvalues --  -11.21075 -11.20984  -1.08485  -1.08400  -1.03631
 Alpha  occ. eigenvalues --   -1.03451  -0.96049  -0.95929  -0.87020  -0.86986
 Alpha  occ. eigenvalues --   -0.79643  -0.79568  -0.78278  -0.78242  -0.65276
 Alpha  occ. eigenvalues --   -0.64920  -0.61270  -0.60707  -0.59377  -0.59298
 Alpha  occ. eigenvalues --   -0.57685  -0.57542  -0.55336  -0.55166  -0.52704
 Alpha  occ. eigenvalues --   -0.52655  -0.52484  -0.52327  -0.49940  -0.49911
 Alpha  occ. eigenvalues --   -0.47963  -0.47851  -0.46760  -0.46527  -0.45937
 Alpha  occ. eigenvalues --   -0.45779  -0.45728  -0.45464  -0.43796  -0.43776
 Alpha virt. eigenvalues --    0.20683   0.23159   0.23474   0.24514   0.25698
 Alpha virt. eigenvalues --    0.26367   0.26678   0.27629   0.28527   0.29226
 Alpha virt. eigenvalues --    0.30578   0.30774   0.31642   0.32121   0.32488

 Mulliken charges:
               1
     1  C   -0.298836
     2  C   -0.304540
     3  C   -0.479678
     4  H    0.149827
     5  H    0.150042
     6  H    0.153055
     7  H    0.152947
     8  H    0.154856
     9  H    0.160947
    10  H    0.160954
    11  C   -0.298205
    12  C   -0.299690
    13  C   -0.475708
    14  H    0.149009
    15  H    0.149791
    16  H    0.152018
    17  H    0.152060
    18  H    0.155224
    19  H    0.155067
    20  H    0.160351
    21  C   -0.298861
    22  C   -0.299592
    23  C   -0.475724
    24  H    0.149692
    25  H    0.149294
    26  H    0.152082
    27  H    0.151840
    28  H    0.155230
    29  H    0.155198
    30  H    0.160269
    31  C   -0.297479
    32  C   -0.307569
    33  C   -0.478349
    34  H    0.149255
    35  H    0.148836
    36  H    0.152831
    37  H    0.162197
    38  H    0.154802
    39  H    0.155881
    40  H    0.160678
 Sum of Mulliken charges =  -0.00000

 Dipole moment (field-independent basis, Debye):
    X=             -0.0021    Y=              0.0126    Z=              0.0147  Tot=              0.0195
 Quadrupole moment (field-independent basis, Debye-Ang):
   XX=            -84.3573   YY=            -85.8272   ZZ=            -84.6478
   XY=              0.2945   XZ=             -0.6715   YZ=              0.4661

 Normal termination of Gaussian 16 at Wed May  5 19:42:17 2021.
