 Gaussian 16, Revision A.03,
 Gaussian 16:  EM64L-G16RevA.03 25-Dec-2016

 -------------
 #p 6-31g* mp2
 -------------

 ------------------------------------------------------
 Input file generated by CHIRIPA (05-May-2021 14:57:21)
 ------------------------------------------------------
 Symbolic Z-matrix:
 Charge =  0 Multiplicity = 1

                         Standard orientation:
 ---------------------------------------------------------------------
 Center     Atomic      Atomic             Coordinates (Angstroms)
 Number     Number       Type             X           Y           Z
 ---------------------------------------------------------------------
      1          6           0        0.502244   -0.833987    1.436263
      2          6           0        1.056800   -1.683301    0.473115
      3          6           0        2.268973   -1.360929   -0.144348
      4          6           0        2.902478   -0.176009    0.227036
      5          6           0        2.375335    0.690741    1.183149
      6          6           0        1.162118    0.348239    1.787587
      7          1           0       -0.439807   -1.092232    1.910864
      8          1           0        0.546548   -2.602085    0.198298
      9          1           0        2.720682   -2.000300   -0.893069
     10          1           0        2.907314    1.599771    1.436293
     11          1           0        0.733789    1.009729    2.535257
     12          7           0        4.186304    0.175927   -0.419750
     13          8           0        4.724721    1.225634   -0.074992
     14          8           0        4.629840   -0.604597   -1.259211
     15          6           0       -2.122499    2.688322   -0.472295
     16          6           0       -1.384707    1.756199   -1.209405
     17          6           0       -1.690769    0.393814   -1.140260
     18          6           0       -2.745837   -0.003261   -0.320229
     19          6           0       -3.499487    0.901196    0.426270
     20          6           0       -3.175678    2.258603    0.341755
     21          1           0       -1.877850    3.744722   -0.531978
     22          1           0       -0.566261    2.087052   -1.842436
     23          1           0       -1.135979   -0.349193   -1.700231
     24          1           0       -4.309740    0.541111    1.048562
     25          1           0       -3.750375    2.980258    0.915323
     26          7           0       -3.079246   -1.442922   -0.238893
     27          8           0       -4.013503   -1.767185    0.490939
     28          8           0       -2.400001   -2.219805   -0.906513
 ---------------------------------------------------------------------

 SCF Done:  E(RHF) =  -868.338898250     A.U. after   16 cycles
 E2 =    -0.2602605267D+01 EUMP2 =    -0.87094150351763D+03

 The electronic state is 1-A.
 Alpha  occ. eigenvalues --  -20.61760 -20.61737 -20.60928 -20.60915 -15.86772
 Alpha  occ. eigenvalues --  -15.85972 -11.31871 -11.31273 -11.28467 -11.28382
 Alpha  occ. eigenvalues --  -11.28118 -11.27844 -11.27751 -11.27460 -11.27396
 Alpha  occ. eigenvalues --  -11.27297 -11.26827 -11.26614  -1.60829  -1.60005
 Alpha  occ. eigenvalues --   -1.40384  -1.39558  -1.20051  -1.19417  -1.09488
 Alpha  occ. eigenvalues --   -1.08811  -1.05391  -1.04785  -0.96357  -0.95666
 Alpha  occ. eigenvalues --   -0.86806  -0.86164  -0.83185  -0.82484  -0.78269
 Alpha  occ. eigenvalues --   -0.77548  -0.72989  -0.72228  -0.72164  -0.71337
 Alpha  occ. eigenvalues --   -0.71136  -0.70472  -0.65688  -0.65375  -0.65041
 Alpha  occ. eigenvalues --   -0.64711  -0.62737  -0.62102  -0.55901  -0.55278
 Alpha  occ. eigenvalues --   -0.54018  -0.53474  -0.52892  -0.52819  -0.49763
 Alpha  occ. eigenvalues --   -0.49724  -0.48950  -0.48935  -0.45830  -0.44978
 Alpha  occ. eigenvalues --   -0.38231  -0.37588  -0.36536  -0.36381
 Alpha virt. eigenvalues --    0.04188   0.04912   0.10472   0.11444   0.15717
 Alpha virt. eigenvalues --    0.16455   0.20856   0.21509   0.26791   0.27276
 Alpha virt. eigenvalues --    0.27948   0.28045   0.30550   0.30994   0.31915

 Mulliken charges:
               1
     1  C   -0.173436
     2  C   -0.224178
     3  C   -0.176546
     4  C    0.156881
     5  C   -0.175024
     6  C   -0.216393
     7  H    0.228479
     8  H    0.241598
     9  H    0.276760
    10  H    0.273320
    11  H    0.221806
    12  N    0.487715
    13  O   -0.462122
    14  O   -0.459663
    15  C   -0.171444
    16  C   -0.217515
    17  C   -0.163760
    18  C    0.150563
    19  C   -0.174450
    20  C   -0.220554
    21  H    0.228585
    22  H    0.228709
    23  H    0.276332
    24  H    0.275634
    25  H    0.224824
    26  N    0.486423
    27  O   -0.458223
    28  O   -0.464321
 Sum of Mulliken charges =  -0.00000

 Dipole moment (field-independent basis, Debye):
    X=             -3.4544    Y=              3.8192    Z=              1.9246  Tot=              5.4976
 Quadrupole moment (field-independent basis, Debye-Ang):
   XX=           -136.4830   YY=           -101.0086   ZZ=           -101.0209
   XY=            -17.8626   XZ=              3.4435   YZ=              0.8532

 Normal termination of Gaussian 16 at Thu May  6 00:08:13 2021.
