 Gaussian 16, Revision A.03,
 Gaussian 16:  EM64L-G16RevA.03 25-Dec-2016

 -------------
 #p 6-31g* mp2
 -------------

 ------------------------------------------------------
 Input file generated by CHIRIPA (05-May-2021 14:51:09)
 ------------------------------------------------------
 Symbolic Z-matrix:
 Charge =  0 Multiplicity = 1

                         Standard orientation:
 ---------------------------------------------------------------------
 Center     Atomic      Atomic             Coordinates (Angstroms)
 Number     Number       Type             X           Y           Z
 ---------------------------------------------------------------------
      1          6           0       -3.360894    0.373860    0.894804
      2          6           0       -1.839853    0.316035    0.749635
      3          6           0       -1.115108    1.200874    1.764327
      4          1           0       -3.694482    1.414330    0.780406
      5          1           0       -3.636966    0.067288    1.913231
      6          1           0       -1.566824    0.621297   -0.268641
      7          1           0       -1.509866   -0.724446    0.864202
      8          1           0       -1.358514    0.893663    2.786568
      9          1           0       -1.415795    2.247052    1.647288
     10          1           0       -0.028889    1.144429    1.642661
     11          6           0       -4.099478   -0.505480   -0.112659
     12          6           0       -5.620520   -0.447654    0.032510
     13          6           0       -6.345264   -1.332493   -0.982182
     14          1           0       -3.823406   -0.198908   -1.131086
     15          1           0       -3.765890   -1.545950    0.001739
     16          1           0       -5.950506    0.592826   -0.082057
     17          1           0       -5.893548   -0.752917    1.050786
     18          1           0       -6.044577   -2.378672   -0.865144
     19          1           0       -6.101858   -1.025283   -2.004423
     20          1           0       -7.431483   -1.276049   -0.860516
     21          6           0        3.309443    0.702617   -0.420804
     22          6           0        2.037869    0.550785   -1.256286
     23          6           0        1.206725    1.833164   -1.306252
     24          1           0        3.036229    1.004175    0.599667
     25          1           0        3.917193    1.518628   -0.835729
     26          1           0        1.433355   -0.265610   -0.840740
     27          1           0        2.314131    0.249367   -2.274836
     28          1           0        1.788373    2.652527   -1.740912
     29          1           0        0.902593    2.134625   -0.298667
     30          1           0        0.302398    1.702242   -1.908674
     31          6           0        4.150929   -0.570997   -0.361341
     32          6           0        5.422503   -0.419165    0.474142
     33          6           0        6.253648   -1.701544    0.524107
     34          1           0        3.543179   -1.387007    0.053585
     35          1           0        4.424143   -0.872555   -1.381812
     36          1           0        5.146242   -0.117747    1.492691
     37          1           0        6.027017    0.397229    0.058595
     38          1           0        6.557779   -2.003004   -0.483477
     39          1           0        5.671999   -2.520907    0.958767
     40          1           0        7.157975   -1.570622    1.126529
 ---------------------------------------------------------------------

 SCF Done:  E(RHF) =  -470.732684639     A.U. after   11 cycles
 E2 =    -0.1583505991D+01 EUMP2 =    -0.47231619063003D+03

 The electronic state is 1-A.
 Alpha  occ. eigenvalues --  -11.21604 -11.21600 -11.21583 -11.21581 -11.21409
 Alpha  occ. eigenvalues --  -11.21408 -11.21349 -11.21349 -11.21094 -11.21074
 Alpha  occ. eigenvalues --  -11.21070 -11.20997  -1.08454  -1.08408  -1.03598
 Alpha  occ. eigenvalues --   -1.03462  -0.96066  -0.95901  -0.87048  -0.86954
 Alpha  occ. eigenvalues --   -0.79612  -0.79571  -0.78257  -0.78228  -0.65135
 Alpha  occ. eigenvalues --   -0.65014  -0.61161  -0.60817  -0.59350  -0.59311
 Alpha  occ. eigenvalues --   -0.57619  -0.57581  -0.55431  -0.55063  -0.52724
 Alpha  occ. eigenvalues --   -0.52669  -0.52468  -0.52305  -0.49975  -0.49829
 Alpha  occ. eigenvalues --   -0.47989  -0.47830  -0.46622  -0.46594  -0.45810
 Alpha  occ. eigenvalues --   -0.45772  -0.45702  -0.45682  -0.43805  -0.43743
 Alpha virt. eigenvalues --    0.20431   0.23012   0.23573   0.25365   0.25788
 Alpha virt. eigenvalues --    0.26550   0.26636   0.27646   0.27900   0.29182
 Alpha virt. eigenvalues --    0.30352   0.31117   0.31274   0.31894   0.32658

 Mulliken charges:
               1
     1  C   -0.298309
     2  C   -0.303486
     3  C   -0.478537
     4  H    0.149783
     5  H    0.149400
     6  H    0.157851
     7  H    0.151116
     8  H    0.155423
     9  H    0.155452
    10  H    0.161481
    11  C   -0.298247
    12  C   -0.299652
    13  C   -0.475712
    14  H    0.149383
    15  H    0.149595
    16  H    0.151995
    17  H    0.151938
    18  H    0.155164
    19  H    0.155190
    20  H    0.160273
    21  C   -0.299181
    22  C   -0.301891
    23  C   -0.480572
    24  H    0.149344
    25  H    0.149810
    26  H    0.154000
    27  H    0.152013
    28  H    0.154658
    29  H    0.162053
    30  H    0.159453
    31  C   -0.298223
    32  C   -0.299680
    33  C   -0.475708
    34  H    0.149519
    35  H    0.149755
    36  H    0.151978
    37  H    0.151955
    38  H    0.155178
    39  H    0.155170
    40  H    0.160269
 Sum of Mulliken charges =  -0.00000

 Dipole moment (field-independent basis, Debye):
    X=             -0.0093    Y=              0.0075    Z=             -0.0009  Tot=              0.0120
 Quadrupole moment (field-independent basis, Debye-Ang):
   XX=            -85.5085   YY=            -85.1514   ZZ=            -84.1785
   XY=              0.2992   XZ=             -0.9199   YZ=             -1.0362

 Normal termination of Gaussian 16 at Wed May  5 15:06:25 2021.
