 Gaussian 16, Revision A.03,
 Gaussian 16:  EM64L-G16RevA.03 25-Dec-2016

 -------------
 #p 6-31g* mp2
 -------------

 ------------------------------------------------------
 Input file generated by CHIRIPA (05-May-2021 14:57:22)
 ------------------------------------------------------
 Symbolic Z-matrix:
 Charge =  0 Multiplicity = 1

                         Standard orientation:
 ---------------------------------------------------------------------
 Center     Atomic      Atomic             Coordinates (Angstroms)
 Number     Number       Type             X           Y           Z
 ---------------------------------------------------------------------
      1          6           0       -6.241736    0.019023   -0.013214
      2          6           0       -5.558441    0.088146    1.205331
      3          6           0       -4.162645    0.017556    1.241662
      4          6           0       -3.478792   -0.122752    0.035035
      5          6           0       -4.130978   -0.194505   -1.194923
      6          6           0       -5.527084   -0.121834   -1.207346
      7          1           0       -7.326144    0.074667   -0.032150
      8          1           0       -6.110844    0.197534    2.134271
      9          1           0       -3.608426    0.068525    2.170995
     10          1           0       -3.552859   -0.303578   -2.104483
     11          1           0       -6.055095   -0.175782   -2.155153
     12          7           0       -2.000961   -0.198585    0.060842
     13          8           0       -1.421666   -0.322172   -1.016089
     14          8           0       -1.449916   -0.132999    1.157511
     15          6           0        4.538388   -2.274577    0.081431
     16          6           0        5.445627   -1.217577    0.208670
     17          6           0        5.004709    0.107741    0.148064
     18          6           0        3.643465    0.340811   -0.041630
     19          6           0        2.714968   -0.690806   -0.171817
     20          6           0        3.178352   -2.008288   -0.108072
     21          1           0        4.889630   -3.301073    0.129731
     22          1           0        6.502423   -1.421399    0.355922
     23          1           0        5.685361    0.945005    0.243554
     24          1           0        1.667548   -0.456205   -0.317741
     25          1           0        2.471505   -2.827179   -0.207203
     26          7           0        3.164793    1.739718   -0.107452
     27          8           0        1.960430    1.918526   -0.275302
     28          8           0        4.003037    2.630884    0.010053
 ---------------------------------------------------------------------

 SCF Done:  E(RHF) =  -868.339829247     A.U. after   16 cycles
 E2 =    -0.2599353672D+01 EUMP2 =    -0.87093918291869D+03

 The electronic state is 1-A.
 Alpha  occ. eigenvalues --  -20.61033 -20.61013 -20.59512 -20.59446 -15.86004
 Alpha  occ. eigenvalues --  -15.84533 -11.31259 -11.29869 -11.27809 -11.27803
 Alpha  occ. eigenvalues --  -11.27540 -11.26803 -11.26793 -11.26588 -11.26345
 Alpha  occ. eigenvalues --  -11.26242 -11.25615 -11.25448  -1.60045  -1.58566
 Alpha  occ. eigenvalues --   -1.39605  -1.38110  -1.19416  -1.18089  -1.08837
 Alpha  occ. eigenvalues --   -1.07518  -1.04801  -1.03475  -0.95691  -0.94331
 Alpha  occ. eigenvalues --   -0.86206  -0.84886  -0.82527  -0.81153  -0.77588
 Alpha  occ. eigenvalues --   -0.76165  -0.72224  -0.71330  -0.70757  -0.70528
 Alpha  occ. eigenvalues --   -0.69893  -0.69209  -0.65073  -0.64808  -0.63746
 Alpha  occ. eigenvalues --   -0.63497  -0.62149  -0.60779  -0.55316  -0.54053
 Alpha  occ. eigenvalues --   -0.53134  -0.52894  -0.51846  -0.51571  -0.48989
 Alpha  occ. eigenvalues --   -0.48980  -0.47543  -0.47481  -0.45026  -0.43521
 Alpha  occ. eigenvalues --   -0.37391  -0.36396  -0.36140  -0.35084
 Alpha virt. eigenvalues --    0.04954   0.06337   0.11260   0.12558   0.16467
 Alpha virt. eigenvalues --    0.17787   0.21387   0.22655   0.27314   0.28253
 Alpha virt. eigenvalues --    0.28575   0.29663   0.30962   0.32136   0.32518

 Mulliken charges:
               1
     1  C   -0.170314
     2  C   -0.218642
     3  C   -0.170208
     4  C    0.159162
     5  C   -0.170219
     6  C   -0.218619
     7  H    0.226013
     8  H    0.223959
     9  H    0.276339
    10  H    0.275924
    11  H    0.223847
    12  N    0.490325
    13  O   -0.462732
    14  O   -0.458419
    15  C   -0.171275
    16  C   -0.220332
    17  C   -0.171823
    18  C    0.154597
    19  C   -0.175509
    20  C   -0.222018
    21  H    0.220514
    22  H    0.218185
    23  H    0.271501
    24  H    0.300525
    25  H    0.223029
    26  N    0.486769
    27  O   -0.452010
    28  O   -0.468569
 Sum of Mulliken charges =  -0.00000

 Dipole moment (field-independent basis, Debye):
    X=             -4.1085    Y=             -4.6097    Z=              0.1372  Tot=              6.1763
 Quadrupole moment (field-independent basis, Debye-Ang):
   XX=            -54.4751   YY=           -109.6779   ZZ=           -100.5915
   XY=            -16.1400   XZ=              1.4510   YZ=              1.0728

 Normal termination of Gaussian 16 at Thu May  6 04:56:36 2021.
