 Gaussian 16, Revision A.03,
 Gaussian 16:  EM64L-G16RevA.03 25-Dec-2016

 -------------
 #p 6-31g* mp2
 -------------

 ------------------------------------------------------
 Input file generated by CHIRIPA (05-May-2021 14:53:13)
 ------------------------------------------------------
 Symbolic Z-matrix:
 Charge =  0 Multiplicity = 1

                         Standard orientation:
 ---------------------------------------------------------------------
 Center     Atomic      Atomic             Coordinates (Angstroms)
 Number     Number       Type             X           Y           Z
 ---------------------------------------------------------------------
      1          6           0       -3.454275    0.783780   -0.382160
      2          6           0       -2.533121    1.782933    0.318663
      3          6           0       -2.945636    3.235664    0.079499
      4          1           0       -3.458194    0.992509   -1.460753
      5          1           0       -4.484116    0.936115   -0.030569
      6          1           0       -1.505107    1.627836   -0.033118
      7          1           0       -2.531245    1.571680    1.395689
      8          1           0       -3.961518    3.413159    0.447031
      9          1           0       -2.929550    3.469634   -0.989893
     10          1           0       -2.273676    3.932971    0.589492
     11          6           0       -3.054781   -0.672718   -0.152496
     12          6           0       -3.975935   -1.671872   -0.853319
     13          6           0       -3.563420   -3.124602   -0.614156
     14          1           0       -2.024940   -0.825054   -0.504087
     15          1           0       -3.050862   -0.881447    0.926096
     16          1           0       -3.977811   -1.460619   -1.930345
     17          1           0       -5.003949   -1.516775   -0.501539
     18          1           0       -3.579506   -3.358573    0.455237
     19          1           0       -2.547538   -3.302098   -0.981688
     20          1           0       -4.235379   -3.821909   -1.124149
     21          6           0        4.076980    0.184197   -1.781077
     22          6           0        2.994789    1.057121   -1.628145
     23          6           0        2.138106    0.940297   -0.529512
     24          6           0        2.394262   -0.065385    0.401229
     25          6           0        3.464105   -0.950381    0.276702
     26          6           0        4.307778   -0.815006   -0.829843
     27          1           0        4.737418    0.282154   -2.637594
     28          1           0        2.813125    1.834054   -2.365314
     29          1           0        1.292925    1.602603   -0.386549
     30          1           0        3.619659   -1.714972    1.028114
     31          1           0        5.147447   -1.494343   -0.946036
     32          7           0        1.494217   -0.198880    1.568491
     33          8           0        1.741453   -1.093240    2.374488
     34          8           0        0.558570    0.593374    1.655291
 ---------------------------------------------------------------------

 SCF Done:  E(RHF) =  -669.535565164     A.U. after   15 cycles
 E2 =    -0.2091879149D+01 EUMP2 =    -0.67162744431246D+03

 The electronic state is 1-A.
 Alpha  occ. eigenvalues --  -20.60870 -20.60856 -15.85898 -11.31268 -11.27837
 Alpha  occ. eigenvalues --  -11.27828 -11.27573 -11.26850 -11.26840 -11.21064
 Alpha  occ. eigenvalues --  -11.20726 -11.20651 -11.20626 -11.20589 -11.20479
 Alpha  occ. eigenvalues --   -1.59931  -1.39486  -1.19438  -1.08834  -1.07739
 Alpha  occ. eigenvalues --   -1.04841  -1.02883  -0.95670  -0.95371  -0.86387
 Alpha  occ. eigenvalues --   -0.86239  -0.82506  -0.78926  -0.77668  -0.77380
 Alpha  occ. eigenvalues --   -0.72117  -0.71245  -0.70546  -0.65093  -0.64850
 Alpha  occ. eigenvalues --   -0.64383  -0.62193  -0.60294  -0.58722  -0.56954
 Alpha  occ. eigenvalues --   -0.55341  -0.54681  -0.53170  -0.52934  -0.52077
 Alpha  occ. eigenvalues --   -0.51781  -0.49338  -0.48900  -0.48885  -0.47220
 Alpha  occ. eigenvalues --   -0.45951  -0.45267  -0.44988  -0.44628  -0.43132
 Alpha  occ. eigenvalues --   -0.37418  -0.36444
 Alpha virt. eigenvalues --    0.04963   0.11185   0.16452   0.20850   0.23300
 Alpha virt. eigenvalues --    0.24467   0.26071   0.27559   0.27710   0.28578
 Alpha virt. eigenvalues --    0.28993   0.30544   0.31554   0.32189   0.32465

 Mulliken charges:
               1
     1  C   -0.299286
     2  C   -0.299584
     3  C   -0.476751
     4  H    0.143178
     5  H    0.147446
     6  H    0.154720
     7  H    0.164413
     8  H    0.153939
     9  H    0.148298
    10  H    0.159409
    11  C   -0.295679
    12  C   -0.299353
    13  C   -0.474958
    14  H    0.146566
    15  H    0.157277
    16  H    0.148166
    17  H    0.150897
    18  H    0.157782
    19  H    0.153312
    20  H    0.157538
    21  C   -0.170535
    22  C   -0.219599
    23  C   -0.172983
    24  C    0.156994
    25  C   -0.170575
    26  C   -0.218621
    27  H    0.225909
    28  H    0.224014
    29  H    0.279754
    30  H    0.275862
    31  H    0.223765
    32  N    0.490032
    33  O   -0.459861
    34  O   -0.461486
 Sum of Mulliken charges =  -0.00000

 Dipole moment (field-independent basis, Debye):
    X=              3.3283    Y=              0.4210    Z=             -3.9112  Tot=              5.1529
 Quadrupole moment (field-independent basis, Debye-Ang):
   XX=            -78.7071   YY=            -93.9230   ZZ=            -97.4739
   XY=             -1.2009   XZ=             -8.9369   YZ=             -0.9418

 Normal termination of Gaussian 16 at Thu May  6 05:46:26 2021.
