 Gaussian 16, Revision A.03,
 Gaussian 16:  EM64L-G16RevA.03 25-Dec-2016

 -------------
 #p 6-31g* mp2
 -------------

 ------------------------------------------------------
 Input file generated by CHIRIPA (05-May-2021 14:55:21)
 ------------------------------------------------------
 Symbolic Z-matrix:
 Charge =  0 Multiplicity = 1

                         Standard orientation:
 ---------------------------------------------------------------------
 Center     Atomic      Atomic             Coordinates (Angstroms)
 Number     Number       Type             X           Y           Z
 ---------------------------------------------------------------------
      1          6           0        2.022143   -0.876001    2.410795
      2          6           0        3.234857   -1.193351    1.790202
      3          6           0        3.486742   -0.789575    0.475643
      4          6           0        2.499271   -0.066584   -0.191796
      5          6           0        1.281082    0.265009    0.399264
      6          6           0        1.050839   -0.149115    1.714573
      7          1           0        1.834879   -1.193683    3.432268
      8          1           0        3.991010   -1.757747    2.328472
      9          1           0        4.416820   -1.021661   -0.028846
     10          1           0        0.546545    0.828818   -0.162868
     11          1           0        0.108111    0.098768    2.194013
     12          7           0        2.754474    0.366353   -1.583858
     13          8           0        1.868273    1.002303   -2.150295
     14          8           0        3.835873    0.061542   -2.082160
     15          6           0       -3.370243   -0.529732    0.136092
     16          6           0       -3.636588   -1.417838   -1.079767
     17          6           0       -4.085951   -2.827720   -0.694929
     18          1           0       -2.603484   -1.001417    0.765805
     19          1           0       -4.282647   -0.471204    0.745592
     20          1           0       -2.724366   -1.473555   -1.687520
     21          1           0       -4.402665   -0.943892   -1.706759
     22          1           0       -5.009158   -2.790939   -0.107616
     23          1           0       -3.321324   -3.323611   -0.088268
     24          1           0       -4.270801   -3.445558   -1.579218
     25          6           0       -2.920215    0.882852   -0.232430
     26          6           0       -2.653870    1.770957    0.983428
     27          6           0       -2.204507    3.180839    0.598590
     28          1           0       -2.007811    0.824322   -0.841931
     29          1           0       -3.686974    1.354535   -0.862144
     30          1           0       -1.887793    1.297011    1.610419
     31          1           0       -3.566093    1.826674    1.591181
     32          1           0       -2.969135    3.676730   -0.008071
     33          1           0       -1.281299    3.144058    0.011276
     34          1           0       -2.019657    3.798676    1.482878
 ---------------------------------------------------------------------

 SCF Done:  E(RHF) =  -669.535287082     A.U. after   15 cycles
 E2 =    -0.2092625450D+01 EUMP2 =    -0.67162791253251D+03

 The electronic state is 1-A.
 Alpha  occ. eigenvalues --  -20.60793 -20.60786 -15.85844 -11.31202 -11.27772
 Alpha  occ. eigenvalues --  -11.27765 -11.27510 -11.26786 -11.26761 -11.22372
 Alpha  occ. eigenvalues --  -11.21927 -11.21871 -11.21817 -11.21580 -11.21297
 Alpha  occ. eigenvalues --   -1.59867  -1.39421  -1.19375  -1.08943  -1.08770
 Alpha  occ. eigenvalues --   -1.04780  -1.03989  -0.96410  -0.95607  -0.87427
 Alpha  occ. eigenvalues --   -0.86179  -0.82444  -0.80067  -0.78731  -0.77496
 Alpha  occ. eigenvalues --   -0.72063  -0.71189  -0.70495  -0.65648  -0.65013
 Alpha  occ. eigenvalues --   -0.64794  -0.62218  -0.61269  -0.59788  -0.58017
 Alpha  occ. eigenvalues --   -0.55703  -0.55276  -0.53118  -0.53104  -0.52908
 Alpha  occ. eigenvalues --   -0.52794  -0.50362  -0.48825  -0.48819  -0.48357
 Alpha  occ. eigenvalues --   -0.47112  -0.46260  -0.46171  -0.44828  -0.44244
 Alpha  occ. eigenvalues --   -0.37354  -0.36376
 Alpha virt. eigenvalues --    0.05028   0.11248   0.16489   0.18253   0.23012
 Alpha virt. eigenvalues --    0.23633   0.24500   0.25585   0.27599   0.28460
 Alpha virt. eigenvalues --    0.29792   0.29989   0.31387   0.31472   0.32190

 Mulliken charges:
               1
     1  C   -0.171047
     2  C   -0.218744
     3  C   -0.170202
     4  C    0.158570
     5  C   -0.178959
     6  C   -0.226573
     7  H    0.226224
     8  H    0.223523
     9  H    0.275655
    10  H    0.283203
    11  H    0.231127
    12  N    0.487604
    13  O   -0.461021
    14  O   -0.460177
    15  C   -0.298073
    16  C   -0.300770
    17  C   -0.476038
    18  H    0.143795
    19  H    0.150432
    20  H    0.156545
    21  H    0.154122
    22  H    0.154726
    23  H    0.154193
    24  H    0.162707
    25  C   -0.303960
    26  C   -0.305668
    27  C   -0.477731
    28  H    0.153515
    29  H    0.155642
    30  H    0.141041
    31  H    0.156121
    32  H    0.160602
    33  H    0.158464
    34  H    0.161153
 Sum of Mulliken charges =  -0.00000

 Dipole moment (field-independent basis, Debye):
    X=             -1.0313    Y=             -1.4837    Z=              4.7904  Tot=              5.1198
 Quadrupole moment (field-independent basis, Debye-Ang):
   XX=            -93.8281   YY=            -94.9648   ZZ=            -97.3070
   XY=             -6.9774   XZ=             13.1189   YZ=             -0.0811

 Normal termination of Gaussian 16 at Thu May  6 06:13:26 2021.
