 Gaussian 16, Revision A.03,
 Gaussian 16:  EM64L-G16RevA.03 25-Dec-2016

 -------------
 #p 6-31g* mp2
 -------------

 ------------------------------------------------------
 Input file generated by CHIRIPA (05-May-2021 14:53:12)
 ------------------------------------------------------
 Symbolic Z-matrix:
 Charge =  0 Multiplicity = 1

                         Standard orientation:
 ---------------------------------------------------------------------
 Center     Atomic      Atomic             Coordinates (Angstroms)
 Number     Number       Type             X           Y           Z
 ---------------------------------------------------------------------
      1          6           0       -2.412207    0.942329    0.187399
      2          6           0       -1.733430    2.101815   -0.542558
      3          6           0       -0.376446    2.466497    0.060264
      4          1           0       -2.539018    1.207766    1.245892
      5          1           0       -1.751058    0.065037    0.162190
      6          1           0       -2.396254    2.976250   -0.517178
      7          1           0       -1.608394    1.833662   -1.599476
      8          1           0        0.305157    1.610658    0.020791
      9          1           0       -0.487180    2.759737    1.109239
     10          1           0        0.091127    3.297637   -0.476804
     11          6           0       -3.769734    0.566074   -0.403600
     12          6           0       -4.448512   -0.593412    0.326357
     13          6           0       -5.805496   -0.958094   -0.276465
     14          1           0       -4.430884    1.443366   -0.378391
     15          1           0       -3.642924    0.300637   -1.462093
     16          1           0       -4.573548   -0.325259    1.383276
     17          1           0       -3.785687   -1.467847    0.300977
     18          1           0       -5.694762   -1.251334   -1.325440
     19          1           0       -6.487099   -0.102255   -0.236992
     20          1           0       -6.273069   -1.789234    0.260603
     21          6           0        0.336375   -1.973700    0.443899
     22          6           0        1.061734   -2.095844   -0.745831
     23          6           0        2.214843   -1.333741   -0.955796
     24          6           0        2.615758   -0.455373    0.049703
     25          6           0        1.914462   -0.311202    1.245819
     26          6           0        0.764300   -1.083339    1.434180
     27          1           0       -0.558244   -2.569617    0.598613
     28          1           0        0.731754   -2.786503   -1.516641
     29          1           0        2.795271   -1.408468   -1.867353
     30          1           0        2.268193    0.385781    1.995823
     31          1           0        0.202957   -0.986402    2.359135
     32          7           0        3.834942    0.356742   -0.161142
     33          8           0        4.167219    1.123408    0.740220
     34          8           0        4.435179    0.211234   -1.223771
 ---------------------------------------------------------------------

 SCF Done:  E(RHF) =  -669.533848685     A.U. after   15 cycles
 E2 =    -0.2094998680D+01 EUMP2 =    -0.67162884736507D+03

 The electronic state is 1-A.
 Alpha  occ. eigenvalues --  -20.60825 -20.60817 -15.85879 -11.31291 -11.27876
 Alpha  occ. eigenvalues --  -11.27820 -11.27609 -11.26901 -11.26845 -11.22255
 Alpha  occ. eigenvalues --  -11.21839 -11.21788 -11.21687 -11.21611 -11.21025
 Alpha  occ. eigenvalues --   -1.59898  -1.39450  -1.19494  -1.08901  -1.08808
 Alpha  occ. eigenvalues --   -1.04891  -1.03886  -0.96326  -0.95688  -0.87344
 Alpha  occ. eigenvalues --   -0.86271  -0.82511  -0.79985  -0.78673  -0.77547
 Alpha  occ. eigenvalues --   -0.72095  -0.71227  -0.70580  -0.65497  -0.65122
 Alpha  occ. eigenvalues --   -0.64865  -0.62215  -0.61320  -0.59710  -0.57954
 Alpha  occ. eigenvalues --   -0.55657  -0.55374  -0.53395  -0.52997  -0.52957
 Alpha  occ. eigenvalues --   -0.52689  -0.50281  -0.48859  -0.48847  -0.48262
 Alpha  occ. eigenvalues --   -0.47017  -0.46182  -0.46072  -0.44839  -0.44138
 Alpha  occ. eigenvalues --   -0.37397  -0.36393
 Alpha virt. eigenvalues --    0.04937   0.11090   0.16318   0.20494   0.22776
 Alpha virt. eigenvalues --    0.23860   0.25555   0.26407   0.27317   0.27801
 Alpha virt. eigenvalues --    0.29337   0.30448   0.31237   0.31487   0.31967

 Mulliken charges:
               1
     1  C   -0.305103
     2  C   -0.298113
     3  C   -0.482724
     4  H    0.145667
     5  H    0.152279
     6  H    0.152142
     7  H    0.151928
     8  H    0.163727
     9  H    0.150696
    10  H    0.163906
    11  C   -0.297848
    12  C   -0.298104
    13  C   -0.475675
    14  H    0.151739
    15  H    0.149609
    16  H    0.152090
    17  H    0.142304
    18  H    0.155571
    19  H    0.157816
    20  H    0.160132
    21  C   -0.173433
    22  C   -0.218624
    23  C   -0.171857
    24  C    0.162047
    25  C   -0.177231
    26  C   -0.211753
    27  H    0.227720
    28  H    0.224142
    29  H    0.276238
    30  H    0.276775
    31  H    0.225733
    32  N    0.488248
    33  O   -0.459649
    34  O   -0.460395
 Sum of Mulliken charges =  -0.00000

 Dipole moment (field-independent basis, Debye):
    X=             -4.1960    Y=             -2.8692    Z=              0.7327  Tot=              5.1358
 Quadrupole moment (field-independent basis, Debye-Ang):
   XX=           -118.6391   YY=            -91.6262   ZZ=            -90.4377
   XY=             -6.5735   XZ=              0.6286   YZ=              1.9388

 Normal termination of Gaussian 16 at Thu May  6 02:33:19 2021.
