 Gaussian 16, Revision A.03,
 Gaussian 16:  EM64L-G16RevA.03 25-Dec-2016

 -------------
 #p 6-31g* mp2
 -------------

 ------------------------------------------------------
 Input file generated by CHIRIPA (05-May-2021 14:57:23)
 ------------------------------------------------------
 Symbolic Z-matrix:
 Charge =  0 Multiplicity = 1

                         Standard orientation:
 ---------------------------------------------------------------------
 Center     Atomic      Atomic             Coordinates (Angstroms)
 Number     Number       Type             X           Y           Z
 ---------------------------------------------------------------------
      1          6           0        1.438747   -0.355124    0.732427
      2          6           0        2.196688    0.745043    1.146768
      3          6           0        3.539273    0.862785    0.775082
      4          6           0        4.094378   -0.142605   -0.015069
      5          6           0        3.365336   -1.250760   -0.443764
      6          6           0        2.024457   -1.347764   -0.060119
      7          1           0        0.396458   -0.438534    1.025806
      8          1           0        1.744450    1.517458    1.762317
      9          1           0        4.149088    1.703882    1.081842
     10          1           0        3.843879   -2.004760   -1.056870
     11          1           0        1.438245   -2.203281   -0.383370
     12          7           0        5.514809   -0.028934   -0.414886
     13          8           0        5.980446   -0.928177   -1.111436
     14          8           0        6.135611    0.957251   -0.024142
     15          6           0       -4.846165   -2.153673    0.135338
     16          6           0       -3.652318   -1.846046    0.796106
     17          6           0       -3.096931   -0.566647    0.700015
     18          6           0       -3.764962    0.385146   -0.068823
     19          6           0       -4.955815    0.109279   -0.738938
     20          6           0       -5.492964   -1.176752   -0.628728
     21          1           0       -5.270519   -3.150117    0.215468
     22          1           0       -3.147822   -2.602744    1.390192
     23          1           0       -2.173924   -0.301467    1.201169
     24          1           0       -5.435712    0.884582   -1.323764
     25          1           0       -6.420249   -1.412826   -1.142979
     26          7           0       -3.186651    1.743098   -0.178024
     27          8           0       -3.794614    2.563910   -0.861609
     28          8           0       -2.136361    1.960937    0.422037
 ---------------------------------------------------------------------

 SCF Done:  E(RHF) =  -868.337622765     A.U. after   16 cycles
 E2 =    -0.2599520010D+01 EUMP2 =    -0.87093714277533D+03

 The electronic state is 1-A.
 Alpha  occ. eigenvalues --  -20.61672 -20.61630 -20.60538 -20.60528 -15.86705
 Alpha  occ. eigenvalues --  -15.85587 -11.32086 -11.30925 -11.28759 -11.28571
 Alpha  occ. eigenvalues --  -11.28321 -11.27688 -11.27581 -11.27519 -11.27435
 Alpha  occ. eigenvalues --  -11.27277 -11.26576 -11.26413  -1.60717  -1.59611
 Alpha  occ. eigenvalues --   -1.40277  -1.39166  -1.20238  -1.19092  -1.09615
 Alpha  occ. eigenvalues --   -1.08500  -1.05653  -1.04485  -0.96462  -0.95343
 Alpha  occ. eigenvalues --   -0.87044  -0.85886  -0.83301  -0.82173  -0.78368
 Alpha  occ. eigenvalues --   -0.77213  -0.72929  -0.72034  -0.71808  -0.71359
 Alpha  occ. eigenvalues --   -0.70932  -0.70237  -0.65891  -0.65648  -0.64748
 Alpha  occ. eigenvalues --   -0.64484  -0.63022  -0.61829  -0.56125  -0.55052
 Alpha  occ. eigenvalues --   -0.53958  -0.53717  -0.52816  -0.52577  -0.49696
 Alpha  occ. eigenvalues --   -0.49662  -0.48564  -0.48563  -0.45677  -0.44577
 Alpha  occ. eigenvalues --   -0.38183  -0.37254  -0.37072  -0.36077
 Alpha virt. eigenvalues --    0.04171   0.05314   0.10371   0.11578   0.15703
 Alpha virt. eigenvalues --    0.16812   0.18754   0.21915   0.24930   0.26971
 Alpha virt. eigenvalues --    0.27641   0.29120   0.30442   0.30893   0.32795

 Mulliken charges:
               1
     1  C   -0.168629
     2  C   -0.218139
     3  C   -0.171128
     4  C    0.158552
     5  C   -0.171105
     6  C   -0.220574
     7  H    0.223152
     8  H    0.231050
     9  H    0.276262
    10  H    0.274129
    11  H    0.219090
    12  N    0.488014
    13  O   -0.461740
    14  O   -0.459987
    15  C   -0.170271
    16  C   -0.219921
    17  C   -0.177108
    18  C    0.159923
    19  C   -0.169547
    20  C   -0.217776
    21  H    0.228550
    22  H    0.223199
    23  H    0.272360
    24  H    0.278369
    25  H    0.226887
    26  N    0.488320
    27  O   -0.454933
    28  O   -0.466999
 Sum of Mulliken charges =  -0.00000

 Dipole moment (field-independent basis, Debye):
    X=             -7.3478    Y=             -5.0679    Z=              1.7271  Tot=              9.0915
 Quadrupole moment (field-independent basis, Debye-Ang):
   XX=           -127.1497   YY=           -104.8483   ZZ=           -103.1301
   XY=             16.0968   XZ=              7.8585   YZ=              1.8702

 Normal termination of Gaussian 16 at Fri May  7 00:15:51 2021.
