 Gaussian 16, Revision A.03,
 Gaussian 16:  EM64L-G16RevA.03 25-Dec-2016

 -------------
 #p 6-31g* mp2
 -------------

 ------------------------------------------------------
 Input file generated by CHIRIPA (05-May-2021 14:57:22)
 ------------------------------------------------------
 Symbolic Z-matrix:
 Charge =  0 Multiplicity = 1

                         Standard orientation:
 ---------------------------------------------------------------------
 Center     Atomic      Atomic             Coordinates (Angstroms)
 Number     Number       Type             X           Y           Z
 ---------------------------------------------------------------------
      1          6           0       -1.016790   -0.953040   -0.460718
      2          6           0       -1.994714   -1.920939   -0.209007
      3          6           0       -3.333124   -1.551957   -0.044510
      4          6           0       -3.659780   -0.200011   -0.138473
      5          6           0       -2.708402    0.787802   -0.388260
      6          6           0       -1.376122    0.395863   -0.549385
      7          1           0        0.020538   -1.248591   -0.587194
      8          1           0       -1.718552   -2.969255   -0.139627
      9          1           0       -4.110452   -2.280560    0.151238
     10          1           0       -3.014251    1.825019   -0.451942
     11          1           0       -0.618776    1.149717   -0.744774
     12          7           0       -5.073450    0.202765    0.033887
     13          8           0       -5.335436    1.400413   -0.053521
     14          8           0       -5.892731   -0.686813    0.253128
     15          6           0        1.679018    2.029756    0.616073
     16          6           0        1.598921    0.786690    1.252385
     17          6           0        2.561736   -0.197832    1.011034
     18          6           0        3.595758    0.095918    0.123454
     19          6           0        3.702929    1.324788   -0.525918
     20          6           0        2.728916    2.294371   -0.269487
     21          1           0        0.926731    2.788754    0.809417
     22          1           0        0.784668    0.578402    1.940611
     23          1           0        2.523875   -1.168667    1.490060
     24          1           0        4.526327    1.503078   -1.206832
     25          1           0        2.793652    3.258861   -0.765080
     26          7           0        4.620975   -0.938444   -0.140035
     27          8           0        5.522062   -0.654875   -0.926336
     28          8           0        4.504040   -2.013158    0.444732
 ---------------------------------------------------------------------

 SCF Done:  E(RHF) =  -868.336201005     A.U. after   16 cycles
 E2 =    -0.2603263308D+01 EUMP2 =    -0.87093946431312D+03

 The electronic state is 1-A.
 Alpha  occ. eigenvalues --  -20.61708 -20.61697 -20.61160 -20.61151 -15.86761
 Alpha  occ. eigenvalues --  -15.86212 -11.32328 -11.31622 -11.28843 -11.28806
 Alpha  occ. eigenvalues --  -11.28578 -11.28214 -11.28168 -11.27914 -11.27876
 Alpha  occ. eigenvalues --  -11.27843 -11.27161 -11.27133  -1.60778  -1.60233
 Alpha  occ. eigenvalues --   -1.40325  -1.39786  -1.20502  -1.19793  -1.09873
 Alpha  occ. eigenvalues --   -1.09161  -1.05897  -1.05202  -0.96663  -0.95995
 Alpha  occ. eigenvalues --   -0.87290  -0.86567  -0.83475  -0.82820  -0.78481
 Alpha  occ. eigenvalues --   -0.77888  -0.72967  -0.72427  -0.72111  -0.71582
 Alpha  occ. eigenvalues --   -0.71560  -0.70867  -0.66126  -0.65863  -0.65424
 Alpha  occ. eigenvalues --   -0.65198  -0.63193  -0.62565  -0.56380  -0.55667
 Alpha  occ. eigenvalues --   -0.54349  -0.53972  -0.53459  -0.53170  -0.49743
 Alpha  occ. eigenvalues --   -0.49717  -0.49191  -0.49181  -0.45686  -0.45183
 Alpha  occ. eigenvalues --   -0.38614  -0.38019  -0.37230  -0.36675
 Alpha virt. eigenvalues --    0.03894   0.04688   0.09711   0.11208   0.15188
 Alpha virt. eigenvalues --    0.16253   0.20115   0.21483   0.26063   0.26484
 Alpha virt. eigenvalues --    0.27577   0.28295   0.30134   0.31278   0.31777

 Mulliken charges:
               1
     1  C   -0.177388
     2  C   -0.220109
     3  C   -0.170756
     4  C    0.158857
     5  C   -0.174663
     6  C   -0.225806
     7  H    0.231125
     8  H    0.226480
     9  H    0.277107
    10  H    0.273376
    11  H    0.226327
    12  N    0.488052
    13  O   -0.461040
    14  O   -0.458802
    15  C   -0.184881
    16  C   -0.216187
    17  C   -0.181883
    18  C    0.160123
    19  C   -0.170992
    20  C   -0.218063
    21  H    0.229372
    22  H    0.232717
    23  H    0.277337
    24  H    0.279331
    25  H    0.228185
    26  N    0.487778
    27  O   -0.456384
    28  O   -0.459214
 Sum of Mulliken charges =  -0.00000

 Dipole moment (field-independent basis, Debye):
    X=              1.6163    Y=              2.2014    Z=              0.3470  Tot=              2.7530
 Quadrupole moment (field-independent basis, Debye-Ang):
   XX=           -166.2106   YY=            -97.1517   ZZ=           -103.5185
   XY=             20.5242   XZ=              2.4986   YZ=             -2.1135

 Normal termination of Gaussian 16 at Fri May  7 06:22:19 2021.
