 Gaussian 16, Revision A.03,
 Gaussian 16:  EM64L-G16RevA.03 25-Dec-2016

 -------------
 #p 6-31g* mp2
 -------------

 ------------------------------------------------------
 Input file generated by CHIRIPA (05-May-2021 14:51:09)
 ------------------------------------------------------
 Symbolic Z-matrix:
 Charge =  0 Multiplicity = 1

                         Standard orientation:
 ---------------------------------------------------------------------
 Center     Atomic      Atomic             Coordinates (Angstroms)
 Number     Number       Type             X           Y           Z
 ---------------------------------------------------------------------
      1          6           0       -3.959777    0.117128   -0.314348
      2          6           0       -5.449503   -0.016182    0.003350
      3          6           0       -6.340444    0.629544   -1.058278
      4          1           0       -3.705652    1.181630   -0.410272
      5          1           0       -3.758028   -0.341732   -1.292172
      6          1           0       -5.648138    0.441568    0.980910
      7          1           0       -5.700070   -1.080483    0.098718
      8          1           0       -6.171405    0.167217   -2.036174
      9          1           0       -6.119177    1.697916   -1.148969
     10          1           0       -7.401292    0.522567   -0.811260
     11          6           0       -3.056269   -0.523521    0.737778
     12          6           0       -1.566544   -0.390210    0.420081
     13          6           0       -0.675602   -1.035937    1.481709
     14          1           0       -3.258018   -0.064661    1.715602
     15          1           0       -3.310394   -1.588023    0.833703
     16          1           0       -1.315976    0.674091    0.324712
     17          1           0       -1.367908   -0.847960   -0.557480
     18          1           0       -0.896869   -2.104309    1.572399
     19          1           0       -0.844641   -0.573609    2.459604
     20          1           0        0.385246   -0.928960    1.234691
     21          6           0        3.935402   -0.427386   -0.267798
     22          6           0        3.112562   -1.703603   -0.447216
     23          6           0        3.981679   -2.956671   -0.557887
     24          1           0        4.626662   -0.322234   -1.115174
     25          1           0        4.557399   -0.524050    0.632852
     26          1           0        2.491274   -1.604005   -1.346492
     27          1           0        2.423045   -1.805629    0.400589
     28          1           0        4.590977   -3.083678    0.342795
     29          1           0        4.659592   -2.880908   -1.414212
     30          1           0        3.373125   -3.857344   -0.685596
     31          6           0        3.080645    0.833779   -0.155632
     32          6           0        3.903484    2.109996    0.023786
     33          6           0        3.034366    3.363064    0.134456
     34          1           0        2.458647    0.930443   -1.056282
     35          1           0        2.389384    0.728626    0.691743
     36          1           0        4.593001    2.212022   -0.824020
     37          1           0        4.524773    2.010397    0.923062
     38          1           0        2.356453    3.287301    0.990782
     39          1           0        2.425070    3.490071   -0.766225
     40          1           0        3.642921    4.263737    0.262166
 ---------------------------------------------------------------------

 SCF Done:  E(RHF) =  -470.733084593     A.U. after   11 cycles
 E2 =    -0.1583048489D+01 EUMP2 =    -0.47231613308121D+03

 The electronic state is 1-A.
 Alpha  occ. eigenvalues --  -11.21614 -11.21596 -11.21588 -11.21563 -11.21417
 Alpha  occ. eigenvalues --  -11.21383 -11.21358 -11.21323 -11.21082 -11.21071
 Alpha  occ. eigenvalues --  -11.21061 -11.21013  -1.08451  -1.08401  -1.03543
 Alpha  occ. eigenvalues --   -1.03499  -0.95989  -0.95957  -0.87012  -0.86972
 Alpha  occ. eigenvalues --   -0.79632  -0.79545  -0.78266  -0.78217  -0.65092
 Alpha  occ. eigenvalues --   -0.65036  -0.60959  -0.60891  -0.59446  -0.59249
 Alpha  occ. eigenvalues --   -0.57622  -0.57549  -0.55288  -0.55230  -0.52789
 Alpha  occ. eigenvalues --   -0.52596  -0.52411  -0.52378  -0.49947  -0.49882
 Alpha  occ. eigenvalues --   -0.47992  -0.47838  -0.46652  -0.46583  -0.45781
 Alpha  occ. eigenvalues --   -0.45774  -0.45704  -0.45671  -0.43806  -0.43673
 Alpha virt. eigenvalues --    0.21381   0.23133   0.23830   0.24270   0.26006
 Alpha virt. eigenvalues --    0.26628   0.26815   0.27672   0.27895   0.29242
 Alpha virt. eigenvalues --    0.30788   0.31358   0.31644   0.31880   0.32025

 Mulliken charges:
               1
     1  C   -0.298210
     2  C   -0.299614
     3  C   -0.475691
     4  H    0.149675
     5  H    0.149416
     6  H    0.151900
     7  H    0.151895
     8  H    0.155128
     9  H    0.155179
    10  H    0.160201
    11  C   -0.298477
    12  C   -0.298674
    13  C   -0.485768
    14  H    0.149377
    15  H    0.149534
    16  H    0.152273
    17  H    0.152028
    18  H    0.154721
    19  H    0.154343
    20  H    0.170134
    21  C   -0.298145
    22  C   -0.305705
    23  C   -0.475174
    24  H    0.149754
    25  H    0.149378
    26  H    0.151785
    27  H    0.157962
    28  H    0.155204
    29  H    0.155119
    30  H    0.160317
    31  C   -0.302328
    32  C   -0.299498
    33  C   -0.475753
    34  H    0.149920
    35  H    0.153029
    36  H    0.152115
    37  H    0.151986
    38  H    0.155129
    39  H    0.155233
    40  H    0.160302
 Sum of Mulliken charges =  -0.00000

 Dipole moment (field-independent basis, Debye):
    X=              0.0235    Y=              0.0025    Z=             -0.0079  Tot=              0.0249
 Quadrupole moment (field-independent basis, Debye-Ang):
   XX=            -85.6842   YY=            -85.1466   ZZ=            -83.9798
   XY=              0.8370   XZ=             -0.4707   YZ=              0.5403

 Normal termination of Gaussian 16 at Thu May  6 02:08:15 2021.
