 Gaussian 16, Revision A.03,
 Gaussian 16:  EM64L-G16RevA.03 25-Dec-2016

 -------------
 #p 6-31g* mp2
 -------------

 ------------------------------------------------------
 Input file generated by CHIRIPA (05-May-2021 14:51:10)
 ------------------------------------------------------
 Symbolic Z-matrix:
 Charge =  0 Multiplicity = 1

                         Standard orientation:
 ---------------------------------------------------------------------
 Center     Atomic      Atomic             Coordinates (Angstroms)
 Number     Number       Type             X           Y           Z
 ---------------------------------------------------------------------
      1          6           0       -2.584487    0.180171   -0.124317
      2          6           0       -3.830038    0.624715   -0.891759
      3          6           0       -3.781625    2.099004   -1.294154
      4          1           0       -2.472965    0.803323    0.773564
      5          1           0       -1.695753    0.363057   -0.744075
      6          1           0       -4.716277    0.439764   -0.271284
      7          1           0       -3.938714    0.000306   -1.787817
      8          1           0       -2.915195    2.295461   -1.933922
      9          1           0       -3.697176    2.737416   -0.408772
     10          1           0       -4.681767    2.395502   -1.841597
     11          6           0       -2.618069   -1.291282    0.284860
     12          6           0       -1.372517   -1.735825    1.052303
     13          6           0       -1.420930   -3.210114    1.454697
     14          1           0       -3.506802   -1.474168    0.904618
     15          1           0       -2.729590   -1.914434   -0.613021
     16          1           0       -1.263842   -1.111416    1.948360
     17          1           0       -0.486279   -1.550874    0.431827
     18          1           0       -1.505380   -3.848526    0.569316
     19          1           0       -2.287361   -3.406571    2.094465
     20          1           0       -0.520789   -3.506613    2.002140
     21          6           0        2.474585   -0.040190   -0.541215
     22          6           0        3.654313   -1.009984   -0.616867
     23          6           0        3.385665   -2.196600   -1.542917
     24          1           0        1.583882   -0.582545   -0.195608
     25          1           0        2.244950    0.326426   -1.551292
     26          1           0        3.882539   -1.373597    0.393239
     27          1           0        4.542357   -0.465215   -0.962152
     28          1           0        3.179436   -1.851569   -2.561261
     29          1           0        2.515870   -2.765111   -1.198169
     30          1           0        4.241937   -2.877127   -1.582164
     31          6           0        2.727971    1.151300    0.380672
     32          6           0        1.548242    2.121095    0.456324
     33          6           0        1.816890    3.307710    1.382373
     34          1           0        2.957605    0.784684    1.390749
     35          1           0        3.618673    1.693655    0.035064
     36          1           0        0.660199    1.576326    0.801609
     37          1           0        1.320016    2.484708   -0.553782
     38          1           0        2.686686    3.876221    1.037625
     39          1           0        2.023120    2.962679    2.400717
     40          1           0        0.960618    3.988238    1.421621
 ---------------------------------------------------------------------

 SCF Done:  E(RHF) =  -470.733383967     A.U. after   11 cycles
 E2 =    -0.1583705256D+01 EUMP2 =    -0.47231708922332D+03

 The electronic state is 1-A.
 Alpha  occ. eigenvalues --  -11.21660 -11.21609 -11.21604 -11.21542 -11.21429
 Alpha  occ. eigenvalues --  -11.21384 -11.21363 -11.21324 -11.21130 -11.21088
 Alpha  occ. eigenvalues --  -11.21069 -11.21039  -1.08471  -1.08404  -1.03564
 Alpha  occ. eigenvalues --   -1.03511  -0.96007  -0.95965  -0.87027  -0.86978
 Alpha  occ. eigenvalues --   -0.79655  -0.79554  -0.78406  -0.78103  -0.65173
 Alpha  occ. eigenvalues --   -0.64973  -0.60999  -0.60875  -0.59386  -0.59326
 Alpha  occ. eigenvalues --   -0.57636  -0.57558  -0.55300  -0.55249  -0.52711
 Alpha  occ. eigenvalues --   -0.52654  -0.52455  -0.52372  -0.49996  -0.49873
 Alpha  occ. eigenvalues --   -0.48032  -0.47841  -0.46817  -0.46567  -0.46222
 Alpha  occ. eigenvalues --   -0.45754  -0.45712  -0.45124  -0.43812  -0.43763
 Alpha virt. eigenvalues --    0.20674   0.23206   0.23588   0.24448   0.24946
 Alpha virt. eigenvalues --    0.26350   0.26916   0.27674   0.28096   0.29857
 Alpha virt. eigenvalues --    0.31193   0.31550   0.31710   0.31873   0.32133

 Mulliken charges:
               1
     1  C   -0.300797
     2  C   -0.299768
     3  C   -0.475637
     4  H    0.149752
     5  H    0.152482
     6  H    0.151887
     7  H    0.152009
     8  H    0.155440
     9  H    0.155152
    10  H    0.160190
    11  C   -0.297433
    12  C   -0.309696
    13  C   -0.475226
    14  H    0.149653
    15  H    0.149788
    16  H    0.151591
    17  H    0.160265
    18  H    0.155419
    19  H    0.155625
    20  H    0.159972
    21  C   -0.308713
    22  C   -0.298870
    23  C   -0.475969
    24  H    0.159255
    25  H    0.148803
    26  H    0.151926
    27  H    0.152061
    28  H    0.155020
    29  H    0.154811
    30  H    0.160452
    31  C   -0.297356
    32  C   -0.303092
    33  C   -0.475733
    34  H    0.149362
    35  H    0.149483
    36  H    0.156467
    37  H    0.151285
    38  H    0.154995
    39  H    0.154916
    40  H    0.160228
 Sum of Mulliken charges =  -0.00000

 Dipole moment (field-independent basis, Debye):
    X=             -0.0247    Y=             -0.0097    Z=             -0.0012  Tot=              0.0266
 Quadrupole moment (field-independent basis, Debye-Ang):
   XX=            -84.4809   YY=            -86.4066   ZZ=            -83.9166
   XY=              0.1539   XZ=             -0.7573   YZ=             -0.4017

 Normal termination of Gaussian 16 at Thu May  6 02:12:19 2021.
