 Gaussian 16, Revision A.03,
 Gaussian 16:  EM64L-G16RevA.03 25-Dec-2016

 -------------
 #p 6-31g* mp2
 -------------

 ------------------------------------------------------
 Input file generated by CHIRIPA (05-May-2021 14:51:13)
 ------------------------------------------------------
 Symbolic Z-matrix:
 Charge =  0 Multiplicity = 1

                         Standard orientation:
 ---------------------------------------------------------------------
 Center     Atomic      Atomic             Coordinates (Angstroms)
 Number     Number       Type             X           Y           Z
 ---------------------------------------------------------------------
      1          6           0        2.374425   -0.298066   -0.410135
      2          6           0        3.164646   -1.606911   -0.388631
      3          6           0        2.368586   -2.787302   -0.946089
      4          1           0        1.450237   -0.425565    0.170008
      5          1           0        2.067832   -0.079892   -1.442509
      6          1           0        3.470843   -1.821838    0.643195
      7          1           0        4.087152   -1.476223   -0.968733
      8          1           0        2.075596   -2.598571   -1.983942
      9          1           0        1.455784   -2.946151   -0.362855
     10          1           0        2.952374   -3.712741   -0.921306
     11          6           0        3.156905    0.891199    0.144032
     12          6           0        2.366685    2.200044    0.122529
     13          6           0        3.162745    3.380435    0.679986
     14          1           0        3.463499    0.673025    1.176406
     15          1           0        4.081093    1.018698   -0.436110
     16          1           0        1.444178    2.069356    0.702630
     17          1           0        2.060488    2.414971   -0.909298
     18          1           0        4.075546    3.539284    0.096752
     19          1           0        3.455735    3.191704    1.717839
     20          1           0        2.578956    4.305874    0.655203
     21          6           0       -2.776555   -1.049622    0.260414
     22          6           0       -1.412465   -1.617967    0.653130
     23          6           0       -1.450405   -3.125647    0.904633
     24          1           0       -3.501907   -1.272117    1.054961
     25          1           0       -3.134200   -1.563993   -0.642308
     26          1           0       -1.056870   -1.101715    1.554047
     27          1           0       -0.690231   -1.393926   -0.142357
     28          1           0       -1.780795   -3.657799    0.006714
     29          1           0       -2.149517   -3.363927    1.712758
     30          1           0       -0.464847   -3.510982    1.184014
     31          6           0       -2.754775    0.456489    0.005689
     32          6           0       -4.118866    1.024834   -0.387028
     33          6           0       -4.080926    2.532515   -0.638530
     34          1           0       -2.397130    0.970860    0.908411
     35          1           0       -2.029423    0.678984   -0.788858
     36          1           0       -4.841098    0.800793    0.408460
     37          1           0       -4.474461    0.508581   -1.287944
     38          1           0       -3.381812    2.770794   -1.446655
     39          1           0       -3.750535    3.064666    0.259389
     40          1           0       -5.066483    2.917849   -0.917910
 ---------------------------------------------------------------------

 SCF Done:  E(RHF) =  -470.732522284     A.U. after   11 cycles
 E2 =    -0.1584172441D+01 EUMP2 =    -0.47231669472514D+03

 The electronic state is 1-A.
 Alpha  occ. eigenvalues --  -11.21609 -11.21607 -11.21566 -11.21564 -11.21420
 Alpha  occ. eigenvalues --  -11.21360 -11.21348 -11.21270 -11.21118 -11.21073
 Alpha  occ. eigenvalues --  -11.21046 -11.21020  -1.08467  -1.08376  -1.03585
 Alpha  occ. eigenvalues --   -1.03473  -0.96023  -0.95930  -0.87052  -0.86934
 Alpha  occ. eigenvalues --   -0.79687  -0.79524  -0.78401  -0.78067  -0.65141
 Alpha  occ. eigenvalues --   -0.64979  -0.61076  -0.60827  -0.59449  -0.59235
 Alpha  occ. eigenvalues --   -0.57688  -0.57496  -0.55345  -0.55188  -0.52725
 Alpha  occ. eigenvalues --   -0.52641  -0.52530  -0.52264  -0.49977  -0.49858
 Alpha  occ. eigenvalues --   -0.48047  -0.47820  -0.46782  -0.46526  -0.46144
 Alpha  occ. eigenvalues --   -0.45769  -0.45669  -0.45128  -0.43805  -0.43741
 Alpha virt. eigenvalues --    0.21293   0.23093   0.23249   0.25024   0.25603
 Alpha virt. eigenvalues --    0.26351   0.26734   0.27259   0.28633   0.29626
 Alpha virt. eigenvalues --    0.30770   0.31079   0.31571   0.31774   0.32084

 Mulliken charges:
               1
     1  C   -0.306230
     2  C   -0.298771
     3  C   -0.483848
     4  H    0.159387
     5  H    0.147821
     6  H    0.151327
     7  H    0.151661
     8  H    0.154368
     9  H    0.163993
    10  H    0.160080
    11  C   -0.297649
    12  C   -0.299750
    13  C   -0.475687
    14  H    0.149169
    15  H    0.149324
    16  H    0.152439
    17  H    0.151557
    18  H    0.155094
    19  H    0.155019
    20  H    0.160206
    21  C   -0.297384
    22  C   -0.308042
    23  C   -0.478025
    24  H    0.149516
    25  H    0.149708
    26  H    0.150696
    27  H    0.160831
    28  H    0.156129
    29  H    0.155779
    30  H    0.161146
    31  C   -0.298795
    32  C   -0.299644
    33  C   -0.475691
    34  H    0.149014
    35  H    0.150604
    36  H    0.151922
    37  H    0.151986
    38  H    0.155347
    39  H    0.155149
    40  H    0.160241
 Sum of Mulliken charges =  -0.00000

 Dipole moment (field-independent basis, Debye):
    X=             -0.0440    Y=             -0.0107    Z=              0.0020  Tot=              0.0453
 Quadrupole moment (field-independent basis, Debye-Ang):
   XX=            -85.0046   YY=            -86.8230   ZZ=            -83.1313
   XY=             -0.2091   XZ=             -0.6762   YZ=             -0.1564

 Normal termination of Gaussian 16 at Wed May  5 21:37:41 2021.
