 Gaussian 16, Revision A.03,
 Gaussian 16:  EM64L-G16RevA.03 25-Dec-2016

 -------------
 #p 6-31g* mp2
 -------------

 ------------------------------------------------------
 Input file generated by CHIRIPA (05-May-2021 14:55:25)
 ------------------------------------------------------
 Symbolic Z-matrix:
 Charge =  0 Multiplicity = 1

                         Standard orientation:
 ---------------------------------------------------------------------
 Center     Atomic      Atomic             Coordinates (Angstroms)
 Number     Number       Type             X           Y           Z
 ---------------------------------------------------------------------
      1          6           0       -5.392054   -1.285433   -0.047814
      2          6           0       -5.424935    0.023166    0.445144
      3          6           0       -4.297621    0.844941    0.353505
      4          6           0       -3.149037    0.323386   -0.239812
      5          6           0       -3.085078   -0.976123   -0.740288
      6          6           0       -4.224289   -1.780029   -0.637917
      7          1           0       -6.272400   -1.916867    0.027542
      8          1           0       -6.330460    0.409937    0.903923
      9          1           0       -4.295547    1.861792    0.726905
     10          1           0       -2.167896   -1.333631   -1.192375
     11          1           0       -4.195868   -2.795908   -1.021618
     12          7           0       -1.949303    1.183904   -0.342507
     13          8           0       -0.949649    0.700737   -0.869651
     14          8           0       -2.031321    2.325251    0.106088
     15          6           0        3.736120   -0.628720    0.640740
     16          6           0        2.411228    0.127412    0.745194
     17          6           0        1.325319   -0.678463    1.458749
     18          1           0        3.569927   -1.574968    0.107879
     19          1           0        4.079153   -0.894542    1.650225
     20          1           0        2.071492    0.392937   -0.264109
     21          1           0        2.580632    1.072059    1.277700
     22          1           0        1.639347   -0.931242    2.476634
     23          1           0        1.127315   -1.614222    0.926067
     24          1           0        0.386724   -0.119125    1.522322
     25          6           0        4.831606    0.163920   -0.070148
     26          6           0        6.156497   -0.592212   -0.174603
     27          6           0        7.242407    0.213663   -0.888159
     28          1           0        4.488572    0.429742   -1.079635
     29          1           0        4.997798    1.110167    0.462711
     30          1           0        5.987094   -1.536858   -0.707108
     31          1           0        6.496233   -0.857737    0.834700
     32          1           0        7.440411    1.149421   -0.355475
     33          1           0        6.928379    0.466442   -1.906044
     34          1           0        8.181001   -0.345676   -0.951731
 ---------------------------------------------------------------------

 SCF Done:  E(RHF) =  -669.535912029     A.U. after   15 cycles
 E2 =    -0.2091561865D+01 EUMP2 =    -0.67162747389456D+03

 The electronic state is 1-A.
 Alpha  occ. eigenvalues --  -20.60965 -20.60940 -15.85973 -11.31282 -11.27845
 Alpha  occ. eigenvalues --  -11.27841 -11.27582 -11.26849 -11.26839 -11.20988
 Alpha  occ. eigenvalues --  -11.20593 -11.20542 -11.20456 -11.20270 -11.19960
 Alpha  occ. eigenvalues --   -1.60014  -1.39569  -1.19450  -1.08859  -1.07552
 Alpha  occ. eigenvalues --   -1.04844  -1.02620  -0.95706  -0.95113  -0.86245
 Alpha  occ. eigenvalues --   -0.86152  -0.82537  -0.78712  -0.77593  -0.77320
 Alpha  occ. eigenvalues --   -0.72204  -0.71341  -0.70560  -0.65108  -0.64848
 Alpha  occ. eigenvalues --   -0.64187  -0.62191  -0.60018  -0.58495  -0.56689
 Alpha  occ. eigenvalues --   -0.55350  -0.54430  -0.53176  -0.52936  -0.51826
 Alpha  occ. eigenvalues --   -0.51547  -0.49123  -0.48947  -0.48944  -0.47031
 Alpha  occ. eigenvalues --   -0.45744  -0.44946  -0.44887  -0.44741  -0.42881
 Alpha  occ. eigenvalues --   -0.37428  -0.36443
 Alpha virt. eigenvalues --    0.04917   0.11208   0.16395   0.21301   0.23680
 Alpha virt. eigenvalues --    0.25085   0.27203   0.27475   0.28088   0.28399
 Alpha virt. eigenvalues --    0.28872   0.30975   0.32008   0.32539   0.32624

 Mulliken charges:
               1
     1  C   -0.170490
     2  C   -0.218596
     3  C   -0.170712
     4  C    0.157656
     5  C   -0.170184
     6  C   -0.218555
     7  H    0.225981
     8  H    0.223779
     9  H    0.275792
    10  H    0.275909
    11  H    0.223827
    12  N    0.488149
    13  O   -0.458761
    14  O   -0.458938
    15  C   -0.298185
    16  C   -0.300890
    17  C   -0.470053
    18  H    0.145671
    19  H    0.145253
    20  H    0.169677
    21  H    0.150646
    22  H    0.146352
    23  H    0.146773
    24  H    0.163160
    25  C   -0.297779
    26  C   -0.298814
    27  C   -0.475236
    28  H    0.150958
    29  H    0.149453
    30  H    0.150081
    31  H    0.150249
    32  H    0.154884
    33  H    0.155067
    34  H    0.157874
 Sum of Mulliken charges =  -0.00000

 Dipole moment (field-independent basis, Debye):
    X=             -4.5029    Y=             -2.9007    Z=              0.2394  Tot=              5.3616
 Quadrupole moment (field-independent basis, Debye-Ang):
   XX=            -68.9692   YY=            -94.4250   ZZ=            -94.3773
   XY=              6.3379   XZ=             -1.0018   YZ=              3.5621

 Normal termination of Gaussian 16 at Thu May  6 03:12:12 2021.
