 Gaussian 16, Revision A.03,
 Gaussian 16:  EM64L-G16RevA.03 25-Dec-2016

 -------------
 #p 6-31g* mp2
 -------------

 ------------------------------------------------------
 Input file generated by CHIRIPA (05-May-2021 14:57:25)
 ------------------------------------------------------
 Symbolic Z-matrix:
 Charge =  0 Multiplicity = 1

                         Standard orientation:
 ---------------------------------------------------------------------
 Center     Atomic      Atomic             Coordinates (Angstroms)
 Number     Number       Type             X           Y           Z
 ---------------------------------------------------------------------
      1          6           0       -2.930825   -2.078478    0.287647
      2          6           0       -2.405477   -1.329259    1.345569
      3          6           0       -2.137413    0.033551    1.186069
      4          6           0       -2.407967    0.617553   -0.050471
      5          6           0       -2.931352   -0.102128   -1.123513
      6          6           0       -3.191626   -1.463606   -0.941351
      7          1           0       -3.136039   -3.136624    0.420352
      8          1           0       -2.201945   -1.804131    2.301140
      9          1           0       -1.730678    0.637206    1.988306
     10          1           0       -3.123804    0.399132   -2.064320
     11          1           0       -3.599616   -2.042982   -1.764706
     12          7           0       -2.128302    2.059593   -0.231322
     13          8           0       -2.375474    2.550559   -1.330638
     14          8           0       -1.667225    2.671593    0.729668
     15          6           0        1.285127   -2.611591   -0.117240
     16          6           0        1.047074   -1.762609    0.968615
     17          6           0        1.689190   -0.523778    1.055406
     18          6           0        2.567067   -0.164135    0.033997
     19          6           0        2.825054   -0.987974   -1.060545
     20          6           0        2.171793   -2.222250   -1.126575
     21          1           0        0.781988   -3.572176   -0.176598
     22          1           0        0.358989   -2.062363    1.753938
     23          1           0        1.523259    0.152908    1.884854
     24          1           0        3.516361   -0.661617   -1.828010
     25          1           0        2.358592   -2.879544   -1.971037
     26          7           0        3.252745    1.144951    0.114889
     27          8           0        4.021605    1.438539   -0.797961
     28          8           0        3.008335    1.852634    1.089613
 ---------------------------------------------------------------------

 SCF Done:  E(RHF) =  -868.334180418     A.U. after   16 cycles
 E2 =    -0.2603949302D+01 EUMP2 =    -0.87093812971922D+03

 The electronic state is 1-A.
 Alpha  occ. eigenvalues --  -20.60987 -20.60969 -20.60577 -20.60551 -15.86043
 Alpha  occ. eigenvalues --  -15.85628 -11.31690 -11.31211 -11.28338 -11.28263
 Alpha  occ. eigenvalues --  -11.28136 -11.27795 -11.27762 -11.27611 -11.27455
 Alpha  occ. eigenvalues --  -11.27357 -11.26909 -11.26875  -1.60049  -1.59635
 Alpha  occ. eigenvalues --   -1.39596  -1.39183  -1.19909  -1.19399  -1.09261
 Alpha  occ. eigenvalues --   -1.08766  -1.05394  -1.04830  -0.96040  -0.95564
 Alpha  occ. eigenvalues --   -0.86781  -0.86227  -0.82897  -0.82393  -0.77889
 Alpha  occ. eigenvalues --   -0.77392  -0.72256  -0.71845  -0.71379  -0.71038
 Alpha  occ. eigenvalues --   -0.70958  -0.70530  -0.65572  -0.65498  -0.65059
 Alpha  occ. eigenvalues --   -0.64828  -0.62774  -0.62153  -0.55882  -0.55373
 Alpha  occ. eigenvalues --   -0.53977  -0.53530  -0.52985  -0.52762  -0.49037
 Alpha  occ. eigenvalues --   -0.48996  -0.48622  -0.48585  -0.44937  -0.44539
 Alpha  occ. eigenvalues --   -0.38043  -0.37495  -0.37176  -0.35919
 Alpha virt. eigenvalues --    0.04534   0.05271   0.10263   0.11521   0.15890
 Alpha virt. eigenvalues --    0.16766   0.19397   0.22070   0.25225   0.26670
 Alpha virt. eigenvalues --    0.28465   0.28709   0.29461   0.31510   0.31916

 Mulliken charges:
               1
     1  C   -0.173296
     2  C   -0.223489
     3  C   -0.168483
     4  C    0.161774
     5  C   -0.169110
     6  C   -0.217726
     7  H    0.223435
     8  H    0.218438
     9  H    0.275667
    10  H    0.278136
    11  H    0.224236
    12  N    0.487573
    13  O   -0.458191
    14  O   -0.455662
    15  C   -0.172099
    16  C   -0.206506
    17  C   -0.173852
    18  C    0.159737
    19  C   -0.171109
    20  C   -0.218275
    21  H    0.219695
    22  H    0.212422
    23  H    0.275390
    24  H    0.276583
    25  H    0.222388
    26  N    0.488343
    27  O   -0.460085
    28  O   -0.455933
 Sum of Mulliken charges =  -0.00000

 Dipole moment (field-independent basis, Debye):
    X=             -3.4260    Y=             -9.3770    Z=              0.2065  Tot=              9.9854
 Quadrupole moment (field-independent basis, Debye-Ang):
   XX=           -112.0320   YY=           -110.9261   ZZ=            -97.0836
   XY=             -0.2063   XZ=             -2.6126   YZ=              2.0759

 Normal termination of Gaussian 16 at Thu May  6 11:24:45 2021.
