 Gaussian 16, Revision A.03,
 Gaussian 16:  EM64L-G16RevA.03 25-Dec-2016

 -------------
 #p 6-31g* mp2
 -------------

 ------------------------------------------------------
 Input file generated by CHIRIPA (05-May-2021 14:57:27)
 ------------------------------------------------------
 Symbolic Z-matrix:
 Charge =  0 Multiplicity = 1

                         Standard orientation:
 ---------------------------------------------------------------------
 Center     Atomic      Atomic             Coordinates (Angstroms)
 Number     Number       Type             X           Y           Z
 ---------------------------------------------------------------------
      1          6           0       -2.729155    2.341554    0.838310
      2          6           0       -2.830369    2.198390   -0.549415
      3          6           0       -2.902538    0.928073   -1.128754
      4          6           0       -2.870714   -0.182444   -0.286716
      5          6           0       -2.770437   -0.072466    1.099336
      6          6           0       -2.699564    1.207668    1.656813
      7          1           0       -2.673595    3.332180    1.279863
      8          1           0       -2.853566    3.077204   -1.187531
      9          1           0       -2.981394    0.788421   -2.200061
     10          1           0       -2.749597   -0.967226    1.709573
     11          1           0       -2.621012    1.315831    2.734856
     12          7           0       -2.946430   -1.532469   -0.888464
     13          8           0       -2.916465   -2.495037   -0.124787
     14          8           0       -3.034308   -1.602487   -2.112397
     15          6           0        0.882596   -0.554489    1.670150
     16          6           0        0.767451    0.404164    0.658100
     17          6           0        1.855550    0.697289   -0.169346
     18          6           0        3.049232    0.009678    0.044207
     19          6           0        3.195223   -0.950740    1.043994
     20          6           0        2.093979   -1.227695    1.859534
     21          1           0        0.032229   -0.775915    2.308305
     22          1           0       -0.172100    0.928545    0.508722
     23          1           0        1.794000    1.434780   -0.960381
     24          1           0        4.144727   -1.457019    1.168668
     25          1           0        2.186295   -1.972686    2.644715
     26          7           0        4.208113    0.311437   -0.825470
     27          8           0        5.248847   -0.308238   -0.616871
     28          8           0        4.053766    1.161917   -1.699254
 ---------------------------------------------------------------------

 SCF Done:  E(RHF) =  -868.336055665     A.U. after   16 cycles
 E2 =    -0.2604467359D+01 EUMP2 =    -0.87094052302368D+03

 The electronic state is 1-A.
 Alpha  occ. eigenvalues --  -20.61681 -20.61663 -20.60689 -20.60681 -15.86741
 Alpha  occ. eigenvalues --  -15.85735 -11.32422 -11.31078 -11.29033 -11.28975
 Alpha  occ. eigenvalues --  -11.28757 -11.28086 -11.28042 -11.27618 -11.27605
 Alpha  occ. eigenvalues --  -11.27380 -11.26664 -11.26471  -1.60741  -1.59761
 Alpha  occ. eigenvalues --   -1.40287  -1.39316  -1.20677  -1.19229  -1.09955
 Alpha  occ. eigenvalues --   -1.08645  -1.06089  -1.04620  -0.96731  -0.95489
 Alpha  occ. eigenvalues --   -0.87417  -0.86037  -0.83547  -0.82318  -0.78556
 Alpha  occ. eigenvalues --   -0.77371  -0.72948  -0.72082  -0.71953  -0.71675
 Alpha  occ. eigenvalues --   -0.71080  -0.70393  -0.66248  -0.66007  -0.64888
 Alpha  occ. eigenvalues --   -0.64729  -0.63379  -0.62059  -0.56483  -0.55229
 Alpha  occ. eigenvalues --   -0.54544  -0.54095  -0.52962  -0.52318  -0.49730
 Alpha  occ. eigenvalues --   -0.49688  -0.48716  -0.48698  -0.45624  -0.44727
 Alpha  occ. eigenvalues --   -0.38743  -0.37738  -0.37164  -0.36176
 Alpha virt. eigenvalues --    0.03946   0.05142   0.09826   0.11502   0.15338
 Alpha virt. eigenvalues --    0.16652   0.19719   0.21988   0.25305   0.26977
 Alpha virt. eigenvalues --    0.27799   0.29356   0.30044   0.30910   0.32343

 Mulliken charges:
               1
     1  C   -0.175552
     2  C   -0.220592
     3  C   -0.172636
     4  C    0.163737
     5  C   -0.181755
     6  C   -0.226413
     7  H    0.232071
     8  H    0.230571
     9  H    0.281862
    10  H    0.275672
    11  H    0.227198
    12  N    0.489204
    13  O   -0.459126
    14  O   -0.454916
    15  C   -0.172430
    16  C   -0.224617
    17  C   -0.174392
    18  C    0.159863
    19  C   -0.171593
    20  C   -0.216706
    21  H    0.216583
    22  H    0.235787
    23  H    0.272895
    24  H    0.275493
    25  H    0.223408
    26  N    0.488136
    27  O   -0.460137
    28  O   -0.461616
 Sum of Mulliken charges =  -0.00000

 Dipole moment (field-independent basis, Debye):
    X=             -4.1512    Y=              3.7255    Z=              4.9934  Tot=              7.4864
 Quadrupole moment (field-independent basis, Debye-Ang):
   XX=           -130.3508   YY=           -103.9193   ZZ=           -100.9449
   XY=            -19.8037   XZ=              5.2450   YZ=             -5.8085

 Normal termination of Gaussian 16 at Fri May  7 05:09:09 2021.
