 Gaussian 16, Revision A.03,
 Gaussian 16:  EM64L-G16RevA.03 25-Dec-2016

 -------------
 #p 6-31g* mp2
 -------------

 ------------------------------------------------------
 Input file generated by CHIRIPA (05-May-2021 14:55:20)
 ------------------------------------------------------
 Symbolic Z-matrix:
 Charge =  0 Multiplicity = 1

                         Standard orientation:
 ---------------------------------------------------------------------
 Center     Atomic      Atomic             Coordinates (Angstroms)
 Number     Number       Type             X           Y           Z
 ---------------------------------------------------------------------
      1          6           0       -0.301892   -1.036296    0.350965
      2          6           0       -1.128550   -0.840356    1.462165
      3          6           0       -2.473580   -0.497639    1.294868
      4          6           0       -2.961031   -0.358450   -0.003711
      5          6           0       -2.162639   -0.547038   -1.130784
      6          6           0       -0.820660   -0.889270   -0.939688
      7          1           0        0.741774   -1.302339    0.490169
      8          1           0       -0.728389   -0.953864    2.465674
      9          1           0       -3.135812   -0.340098    2.137512
     10          1           0       -2.590202   -0.426778   -2.118785
     11          1           0       -0.180999   -1.040826   -1.804506
     12          7           0       -4.383338    0.004113   -0.193419
     13          8           0       -4.788584    0.120735   -1.347893
     14          8           0       -5.065966    0.164802    0.815956
     15          6           0        2.791615    0.842026    0.003620
     16          6           0        2.800151    2.371046    0.007045
     17          6           0        1.395485    2.969875    0.085211
     18          1           0        2.192297    0.486940   -0.845897
     19          1           0        2.289034    0.483067    0.912440
     20          1           0        3.303791    2.727005   -0.900841
     21          1           0        3.399677    2.722533    0.856540
     22          1           0        0.887658    2.643092    0.998405
     23          1           0        0.791227    2.647591   -0.768960
     24          1           0        1.424972    4.063945    0.086386
     25          6           0        4.188526    0.228578   -0.074160
     26          6           0        4.179988   -1.300441   -0.077586
     27          6           0        5.584655   -1.899271   -0.155752
     28          1           0        4.691105    0.587538   -0.982981
     29          1           0        4.787843    0.583664    0.775356
     30          1           0        3.580463   -1.651928   -0.927081
     31          1           0        3.676349   -1.656401    0.830299
     32          1           0        6.188912   -1.576987    0.698419
     33          1           0        6.092482   -1.572489   -1.068947
     34          1           0        5.555168   -2.993341   -0.156927
 ---------------------------------------------------------------------

 SCF Done:  E(RHF) =  -669.534581262     A.U. after   15 cycles
 E2 =    -0.2093242804D+01 EUMP2 =    -0.67162782406658D+03

 The electronic state is 1-A.
 Alpha  occ. eigenvalues --  -20.60698 -20.60693 -15.85754 -11.31093 -11.27700
 Alpha  occ. eigenvalues --  -11.27697 -11.27341 -11.26675 -11.26664 -11.22750
 Alpha  occ. eigenvalues --  -11.22437 -11.22326 -11.22305 -11.21945 -11.21562
 Alpha  occ. eigenvalues --   -1.59775  -1.39330  -1.19280  -1.09406  -1.08661
 Alpha  occ. eigenvalues --   -1.04690  -1.04374  -0.96801  -0.95506  -0.87811
 Alpha  occ. eigenvalues --   -0.86085  -0.82359  -0.80467  -0.79283  -0.77399
 Alpha  occ. eigenvalues --   -0.71973  -0.71100  -0.70366  -0.66029  -0.64927
 Alpha  occ. eigenvalues --   -0.64700  -0.62048  -0.61764  -0.60183  -0.58441
 Alpha  occ. eigenvalues --   -0.56081  -0.55197  -0.53460  -0.53212  -0.52997
 Alpha  occ. eigenvalues --   -0.52782  -0.50738  -0.48762  -0.48731  -0.48728
 Alpha  occ. eigenvalues --   -0.47509  -0.46714  -0.46675  -0.44742  -0.44657
 Alpha  occ. eigenvalues --   -0.37175  -0.36300
 Alpha virt. eigenvalues --    0.05140   0.11231   0.16592   0.19657   0.22624
 Alpha virt. eigenvalues --    0.23327   0.24250   0.25445   0.27110   0.27984
 Alpha virt. eigenvalues --    0.29957   0.30603   0.30701   0.31225   0.31626

 Mulliken charges:
               1
     1  C   -0.167412
     2  C   -0.222710
     3  C   -0.169916
     4  C    0.157807
     5  C   -0.170832
     6  C   -0.222378
     7  H    0.234049
     8  H    0.222448
     9  H    0.275258
    10  H    0.275173
    11  H    0.222189
    12  N    0.488193
    13  O   -0.460873
    14  O   -0.460824
    15  C   -0.300802
    16  C   -0.300378
    17  C   -0.475889
    18  H    0.145752
    19  H    0.144039
    20  H    0.154003
    21  H    0.153745
    22  H    0.155925
    23  H    0.156895
    24  H    0.163034
    25  C   -0.297618
    26  C   -0.302717
    27  C   -0.475725
    28  H    0.153118
    29  H    0.153014
    30  H    0.147843
    31  H    0.147035
    32  H    0.158049
    33  H    0.158284
    34  H    0.162219
 Sum of Mulliken charges =  -0.00000

 Dipole moment (field-independent basis, Debye):
    X=              5.2215    Y=             -1.1782    Z=              0.6612  Tot=              5.3934
 Quadrupole moment (field-independent basis, Debye-Ang):
   XX=           -125.1876   YY=            -94.7368   ZZ=            -88.8509
   XY=              2.5833   XZ=             -2.6854   YZ=             -0.1560

 Normal termination of Gaussian 16 at Wed May  5 17:22:44 2021.
