 Gaussian 16, Revision A.03,
 Gaussian 16:  EM64L-G16RevA.03 25-Dec-2016

 -------------
 #p 6-31g* mp2
 -------------

 ------------------------------------------------------
 Input file generated by CHIRIPA (05-May-2021 14:51:09)
 ------------------------------------------------------
 Symbolic Z-matrix:
 Charge =  0 Multiplicity = 1

                         Standard orientation:
 ---------------------------------------------------------------------
 Center     Atomic      Atomic             Coordinates (Angstroms)
 Number     Number       Type             X           Y           Z
 ---------------------------------------------------------------------
      1          6           0       -2.467595   -0.645284   -0.594854
      2          6           0       -1.424563   -1.239175   -1.542146
      3          6           0       -1.839715   -2.601021   -2.099659
      4          1           0       -2.641319   -1.344960    0.234132
      5          1           0       -3.423686   -0.548402   -1.127675
      6          1           0       -0.470364   -1.333621   -1.008106
      7          1           0       -1.253161   -0.537918   -2.368872
      8          1           0       -2.778931   -2.519359   -2.656262
      9          1           0       -1.991686   -3.319583   -1.287764
     10          1           0       -1.079712   -3.007222   -2.774385
     11          6           0       -2.066904    0.716085   -0.029301
     12          6           0       -3.109936    1.309977    0.917991
     13          6           0       -2.694784    2.671822    1.475504
     14          1           0       -1.110813    0.619203    0.503520
     15          1           0       -1.893180    1.415761   -0.858287
     16          1           0       -3.281338    0.608719    1.744717
     17          1           0       -4.064135    1.404422    0.383951
     18          1           0       -2.542813    3.390384    0.663609
     19          1           0       -1.755568    2.590160    2.032107
     20          1           0       -3.454787    3.078023    2.150230
     21          6           0        2.173088    0.683980    0.073210
     22          6           0        3.107796    1.069260   -1.073902
     23          6           0        2.907449    2.511374   -1.540767
     24          1           0        1.131877    0.825845   -0.247255
     25          1           0        2.336788    1.369394    0.916302
     26          1           0        2.943358    0.382462   -1.914072
     27          1           0        4.146898    0.926278   -0.750734
     28          1           0        3.091290    3.211312   -0.719248
     29          1           0        1.880911    2.664405   -1.889196
     30          1           0        3.585671    2.765618   -2.361275
     31          6           0        2.361411   -0.754781    0.550945
     32          6           0        1.426704   -1.140061    1.698058
     33          6           0        1.627050   -2.582176    2.164921
     34          1           0        2.197711   -1.440195   -0.292147
     35          1           0        3.402622   -0.896647    0.871410
     36          1           0        0.387601   -0.997080    1.374889
     37          1           0        1.591141   -0.453264    2.538227
     38          1           0        2.653588   -2.735207    2.513351
     39          1           0        1.443209   -3.282113    1.343403
     40          1           0        0.948828   -2.836419    2.985431
 ---------------------------------------------------------------------

 SCF Done:  E(RHF) =  -470.732032350     A.U. after   11 cycles
 E2 =    -0.1585671438D+01 EUMP2 =    -0.47231770378778D+03

 The electronic state is 1-A.
 Alpha  occ. eigenvalues --  -11.21675 -11.21653 -11.21617 -11.21570 -11.21450
 Alpha  occ. eigenvalues --  -11.21408 -11.21365 -11.21298 -11.21137 -11.21127
 Alpha  occ. eigenvalues --  -11.21068 -11.21044  -1.08551  -1.08387  -1.03582
 Alpha  occ. eigenvalues --   -1.03538  -0.96027  -0.95988  -0.87044  -0.87002
 Alpha  occ. eigenvalues --   -0.79648  -0.79617  -0.78550  -0.78050  -0.65541
 Alpha  occ. eigenvalues --   -0.64720  -0.61086  -0.60824  -0.59387  -0.59358
 Alpha  occ. eigenvalues --   -0.57683  -0.57565  -0.55324  -0.55285  -0.52731
 Alpha  occ. eigenvalues --   -0.52680  -0.52467  -0.52399  -0.50030  -0.49886
 Alpha  occ. eigenvalues --   -0.47977  -0.47931  -0.46797  -0.46665  -0.46571
 Alpha  occ. eigenvalues --   -0.45793  -0.45729  -0.44761  -0.43825  -0.43778
 Alpha virt. eigenvalues --    0.20034   0.22876   0.23582   0.24661   0.25318
 Alpha virt. eigenvalues --    0.26636   0.26905   0.27539   0.28206   0.30816
 Alpha virt. eigenvalues --    0.30976   0.31645   0.31755   0.31834   0.32246

 Mulliken charges:
               1
     1  C   -0.297821
     2  C   -0.308049
     3  C   -0.475474
     4  H    0.149473
     5  H    0.150102
     6  H    0.159304
     7  H    0.151778
     8  H    0.155655
     9  H    0.155436
    10  H    0.160137
    11  C   -0.309949
    12  C   -0.298578
    13  C   -0.475946
    14  H    0.160871
    15  H    0.148954
    16  H    0.151826
    17  H    0.151890
    18  H    0.155184
    19  H    0.155826
    20  H    0.160244
    21  C   -0.307261
    22  C   -0.299020
    23  C   -0.475686
    24  H    0.159835
    25  H    0.148620
    26  H    0.151945
    27  H    0.151598
    28  H    0.155126
    29  H    0.155308
    30  H    0.160033
    31  C   -0.299622
    32  C   -0.308264
    33  C   -0.475380
    34  H    0.149879
    35  H    0.150380
    36  H    0.158555
    37  H    0.152046
    38  H    0.155733
    39  H    0.155229
    40  H    0.160081
 Sum of Mulliken charges =  -0.00000

 Dipole moment (field-independent basis, Debye):
    X=             -0.0161    Y=              0.0024    Z=              0.0045  Tot=              0.0168
 Quadrupole moment (field-independent basis, Debye-Ang):
   XX=            -84.1969   YY=            -86.4969   ZZ=            -84.1481
   XY=             -0.1234   XZ=              0.7479   YZ=             -0.1612

 Normal termination of Gaussian 16 at Wed May  5 21:22:24 2021.
