 Gaussian 16, Revision A.03,
 Gaussian 16:  EM64L-G16RevA.03 25-Dec-2016

 -------------
 #p 6-31g* mp2
 -------------

 ------------------------------------------------------
 Input file generated by CHIRIPA (05-May-2021 14:55:21)
 ------------------------------------------------------
 Symbolic Z-matrix:
 Charge =  0 Multiplicity = 1

                         Standard orientation:
 ---------------------------------------------------------------------
 Center     Atomic      Atomic             Coordinates (Angstroms)
 Number     Number       Type             X           Y           Z
 ---------------------------------------------------------------------
      1          6           0       -4.187944   -1.922228   -0.534555
      2          6           0       -2.827404   -1.830905   -0.222927
      3          6           0       -2.241355   -0.589475    0.041550
      4          6           0       -3.049037    0.545331   -0.014620
      5          6           0       -4.407444    0.486934   -0.322207
      6          6           0       -4.972239   -0.765058   -0.583114
      7          1           0       -4.634945   -2.890703   -0.738621
      8          1           0       -2.215880   -2.727903   -0.184495
      9          1           0       -1.190601   -0.490018    0.285356
     10          1           0       -4.991441    1.398757   -0.352928
     11          1           0       -6.029118   -0.832966   -0.824861
     12          7           0       -2.439865    1.865168    0.263481
     13          8           0       -3.173047    2.850031    0.207588
     14          8           0       -1.240747    1.889801    0.532083
     15          6           0        3.496567   -0.598193    0.592762
     16          6           0        2.413018   -1.527711    0.045126
     17          6           0        1.350477   -1.875940    1.087975
     18          1           0        3.974251   -1.073495    1.460432
     19          1           0        3.026704    0.324310    0.961015
     20          1           0        2.884931   -2.447610   -0.323251
     21          1           0        1.937988   -1.050224   -0.821458
     22          1           0        0.853094   -0.969764    1.448609
     23          1           0        1.805417   -2.375090    1.949648
     24          1           0        0.585754   -2.541307    0.675244
     25          6           0        4.565990   -0.240991   -0.438000
     26          6           0        5.649539    0.688527    0.109636
     27          6           0        6.712081    1.036756   -0.933213
     28          1           0        5.035853   -1.163494   -0.806253
     29          1           0        4.088306    0.234311   -1.305669
     30          1           0        6.124569    0.211040    0.976222
     31          1           0        5.177626    1.608426    0.478013
     32          1           0        6.257140    1.535906   -1.794885
     33          1           0        7.209463    0.130580   -1.293846
     34          1           0        7.476803    1.702123   -0.520482
 ---------------------------------------------------------------------

 SCF Done:  E(RHF) =  -669.535602763     A.U. after   15 cycles
 E2 =    -0.2091534189D+01 EUMP2 =    -0.67162713695210D+03

 The electronic state is 1-A.
 Alpha  occ. eigenvalues --  -20.60774 -20.60766 -15.85820 -11.31126 -11.27713
 Alpha  occ. eigenvalues --  -11.27637 -11.27457 -11.26723 -11.26700 -11.21854
 Alpha  occ. eigenvalues --  -11.21641 -11.21430 -11.21348 -11.21262 -11.20904
 Alpha  occ. eigenvalues --   -1.59845  -1.39401  -1.19307  -1.08717  -1.08431
 Alpha  occ. eigenvalues --   -1.04705  -1.03619  -0.96095  -0.95554  -0.87120
 Alpha  occ. eigenvalues --   -0.86106  -0.82391  -0.79686  -0.78200  -0.77441
 Alpha  occ. eigenvalues --   -0.72044  -0.71165  -0.70432  -0.65079  -0.64963
 Alpha  occ. eigenvalues --   -0.64701  -0.62140  -0.60951  -0.59484  -0.57677
 Alpha  occ. eigenvalues --   -0.55457  -0.55126  -0.53042  -0.52861  -0.52779
 Alpha  occ. eigenvalues --   -0.52480  -0.49988  -0.48800  -0.48793  -0.47994
 Alpha  occ. eigenvalues --   -0.46678  -0.45758  -0.45635  -0.44817  -0.43853
 Alpha  occ. eigenvalues --   -0.37298  -0.36303
 Alpha virt. eigenvalues --    0.05082   0.11335   0.16585   0.19899   0.23025
 Alpha virt. eigenvalues --    0.23971   0.25818   0.26452   0.27321   0.27899
 Alpha virt. eigenvalues --    0.28757   0.30430   0.31443   0.31962   0.32636

 Mulliken charges:
               1
     1  C   -0.170449
     2  C   -0.224520
     3  C   -0.178329
     4  C    0.157381
     5  C   -0.169961
     6  C   -0.219216
     7  H    0.225450
     8  H    0.224558
     9  H    0.290241
    10  H    0.275318
    11  H    0.223191
    12  N    0.487539
    13  O   -0.460170
    14  O   -0.462527
    15  C   -0.300637
    16  C   -0.300104
    17  C   -0.487683
    18  H    0.148996
    19  H    0.158873
    20  H    0.151740
    21  H    0.153897
    22  H    0.164509
    23  H    0.161468
    24  H    0.148580
    25  C   -0.298742
    26  C   -0.300364
    27  C   -0.475870
    28  H    0.147710
    29  H    0.151763
    30  H    0.151156
    31  H    0.155582
    32  H    0.156100
    33  H    0.153927
    34  H    0.160594
 Sum of Mulliken charges =  -0.00000

 Dipole moment (field-independent basis, Debye):
    X=             -2.0140    Y=             -4.5608    Z=             -0.9387  Tot=              5.0733
 Quadrupole moment (field-independent basis, Debye-Ang):
   XX=            -78.0339   YY=            -99.0884   ZZ=            -95.7649
   XY=             10.4017   XZ=              4.6878   YZ=             -0.8549

 Normal termination of Gaussian 16 at Thu May  6 20:46:20 2021.
