 Gaussian 16, Revision A.03,
 Gaussian 16:  EM64L-G16RevA.03 25-Dec-2016

 -------------
 #p 6-31g* mp2
 -------------

 ------------------------------------------------------
 Input file generated by CHIRIPA (05-May-2021 14:55:19)
 ------------------------------------------------------
 Symbolic Z-matrix:
 Charge =  0 Multiplicity = 1

                         Standard orientation:
 ---------------------------------------------------------------------
 Center     Atomic      Atomic             Coordinates (Angstroms)
 Number     Number       Type             X           Y           Z
 ---------------------------------------------------------------------
      1          6           0       -1.762812    1.273372    2.048325
      2          6           0       -2.391464    0.061614    2.353218
      3          6           0       -2.945679   -0.725528    1.339412
      4          6           0       -2.852823   -0.268468    0.025729
      5          6           0       -2.232886    0.934159   -0.309916
      6          6           0       -1.685665    1.705016    0.720073
      7          1           0       -1.335001    1.878518    2.842159
      8          1           0       -2.452857   -0.276103    3.383859
      9          1           0       -3.438012   -1.667758    1.547327
     10          1           0       -2.187273    1.244496   -1.346751
     11          1           0       -1.198038    2.645651    0.480341
     12          7           0       -3.435844   -1.093160   -1.056108
     13          8           0       -3.340879   -0.668272   -2.205494
     14          8           0       -3.976739   -2.148826   -0.734180
     15          6           0        3.392992    0.851912   -0.576706
     16          6           0        1.925816    1.275302   -0.498462
     17          6           0        1.670326    2.642301   -1.133938
     18          1           0        4.013846    1.610347   -0.080457
     19          1           0        3.705975    0.831998   -1.629815
     20          1           0        1.615303    1.293072    0.554098
     21          1           0        1.308365    0.515676   -0.994786
     22          1           0        1.953006    2.634348   -2.191591
     23          1           0        2.261689    3.416161   -0.633906
     24          1           0        0.615209    2.925307   -1.066891
     25          6           0        3.664248   -0.512588    0.054393
     26          6           0        5.131424   -0.935977   -0.023852
     27          6           0        5.386915   -2.302976    0.611625
     28          1           0        3.351265   -0.492674    1.107503
     29          1           0        3.043395   -1.271023   -0.441856
     30          1           0        5.748877   -0.176351    0.472473
     31          1           0        5.441938   -0.953748   -1.076412
     32          1           0        4.795553   -3.076837    0.111593
     33          1           0        5.104234   -2.295023    1.669278
     34          1           0        6.442032   -2.585983    0.544578
 ---------------------------------------------------------------------

 SCF Done:  E(RHF) =  -669.535191176     A.U. after   15 cycles
 E2 =    -0.2092257569D+01 EUMP2 =    -0.67162744874453D+03

 The electronic state is 1-A.
 Alpha  occ. eigenvalues --  -20.60773 -20.60768 -15.85827 -11.31196 -11.27756
 Alpha  occ. eigenvalues --  -11.27752 -11.27500 -11.26781 -11.26757 -11.22069
 Alpha  occ. eigenvalues --  -11.21818 -11.21807 -11.21749 -11.21639 -11.21242
 Alpha  occ. eigenvalues --   -1.59849  -1.39402  -1.19365  -1.08793  -1.08746
 Alpha  occ. eigenvalues --   -1.04775  -1.03914  -0.96387  -0.95595  -0.87403
 Alpha  occ. eigenvalues --   -0.86166  -0.82430  -0.79970  -0.78565  -0.77478
 Alpha  occ. eigenvalues --   -0.72045  -0.71172  -0.70473  -0.65411  -0.65020
 Alpha  occ. eigenvalues --   -0.64803  -0.62187  -0.61303  -0.59754  -0.57988
 Alpha  occ. eigenvalues --   -0.55657  -0.55269  -0.53238  -0.53066  -0.52913
 Alpha  occ. eigenvalues --   -0.52605  -0.50304  -0.48804  -0.48799  -0.48288
 Alpha  occ. eigenvalues --   -0.46990  -0.46112  -0.46022  -0.44807  -0.44172
 Alpha  occ. eigenvalues --   -0.37334  -0.36334
 Alpha virt. eigenvalues --    0.05036   0.11220   0.16463   0.20118   0.22746
 Alpha virt. eigenvalues --    0.23943   0.26097   0.26322   0.27126   0.28105
 Alpha virt. eigenvalues --    0.28739   0.30117   0.31057   0.31672   0.31936

 Mulliken charges:
               1
     1  C   -0.172743
     2  C   -0.218235
     3  C   -0.170981
     4  C    0.158225
     5  C   -0.172091
     6  C   -0.215763
     7  H    0.225644
     8  H    0.223408
     9  H    0.275590
    10  H    0.275577
    11  H    0.227024
    12  N    0.488065
    13  O   -0.460456
    14  O   -0.460420
    15  C   -0.299175
    16  C   -0.299704
    17  C   -0.477761
    18  H    0.148715
    19  H    0.151703
    20  H    0.148560
    21  H    0.156814
    22  H    0.161163
    23  H    0.155930
    24  H    0.148228
    25  C   -0.298457
    26  C   -0.299958
    27  C   -0.475924
    28  H    0.147814
    29  H    0.152583
    30  H    0.151309
    31  H    0.153232
    32  H    0.156818
    33  H    0.154273
    34  H    0.160994
 Sum of Mulliken charges =  -0.00000

 Dipole moment (field-independent basis, Debye):
    X=              2.1274    Y=              2.8312    Z=              3.7920  Tot=              5.1885
 Quadrupole moment (field-independent basis, Debye-Ang):
   XX=           -106.7240   YY=            -95.3344   ZZ=            -91.9076
   XY=             -7.4158   XZ=            -12.2157   YZ=             -2.7141

 Normal termination of Gaussian 16 at Wed May  5 22:08:14 2021.
