 Gaussian 16, Revision A.03,
 Gaussian 16:  EM64L-G16RevA.03 25-Dec-2016

 -------------
 #p 6-31g* mp2
 -------------

 ------------------------------------------------------
 Input file generated by CHIRIPA (05-May-2021 14:51:11)
 ------------------------------------------------------
 Symbolic Z-matrix:
 Charge =  0 Multiplicity = 1

                         Standard orientation:
 ---------------------------------------------------------------------
 Center     Atomic      Atomic             Coordinates (Angstroms)
 Number     Number       Type             X           Y           Z
 ---------------------------------------------------------------------
      1          6           0        3.359290   -0.793109   -0.027170
      2          6           0        3.844270    0.571057    0.464595
      3          6           0        5.368892    0.670545    0.523098
      4          1           0        3.754119   -1.575979    0.634775
      5          1           0        3.778781   -0.986001   -1.024273
      6          1           0        3.422874    0.761924    1.459889
      7          1           0        3.448084    1.350785   -0.198486
      8          1           0        5.803999    0.505965   -0.467960
      9          1           0        5.778646   -0.086242    1.199838
     10          1           0        5.693751    1.653875    0.877200
     11          6           0        1.837306   -0.908010   -0.091106
     12          6           0        1.352326   -2.272175   -0.582870
     13          6           0       -0.172296   -2.371664   -0.641374
     14          1           0        1.417815   -0.715118    0.905998
     15          1           0        1.442477   -0.125140   -0.753050
     16          1           0        1.748512   -3.051904    0.080210
     17          1           0        1.773722   -2.463043   -1.578165
     18          1           0       -0.582050   -1.614877   -1.318113
     19          1           0       -0.607403   -2.207084    0.349684
     20          1           0       -0.497155   -3.354994   -0.995476
     21          6           0       -2.222103    1.308943   -0.422313
     22          6           0       -1.543398    2.490676    0.271122
     23          6           0       -0.794866    3.398570   -0.705208
     24          1           0       -1.464503    0.724133   -0.961741
     25          1           0       -2.921058    1.689511   -1.179959
     26          1           0       -0.846953    2.108016    1.028190
     27          1           0       -2.302675    3.072632    0.809121
     28          1           0       -1.480906    3.807991   -1.453758
     29          1           0       -0.016913    2.837894   -1.233443
     30          1           0       -0.317243    4.236754   -0.188310
     31          6           0       -2.974492    0.392176    0.540588
     32          6           0       -3.653198   -0.789557   -0.152847
     33          6           0       -4.401729   -1.697451    0.823484
     34          1           0       -2.275539    0.011608    1.298234
     35          1           0       -3.732093    0.976986    1.080017
     36          1           0       -2.893923   -1.371513   -0.690845
     37          1           0       -4.349645   -0.406897   -0.909915
     38          1           0       -5.179682   -1.136776    1.351719
     39          1           0       -3.715690   -2.106871    1.572033
     40          1           0       -4.879354   -2.535634    0.306585
 ---------------------------------------------------------------------

 SCF Done:  E(RHF) =  -470.732398929     A.U. after   11 cycles
 E2 =    -0.1584744594D+01 EUMP2 =    -0.47231714352327D+03

 The electronic state is 1-A.
 Alpha  occ. eigenvalues --  -11.21698 -11.21652 -11.21541 -11.21506 -11.21433
 Alpha  occ. eigenvalues --  -11.21399 -11.21315 -11.21254 -11.21184 -11.21107
 Alpha  occ. eigenvalues --  -11.21049 -11.20975  -1.08527  -1.08332  -1.03622
 Alpha  occ. eigenvalues --   -1.03434  -0.96075  -0.95902  -0.87115  -0.86905
 Alpha  occ. eigenvalues --   -0.79730  -0.79480  -0.78365  -0.78123  -0.65165
 Alpha  occ. eigenvalues --   -0.64978  -0.61030  -0.60855  -0.59436  -0.59272
 Alpha  occ. eigenvalues --   -0.57668  -0.57508  -0.55392  -0.55169  -0.52774
 Alpha  occ. eigenvalues --   -0.52639  -0.52469  -0.52324  -0.50039  -0.49832
 Alpha  occ. eigenvalues --   -0.48107  -0.47785  -0.46782  -0.46527  -0.46103
 Alpha  occ. eigenvalues --   -0.45838  -0.45603  -0.45180  -0.43863  -0.43693
 Alpha virt. eigenvalues --    0.19969   0.22275   0.23513   0.24432   0.25085
 Alpha virt. eigenvalues --    0.26050   0.26924   0.28110   0.28453   0.30064
 Alpha virt. eigenvalues --    0.30686   0.31101   0.31519   0.31826   0.32088

 Mulliken charges:
               1
     1  C   -0.298383
     2  C   -0.299804
     3  C   -0.475771
     4  H    0.150044
     5  H    0.149838
     6  H    0.151952
     7  H    0.152278
     8  H    0.155301
     9  H    0.155238
    10  H    0.160566
    11  C   -0.300304
    12  C   -0.300672
    13  C   -0.481374
    14  H    0.149405
    15  H    0.150704
    16  H    0.152393
    17  H    0.152347
    18  H    0.158857
    19  H    0.157525
    20  H    0.161228
    21  C   -0.303285
    22  C   -0.299406
    23  C   -0.476062
    24  H    0.154129
    25  H    0.148972
    26  H    0.152671
    27  H    0.151679
    28  H    0.155013
    29  H    0.154529
    30  H    0.160258
    31  C   -0.297959
    32  C   -0.307894
    33  C   -0.475346
    34  H    0.148921
    35  H    0.149285
    36  H    0.163867
    37  H    0.150660
    38  H    0.154582
    39  H    0.154204
    40  H    0.159813
 Sum of Mulliken charges =  -0.00000

 Dipole moment (field-independent basis, Debye):
    X=              0.0635    Y=             -0.0452    Z=             -0.0200  Tot=              0.0805
 Quadrupole moment (field-independent basis, Debye-Ang):
   XX=            -85.7784   YY=            -84.9549   ZZ=            -84.1879
   XY=             -1.1323   XZ=              0.3893   YZ=              0.0706

 Normal termination of Gaussian 16 at Wed May  5 19:52:21 2021.
