 Gaussian 16, Revision A.03,
 Gaussian 16:  EM64L-G16RevA.03 25-Dec-2016

 -------------
 #p 6-31g* mp2
 -------------

 ------------------------------------------------------
 Input file generated by CHIRIPA (05-May-2021 14:57:24)
 ------------------------------------------------------
 Symbolic Z-matrix:
 Charge =  0 Multiplicity = 1

                         Standard orientation:
 ---------------------------------------------------------------------
 Center     Atomic      Atomic             Coordinates (Angstroms)
 Number     Number       Type             X           Y           Z
 ---------------------------------------------------------------------
      1          6           0        1.307455    0.698059    2.157080
      2          6           0        1.360116   -0.644427    1.767876
      3          6           0        2.190151   -1.047099    0.717426
      4          6           0        2.957459   -0.076446    0.075274
      5          6           0        2.926898    1.268724    0.439792
      6          6           0        2.089635    1.648674    1.492967
      7          1           0        0.659856    1.002038    2.974153
      8          1           0        0.753774   -1.384864    2.281829
      9          1           0        2.250249   -2.079685    0.395597
     10          1           0        3.543021    1.983894   -0.091566
     11          1           0        2.050763    2.691970    1.793077
     12          7           0        3.840006   -0.490709   -1.038233
     13          8           0        4.506136    0.383800   -1.587908
     14          8           0        3.848906   -1.682074   -1.340240
     15          6           0       -3.113163   -2.459056    0.174818
     16          6           0       -4.227421   -1.650906   -0.073868
     17          6           0       -4.072423   -0.282627   -0.315397
     18          6           0       -2.782890    0.246693   -0.300713
     19          6           0       -1.653064   -0.532369   -0.056083
     20          6           0       -1.831800   -1.898198    0.182902
     21          1           0       -3.242790   -3.521017    0.361455
     22          1           0       -5.223736   -2.083751   -0.080759
     23          1           0       -4.917692    0.366061   -0.510693
     24          1           0       -0.672438   -0.072160   -0.055674
     25          1           0       -0.964634   -2.523402    0.375744
     26          7           0       -2.606235    1.693931   -0.555063
     27          8           0       -1.459559    2.136009   -0.536672
     28          8           0       -3.617794    2.358795   -0.767998
 ---------------------------------------------------------------------

 SCF Done:  E(RHF) =  -868.336874759     A.U. after   16 cycles
 E2 =    -0.2602974935D+01 EUMP2 =    -0.87093984969451D+03

 The electronic state is 1-A.
 Alpha  occ. eigenvalues --  -20.61120 -20.61106 -20.60993 -20.60967 -15.86166
 Alpha  occ. eigenvalues --  -15.86040 -11.31512 -11.31469 -11.28171 -11.28092
 Alpha  occ. eigenvalues --  -11.27968 -11.27937 -11.27863 -11.27753 -11.27181
 Alpha  occ. eigenvalues --  -11.27119 -11.27075 -11.26956  -1.60193  -1.60055
 Alpha  occ. eigenvalues --   -1.39745  -1.39606  -1.19728  -1.19648  -1.09093
 Alpha  occ. eigenvalues --   -1.09044  -1.05213  -1.04980  -0.95924  -0.95856
 Alpha  occ. eigenvalues --   -0.86503  -0.86454  -0.82820  -0.82637  -0.77881
 Alpha  occ. eigenvalues --   -0.77669  -0.72390  -0.72253  -0.71520  -0.71382
 Alpha  occ. eigenvalues --   -0.70792  -0.70731  -0.65365  -0.65324  -0.65163
 Alpha  occ. eigenvalues --   -0.65003  -0.62601  -0.62293  -0.55636  -0.55522
 Alpha  occ. eigenvalues --   -0.53667  -0.53443  -0.53123  -0.52842  -0.49144
 Alpha  occ. eigenvalues --   -0.49139  -0.49022  -0.49003  -0.45165  -0.44991
 Alpha  occ. eigenvalues --   -0.37750  -0.37651  -0.36843  -0.36428
 Alpha virt. eigenvalues --    0.04619   0.04850   0.10702   0.11154   0.16023
 Alpha virt. eigenvalues --    0.16324   0.19903   0.21939   0.25363   0.27928
 Alpha virt. eigenvalues --    0.28141   0.28682   0.30446   0.31484   0.32163

 Mulliken charges:
               1
     1  C   -0.168901
     2  C   -0.233219
     3  C   -0.180158
     4  C    0.160948
     5  C   -0.167574
     6  C   -0.208225
     7  H    0.229950
     8  H    0.221166
     9  H    0.272056
    10  H    0.279618
    11  H    0.230950
    12  N    0.488358
    13  O   -0.456534
    14  O   -0.462349
    15  C   -0.169807
    16  C   -0.219576
    17  C   -0.169753
    18  C    0.156187
    19  C   -0.175964
    20  C   -0.224662
    21  H    0.226277
    22  H    0.224444
    23  H    0.276174
    24  H    0.288131
    25  H    0.216557
    26  N    0.487871
    27  O   -0.462185
    28  O   -0.459780
 Sum of Mulliken charges =  -0.00000

 Dipole moment (field-independent basis, Debye):
    X=             -3.5693    Y=             -3.2640    Z=              4.8294  Tot=              6.8350
 Quadrupole moment (field-independent basis, Debye-Ang):
   XX=           -114.4852   YY=           -103.5523   ZZ=           -106.0153
   XY=             20.5653   XZ=              9.6184   YZ=              1.3015

 Normal termination of Gaussian 16 at Thu May  6 09:50:11 2021.
