 Gaussian 16, Revision A.03,
 Gaussian 16:  EM64L-G16RevA.03 25-Dec-2016

 -------------
 #p 6-31g* mp2
 -------------

 ------------------------------------------------------
 Input file generated by CHIRIPA (05-May-2021 14:55:24)
 ------------------------------------------------------
 Symbolic Z-matrix:
 Charge =  0 Multiplicity = 1

                         Standard orientation:
 ---------------------------------------------------------------------
 Center     Atomic      Atomic             Coordinates (Angstroms)
 Number     Number       Type             X           Y           Z
 ---------------------------------------------------------------------
      1          6           0       -4.503535   -1.974270    0.366651
      2          6           0       -3.279414   -1.891091   -0.305011
      3          6           0       -2.664606   -0.652278   -0.509710
      4          6           0       -3.304732    0.488244   -0.027282
      5          6           0       -4.524548    0.438003    0.645634
      6          6           0       -5.121106   -0.811508    0.838997
      7          1           0       -4.974045   -2.940765    0.521263
      8          1           0       -2.797504   -2.792446   -0.672934
      9          1           0       -1.717102   -0.559091   -1.026403
     10          1           0       -4.980745    1.354027    1.000881
     11          1           0       -6.071793   -0.873088    1.360963
     12          7           0       -2.663522    1.805382   -0.237987
     13          8           0       -3.247901    2.795401    0.196755
     14          8           0       -1.588705    1.822796   -0.833891
     15          6           0        4.916297    0.170451   -0.119149
     16          6           0        6.193964   -0.128564    0.665798
     17          6           0        7.286918    0.915703    0.436126
     18          1           0        5.155448    0.223553   -1.190097
     19          1           0        4.542215    1.163160    0.167181
     20          1           0        6.564762   -1.120997    0.379089
     21          1           0        5.951708   -0.181151    1.734986
     22          1           0        6.940715    1.908911    0.739908
     23          1           0        7.557251    0.963725   -0.623692
     24          1           0        8.191297    0.682464    1.006702
     25          6           0        3.814357   -0.864630    0.100092
     26          6           0        2.536689   -0.565615   -0.684856
     27          6           0        1.443736   -1.609883   -0.455184
     28          1           0        4.188438   -1.857340   -0.186239
     29          1           0        3.575205   -0.917733    1.171040
     30          1           0        2.778945   -0.513027   -1.754044
     31          1           0        2.165891    0.426819   -0.398147
     32          1           0        1.173402   -1.657904    0.604635
     33          1           0        1.789940   -2.603090   -0.758966
     34          1           0        0.539356   -1.376643   -1.025760
 ---------------------------------------------------------------------

 SCF Done:  E(RHF) =  -669.535526699     A.U. after   15 cycles
 E2 =    -0.2090947624D+01 EUMP2 =    -0.67162647432297D+03

 The electronic state is 1-A.
 Alpha  occ. eigenvalues --  -20.60765 -20.60760 -15.85816 -11.31160 -11.27735
 Alpha  occ. eigenvalues --  -11.27711 -11.27477 -11.26750 -11.26730 -11.21444
 Alpha  occ. eigenvalues --  -11.21435 -11.21318 -11.21257 -11.21164 -11.20889
 Alpha  occ. eigenvalues --   -1.59839  -1.39393  -1.19336  -1.08735  -1.08285
 Alpha  occ. eigenvalues --   -1.04737  -1.03436  -0.95928  -0.95571  -0.86953
 Alpha  occ. eigenvalues --   -0.86135  -0.82404  -0.79488  -0.78076  -0.77455
 Alpha  occ. eigenvalues --   -0.72036  -0.71161  -0.70457  -0.64989  -0.64909
 Alpha  occ. eigenvalues --   -0.64749  -0.62129  -0.60820  -0.59291  -0.57520
 Alpha  occ. eigenvalues --   -0.55257  -0.55195  -0.53078  -0.52954  -0.52532
 Alpha  occ. eigenvalues --   -0.52317  -0.49849  -0.48792  -0.48792  -0.47810
 Alpha  occ. eigenvalues --   -0.46489  -0.45634  -0.45531  -0.44802  -0.43699
 Alpha  occ. eigenvalues --   -0.37320  -0.36333
 Alpha virt. eigenvalues --    0.05070   0.11305   0.16567   0.20479   0.23019
 Alpha virt. eigenvalues --    0.23967   0.26162   0.26836   0.27653   0.27921
 Alpha virt. eigenvalues --    0.28962   0.30633   0.31491   0.31555   0.32145

 Mulliken charges:
               1
     1  C   -0.170768
     2  C   -0.221012
     3  C   -0.176751
     4  C    0.158501
     5  C   -0.170453
     6  C   -0.218897
     7  H    0.225549
     8  H    0.224067
     9  H    0.284752
    10  H    0.275454
    11  H    0.223320
    12  N    0.487177
    13  O   -0.460437
    14  O   -0.460867
    15  C   -0.298818
    16  C   -0.299587
    17  C   -0.475770
    18  H    0.149900
    19  H    0.152926
    20  H    0.150724
    21  H    0.151704
    22  H    0.156422
    23  H    0.155172
    24  H    0.159527
    25  C   -0.299019
    26  C   -0.300213
    27  C   -0.478038
    28  H    0.147396
    29  H    0.149373
    30  H    0.152622
    31  H    0.164036
    32  H    0.156321
    33  H    0.153594
    34  H    0.152093
 Sum of Mulliken charges =  -0.00000

 Dipole moment (field-independent basis, Debye):
    X=             -2.2052    Y=             -4.5636    Z=              0.7613  Tot=              5.1253
 Quadrupole moment (field-independent basis, Debye-Ang):
   XX=            -77.8430   YY=            -99.1180   ZZ=            -93.8141
   XY=             11.9880   XZ=             -4.8445   YZ=              2.1364

 Normal termination of Gaussian 16 at Thu May  6 04:44:52 2021.
