 Gaussian 16, Revision A.03,
 Gaussian 16:  EM64L-G16RevA.03 25-Dec-2016

 -------------
 #p 6-31g* mp2
 -------------

 ------------------------------------------------------
 Input file generated by CHIRIPA (05-May-2021 14:55:21)
 ------------------------------------------------------
 Symbolic Z-matrix:
 Charge =  0 Multiplicity = 1

                         Standard orientation:
 ---------------------------------------------------------------------
 Center     Atomic      Atomic             Coordinates (Angstroms)
 Number     Number       Type             X           Y           Z
 ---------------------------------------------------------------------
      1          6           0        4.388395   -1.370679   -1.360042
      2          6           0        4.877599   -0.095240   -1.059282
      3          6           0        4.088628    0.820328   -0.356567
      4          6           0        2.809391    0.425361    0.031818
      5          6           0        2.293690   -0.838092   -0.252840
      6          6           0        3.100273   -1.737388   -0.956573
      7          1           0        5.008127   -2.075594   -1.906324
      8          1           0        5.877587    0.192289   -1.371364
      9          1           0        4.442387    1.814169   -0.110495
     10          1           0        1.292808   -1.095863    0.071515
     11          1           0        2.717734   -2.727235   -1.188760
     12          7           0        1.964820    1.386018    0.776290
     13          8           0        0.841225    1.013692    1.107266
     14          8           0        2.442433    2.493117    1.014734
     15          6           0       -3.396465   -0.363389    0.779869
     16          6           0       -2.444242   -1.553984    0.897087
     17          6           0       -1.695850   -1.583392    2.230068
     18          1           0       -2.826156    0.567564    0.902426
     19          1           0       -4.119406   -0.398208    1.606633
     20          1           0       -1.724175   -1.517695    0.069559
     21          1           0       -3.016854   -2.482204    0.774046
     22          1           0       -2.400179   -1.643716    3.066059
     23          1           0       -1.100155   -0.673727    2.357570
     24          1           0       -1.020733   -2.442562    2.292570
     25          6           0       -4.151915   -0.320216   -0.547217
     26          6           0       -5.104137    0.870380   -0.664435
     27          6           0       -5.852530    0.899788   -1.997416
     28          1           0       -3.428974   -0.285395   -1.373981
     29          1           0       -4.722224   -1.251168   -0.669774
     30          1           0       -4.531526    1.798600   -0.541395
     31          1           0       -5.824205    0.834091    0.163093
     32          1           0       -6.448225   -0.009878   -2.124918
     33          1           0       -5.148201    0.960112   -2.833408
     34          1           0       -6.527647    1.758957   -2.059918
 ---------------------------------------------------------------------

 SCF Done:  E(RHF) =  -669.536279634     A.U. after   15 cycles
 E2 =    -0.2091378200D+01 EUMP2 =    -0.67162765783478D+03

 The electronic state is 1-A.
 Alpha  occ. eigenvalues --  -20.60946 -20.60929 -15.85984 -11.31275 -11.27840
 Alpha  occ. eigenvalues --  -11.27828 -11.27575 -11.26843 -11.26831 -11.21134
 Alpha  occ. eigenvalues --  -11.21131 -11.20899 -11.20712 -11.20701 -11.20305
 Alpha  occ. eigenvalues --   -1.60005  -1.39562  -1.19444  -1.08854  -1.07887
 Alpha  occ. eigenvalues --   -1.04837  -1.03010  -0.95705  -0.95436  -0.86456
 Alpha  occ. eigenvalues --   -0.86238  -0.82537  -0.79087  -0.77703  -0.77588
 Alpha  occ. eigenvalues --   -0.72218  -0.71318  -0.70554  -0.65106  -0.64846
 Alpha  occ. eigenvalues --   -0.64495  -0.62188  -0.60381  -0.58835  -0.57072
 Alpha  occ. eigenvalues --   -0.55344  -0.54690  -0.53171  -0.52925  -0.52171
 Alpha  occ. eigenvalues --   -0.51863  -0.49375  -0.48958  -0.48924  -0.47398
 Alpha  occ. eigenvalues --   -0.46111  -0.45255  -0.45137  -0.44958  -0.43268
 Alpha  occ. eigenvalues --   -0.37424  -0.36437
 Alpha virt. eigenvalues --    0.04926   0.11214   0.16423   0.20295   0.23016
 Alpha virt. eigenvalues --    0.24096   0.26601   0.27452   0.27967   0.28251
 Alpha virt. eigenvalues --    0.29206   0.30770   0.31550   0.32213   0.32395

 Mulliken charges:
               1
     1  C   -0.170341
     2  C   -0.218798
     3  C   -0.170452
     4  C    0.157203
     5  C   -0.174124
     6  C   -0.219655
     7  H    0.225967
     8  H    0.223732
     9  H    0.275692
    10  H    0.281506
    11  H    0.224239
    12  N    0.493358
    13  O   -0.467127
    14  O   -0.458955
    15  C   -0.301343
    16  C   -0.296667
    17  C   -0.487340
    18  H    0.163520
    19  H    0.147950
    20  H    0.143973
    21  H    0.147247
    22  H    0.152971
    23  H    0.183263
    24  H    0.149153
    25  C   -0.297682
    26  C   -0.299913
    27  C   -0.475364
    28  H    0.147653
    29  H    0.146457
    30  H    0.155238
    31  H    0.151350
    32  H    0.153502
    33  H    0.154157
    34  H    0.159626
 Sum of Mulliken charges =  -0.00000

 Dipole moment (field-independent basis, Debye):
    X=              3.1394    Y=             -3.1854    Z=             -2.5579  Tot=              5.1522
 Quadrupole moment (field-independent basis, Debye-Ang):
   XX=            -75.7853   YY=            -95.8184   ZZ=            -96.4498
   XY=             -5.4452   XZ=             -8.7644   YZ=             -1.1104

 Normal termination of Gaussian 16 at Thu May  6 09:20:31 2021.
