 Gaussian 16, Revision A.03,
 Gaussian 16:  EM64L-G16RevA.03 25-Dec-2016

 -------------
 #p 6-31g* mp2
 -------------

 ------------------------------------------------------
 Input file generated by CHIRIPA (05-May-2021 14:53:17)
 ------------------------------------------------------
 Symbolic Z-matrix:
 Charge =  0 Multiplicity = 1

                         Standard orientation:
 ---------------------------------------------------------------------
 Center     Atomic      Atomic             Coordinates (Angstroms)
 Number     Number       Type             X           Y           Z
 ---------------------------------------------------------------------
      1          6           0       -3.256169    0.093784    0.433882
      2          6           0       -3.624719   -1.242628   -0.211223
      3          6           0       -4.183349   -2.250188    0.794038
      4          1           0       -2.518078   -0.081118    1.228600
      5          1           0       -4.146136    0.515569    0.921170
      6          1           0       -2.734653   -1.661103   -0.698333
      7          1           0       -4.361875   -1.064502   -1.004626
      8          1           0       -5.086434   -1.857120    1.272092
      9          1           0       -3.449966   -2.457110    1.580125
     10          1           0       -4.440182   -3.198400    0.311554
     11          6           0       -2.696273    1.111482   -0.558355
     12          6           0       -2.327722    2.447893    0.086751
     13          6           0       -1.769092    3.455453   -0.918510
     14          1           0       -1.806305    0.689697   -1.045643
     15          1           0       -3.434363    1.286384   -1.353073
     16          1           0       -1.590567    2.269767    0.880154
     17          1           0       -3.217789    2.866368    0.573861
     18          1           0       -2.502475    3.662376   -1.704597
     19          1           0       -0.866008    3.062385   -1.396565
     20          1           0       -1.512260    4.403666   -0.436027
     21          6           0        4.140774    1.214545    0.527272
     22          6           0        4.421372    0.084415   -0.247708
     23          6           0        3.423146   -0.855978   -0.519284
     24          6           0        2.149647   -0.633740    0.002348
     25          6           0        1.838969    0.482247    0.777810
     26          6           0        2.852739    1.409510    1.036659
     27          1           0        4.922257    1.939964    0.733296
     28          1           0        5.420771   -0.069587   -0.644610
     29          1           0        3.612925   -1.739700   -1.116308
     30          1           0        0.833167    0.608486    1.159705
     31          1           0        2.631946    2.286259    1.638827
     32          7           0        1.084642   -1.622342   -0.278421
     33          8           0       -0.029248   -1.403522    0.192752
     34          8           0        1.383948   -2.597310   -0.964345
 ---------------------------------------------------------------------

 SCF Done:  E(RHF) =  -669.536438347     A.U. after   15 cycles
 E2 =    -0.2093022316D+01 EUMP2 =    -0.67162946066330D+03

 The electronic state is 1-A.
 Alpha  occ. eigenvalues --  -20.61126 -20.61121 -15.86134 -11.31383 -11.27935
 Alpha  occ. eigenvalues --  -11.27931 -11.27656 -11.26926 -11.26915 -11.21324
 Alpha  occ. eigenvalues --  -11.20944 -11.20551 -11.20256 -11.20103 -11.19821
 Alpha  occ. eigenvalues --   -1.60174  -1.39734  -1.19543  -1.08962  -1.07542
 Alpha  occ. eigenvalues --   -1.04926  -1.02687  -0.95817  -0.95165  -0.86333
 Alpha  occ. eigenvalues --   -0.86200  -0.82655  -0.78835  -0.77720  -0.77249
 Alpha  occ. eigenvalues --   -0.72390  -0.71479  -0.70651  -0.65219  -0.64933
 Alpha  occ. eigenvalues --   -0.64108  -0.62271  -0.60050  -0.58625  -0.56755
 Alpha  occ. eigenvalues --   -0.55434  -0.54448  -0.53260  -0.53016  -0.51943
 Alpha  occ. eigenvalues --   -0.51592  -0.49248  -0.49132  -0.49010  -0.47136
 Alpha  occ. eigenvalues --   -0.45860  -0.45306  -0.44810  -0.44410  -0.42915
 Alpha  occ. eigenvalues --   -0.37516  -0.36522
 Alpha virt. eigenvalues --    0.04768   0.11106   0.16261   0.19910   0.22988
 Alpha virt. eigenvalues --    0.25121   0.25944   0.27522   0.28142   0.28788
 Alpha virt. eigenvalues --    0.29371   0.31279   0.31921   0.32212   0.32648

 Mulliken charges:
               1
     1  C   -0.294703
     2  C   -0.304686
     3  C   -0.475348
     4  H    0.154573
     5  H    0.141455
     6  H    0.176653
     7  H    0.143000
     8  H    0.147504
     9  H    0.158835
    10  H    0.157845
    11  C   -0.300325
    12  C   -0.298329
    13  C   -0.475337
    14  H    0.157277
    15  H    0.146535
    16  H    0.140663
    17  H    0.151823
    18  H    0.157070
    19  H    0.152968
    20  H    0.155538
    21  C   -0.170250
    22  C   -0.218659
    23  C   -0.170224
    24  C    0.157126
    25  C   -0.173660
    26  C   -0.219057
    27  H    0.226482
    28  H    0.224177
    29  H    0.275968
    30  H    0.279562
    31  H    0.224730
    32  N    0.492473
    33  O   -0.464203
    34  O   -0.457475
 Sum of Mulliken charges =  -0.00000

 Dipole moment (field-independent basis, Debye):
    X=              4.0714    Y=              3.2533    Z=              0.9196  Tot=              5.2920
 Quadrupole moment (field-independent basis, Debye-Ang):
   XX=            -77.0945   YY=            -99.1222   ZZ=            -94.3989
   XY=              2.7422   XZ=              0.8220   YZ=              1.6460

 Normal termination of Gaussian 16 at Wed May  5 18:45:27 2021.
