 Gaussian 16, Revision A.03,
 Gaussian 16:  EM64L-G16RevA.03 25-Dec-2016

 -------------
 #p 6-31g* mp2
 -------------

 ------------------------------------------------------
 Input file generated by CHIRIPA (05-May-2021 14:57:26)
 ------------------------------------------------------
 Symbolic Z-matrix:
 Charge =  0 Multiplicity = 1

                         Standard orientation:
 ---------------------------------------------------------------------
 Center     Atomic      Atomic             Coordinates (Angstroms)
 Number     Number       Type             X           Y           Z
 ---------------------------------------------------------------------
      1          6           0       -2.430512    2.699003    0.079554
      2          6           0       -3.769791    2.386931   -0.176307
      3          6           0       -4.179147    1.055049   -0.290611
      4          6           0       -3.218376    0.055874   -0.142767
      5          6           0       -1.876628    0.334801    0.112581
      6          6           0       -1.489864    1.673750    0.222929
      7          1           0       -2.121290    3.736386    0.166812
      8          1           0       -4.502492    3.181093   -0.288116
      9          1           0       -5.209450    0.785218   -0.488313
     10          1           0       -1.169215   -0.478602    0.219169
     11          1           0       -0.449079    1.913150    0.421674
     12          7           0       -3.639784   -1.357871   -0.261682
     13          8           0       -2.773942   -2.219788   -0.127321
     14          8           0       -4.827947   -1.577277   -0.486996
     15          6           0        1.226863   -1.522116    1.195891
     16          6           0        1.715732   -1.934089   -0.048219
     17          6           0        2.780276   -1.258243   -0.651976
     18          6           0        3.334740   -0.169651    0.019462
     19          6           0        2.869926    0.264947    1.259770
     20          6           0        1.804503   -0.425846    1.844770
     21          1           0        0.399559   -2.052935    1.657618
     22          1           0        1.269077   -2.785131   -0.554453
     23          1           0        3.178382   -1.555878   -1.614443
     24          1           0        3.335692    1.116865    1.740100
     25          1           0        1.426900   -0.103669    2.811032
     26          7           0        4.462191    0.553749   -0.609780
     27          8           0        4.933352    1.509796    0.002281
     28          8           0        4.853378    0.151006   -1.703127
 ---------------------------------------------------------------------

 SCF Done:  E(RHF) =  -868.339120286     A.U. after   16 cycles
 E2 =    -0.2601334434D+01 EUMP2 =    -0.87094045472030D+03

 The electronic state is 1-A.
 Alpha  occ. eigenvalues --  -20.61407 -20.61355 -20.61235 -20.61220 -15.86424
 Alpha  occ. eigenvalues --  -15.86284 -11.31745 -11.31584 -11.28345 -11.28227
 Alpha  occ. eigenvalues --  -11.28130 -11.28067 -11.27932 -11.27828 -11.27377
 Alpha  occ. eigenvalues --  -11.27198 -11.27106 -11.27066  -1.60450  -1.60304
 Alpha  occ. eigenvalues --   -1.40015  -1.39854  -1.19921  -1.19739  -1.09286
 Alpha  occ. eigenvalues --   -1.09172  -1.05303  -1.05108  -0.96127  -0.96013
 Alpha  occ. eigenvalues --   -0.86673  -0.86522  -0.82911  -0.82876  -0.77985
 Alpha  occ. eigenvalues --   -0.77931  -0.72658  -0.72492  -0.71764  -0.71634
 Alpha  occ. eigenvalues --   -0.71059  -0.70744  -0.65534  -0.65390  -0.65240
 Alpha  occ. eigenvalues --   -0.65103  -0.62608  -0.62496  -0.55769  -0.55591
 Alpha  occ. eigenvalues --   -0.53670  -0.53462  -0.53336  -0.53134  -0.49421
 Alpha  occ. eigenvalues --   -0.49373  -0.49259  -0.49248  -0.45463  -0.45238
 Alpha  occ. eigenvalues --   -0.37891  -0.37717  -0.36974  -0.36663
 Alpha virt. eigenvalues --    0.04454   0.04593   0.10651   0.10949   0.15911
 Alpha virt. eigenvalues --    0.16102   0.20612   0.21641   0.26820   0.26919
 Alpha virt. eigenvalues --    0.27565   0.28675   0.30455   0.31122   0.32128

 Mulliken charges:
               1
     1  C   -0.170084
     2  C   -0.218912
     3  C   -0.169983
     4  C    0.158297
     5  C   -0.178981
     6  C   -0.225079
     7  H    0.227791
     8  H    0.224902
     9  H    0.276071
    10  H    0.279583
    11  H    0.226155
    12  N    0.488341
    13  O   -0.469479
    14  O   -0.456789
    15  C   -0.190032
    16  C   -0.219069
    17  C   -0.170624
    18  C    0.159071
    19  C   -0.176417
    20  C   -0.222167
    21  H    0.240689
    22  H    0.236351
    23  H    0.278803
    24  H    0.275872
    25  H    0.226044
    26  N    0.487888
    27  O   -0.460632
    28  O   -0.457611
 Sum of Mulliken charges =  -0.00000

 Dipole moment (field-independent basis, Debye):
    X=             -2.3847    Y=              2.3524    Z=              2.5688  Tot=              4.2213
 Quadrupole moment (field-independent basis, Debye-Ang):
   XX=           -136.7484   YY=           -101.4360   ZZ=           -102.6489
   XY=            -25.9503   XZ=              6.7723   YZ=              1.3540

 Normal termination of Gaussian 16 at Wed May  5 18:01:55 2021.
