 Gaussian 16, Revision A.03,
 Gaussian 16:  EM64L-G16RevA.03 25-Dec-2016

 -------------
 #p 6-31g* mp2
 -------------

 ------------------------------------------------------
 Input file generated by CHIRIPA (05-May-2021 14:53:18)
 ------------------------------------------------------
 Symbolic Z-matrix:
 Charge =  0 Multiplicity = 1

                         Standard orientation:
 ---------------------------------------------------------------------
 Center     Atomic      Atomic             Coordinates (Angstroms)
 Number     Number       Type             X           Y           Z
 ---------------------------------------------------------------------
      1          6           0        4.824993    0.107594    0.025549
      2          6           0        5.426250   -1.297037   -0.033513
      3          6           0        6.856391   -1.305637   -0.574266
      4          1           0        4.840815    0.548910   -0.980400
      5          1           0        5.460340    0.744616    0.656368
      6          1           0        4.789209   -1.931588   -0.662910
      7          1           0        5.408819   -1.735134    0.972660
      8          1           0        7.510592   -0.695565    0.056951
      9          1           0        6.887462   -0.893135   -1.587912
     10          1           0        7.266776   -2.319693   -0.607933
     11          6           0        3.395614    0.132574    0.564047
     12          6           0        2.794358    1.537205    0.623109
     13          6           0        1.364216    1.545804    1.163862
     14          1           0        2.760268   -0.504449   -0.066772
     15          1           0        3.379793   -0.308742    1.569996
     16          1           0        2.811788    1.975302   -0.383064
     17          1           0        3.431398    2.171755    1.252506
     18          1           0        1.333146    1.133302    2.177508
     19          1           0        0.710015    0.935732    0.532645
     20          1           0        0.953831    2.559861    1.197529
     21          6           0       -1.862954    1.894949   -1.000402
     22          6           0       -3.068792    2.088406   -0.318456
     23          6           0       -3.824063    0.993847    0.112880
     24          6           0       -3.341516   -0.286082   -0.155861
     25          6           0       -2.144001   -0.511359   -0.832986
     26          6           0       -1.405214    0.597970   -1.255041
     27          1           0       -1.282644    2.750967   -1.331870
     28          1           0       -3.426728    3.094521   -0.119309
     29          1           0       -4.761016    1.114911    0.642862
     30          1           0       -1.813008   -1.526275   -1.016850
     31          1           0       -0.469104    0.444720   -1.784435
     32          7           0       -4.132362   -1.452661    0.295862
     33          8           0       -3.685442   -2.570173    0.046728
     34          8           0       -5.184173   -1.227426    0.890505
 ---------------------------------------------------------------------

 SCF Done:  E(RHF) =  -669.534615870     A.U. after   15 cycles
 E2 =    -0.2092275295D+01 EUMP2 =    -0.67162689116512D+03

 The electronic state is 1-A.
 Alpha  occ. eigenvalues --  -20.60774 -20.60769 -15.85830 -11.31208 -11.27791
 Alpha  occ. eigenvalues --  -11.27784 -11.27526 -11.26800 -11.26788 -11.22165
 Alpha  occ. eigenvalues --  -11.21945 -11.21898 -11.21793 -11.21507 -11.21361
 Alpha  occ. eigenvalues --   -1.59850  -1.39403  -1.19395  -1.08897  -1.08780
 Alpha  occ. eigenvalues --   -1.04811  -1.03968  -0.96413  -0.95610  -0.87430
 Alpha  occ. eigenvalues --   -0.86199  -0.82448  -0.80033  -0.78698  -0.77493
 Alpha  occ. eigenvalues --   -0.72049  -0.71173  -0.70492  -0.65551  -0.65047
 Alpha  occ. eigenvalues --   -0.64813  -0.62171  -0.61366  -0.59788  -0.58025
 Alpha  occ. eigenvalues --   -0.55758  -0.55293  -0.53329  -0.53031  -0.52897
 Alpha  occ. eigenvalues --   -0.52698  -0.50317  -0.48809  -0.48801  -0.48338
 Alpha  occ. eigenvalues --   -0.47077  -0.46234  -0.46171  -0.44806  -0.44231
 Alpha  occ. eigenvalues --   -0.37309  -0.36361
 Alpha virt. eigenvalues --    0.05038   0.11167   0.16460   0.20387   0.22704
 Alpha virt. eigenvalues --    0.24024   0.25865   0.26809   0.27357   0.27855
 Alpha virt. eigenvalues --    0.28855   0.30207   0.31209   0.31589   0.31919

 Mulliken charges:
               1
     1  C   -0.298342
     2  C   -0.299909
     3  C   -0.475929
     4  H    0.148076
     5  H    0.150880
     6  H    0.151524
     7  H    0.153639
     8  H    0.155800
     9  H    0.154752
    10  H    0.161729
    11  C   -0.297322
    12  C   -0.300147
    13  C   -0.480945
    14  H    0.145020
    15  H    0.153086
    16  H    0.145767
    17  H    0.154048
    18  H    0.159075
    19  H    0.159399
    20  H    0.155113
    21  C   -0.165552
    22  C   -0.218925
    23  C   -0.170304
    24  C    0.158723
    25  C   -0.171368
    26  C   -0.220830
    27  H    0.226359
    28  H    0.223618
    29  H    0.275821
    30  H    0.275773
    31  H    0.223990
    32  N    0.488129
    33  O   -0.460386
    34  O   -0.460364
 Sum of Mulliken charges =  -0.00000

 Dipole moment (field-independent basis, Debye):
    X=              2.7913    Y=              4.0912    Z=             -1.5498  Tot=              5.1896
 Quadrupole moment (field-independent basis, Debye-Ang):
   XX=           -112.0171   YY=            -95.7154   ZZ=            -93.3930
   XY=            -17.1307   XZ=              4.2633   YZ=              1.1843

 Normal termination of Gaussian 16 at Wed May  5 22:04:24 2021.
