 Gaussian 16, Revision A.03,
 Gaussian 16:  EM64L-G16RevA.03 25-Dec-2016

 -------------
 #p 6-31g* mp2
 -------------

 ------------------------------------------------------
 Input file generated by CHIRIPA (05-May-2021 14:57:23)
 ------------------------------------------------------
 Symbolic Z-matrix:
 Charge =  0 Multiplicity = 1

                         Standard orientation:
 ---------------------------------------------------------------------
 Center     Atomic      Atomic             Coordinates (Angstroms)
 Number     Number       Type             X           Y           Z
 ---------------------------------------------------------------------
      1          6           0        3.814547    1.788777    0.156948
      2          6           0        3.875664    1.046067   -1.026761
      3          6           0        3.176454   -0.158694   -1.145944
      4          6           0        2.422526   -0.593005   -0.056789
      5          6           0        2.341718    0.124410    1.135719
      6          6           0        3.049118    1.326393    1.232514
      7          1           0        4.360891    2.723585    0.240837
      8          1           0        4.469302    1.402721   -1.863682
      9          1           0        3.206196   -0.753587   -2.050729
     10          1           0        1.741484   -0.256823    1.952908
     11          1           0        2.999812    1.901105    2.153014
     12          7           0        1.677968   -1.866961   -0.171112
     13          8           0        1.020904   -2.227889    0.802867
     14          8           0        1.765546   -2.480437   -1.232533
     15          6           0       -2.994551   -2.081257    0.340068
     16          6           0       -2.255319   -1.381706    1.299592
     17          6           0       -2.000271   -0.016118    1.142530
     18          6           0       -2.501800    0.621280    0.008740
     19          6           0       -3.241601   -0.048149   -0.964836
     20          6           0       -3.484468   -1.413423   -0.787096
     21          1           0       -3.187946   -3.141957    0.470108
     22          1           0       -1.873602   -1.897768    2.175959
     23          1           0       -1.430884    0.549759    1.869852
     24          1           0       -3.609046    0.493555   -1.827946
     25          1           0       -4.058869   -1.954154   -1.533901
     26          7           0       -2.238240    2.066801   -0.168480
     27          8           0       -2.691122    2.605328   -1.176212
     28          8           0       -1.583770    2.633902    0.703704
 ---------------------------------------------------------------------

 SCF Done:  E(RHF) =  -868.339450424     A.U. after   16 cycles
 E2 =    -0.2600478362D+01 EUMP2 =    -0.87093992878565D+03

 The electronic state is 1-A.
 Alpha  occ. eigenvalues --  -20.61057 -20.61052 -20.60477 -20.60460 -15.86079
 Alpha  occ. eigenvalues --  -15.85511 -11.31202 -11.30590 -11.27769 -11.27714
 Alpha  occ. eigenvalues --  -11.27382 -11.27083 -11.27079 -11.26680 -11.26667
 Alpha  occ. eigenvalues --  -11.26666 -11.26059 -11.25957  -1.60113  -1.59550
 Alpha  occ. eigenvalues --   -1.39682  -1.39113  -1.19332  -1.18691  -1.08766
 Alpha  occ. eigenvalues --   -1.08122  -1.04702  -1.04045  -0.95655  -0.95024
 Alpha  occ. eigenvalues --   -0.86115  -0.85452  -0.82512  -0.81869  -0.77600
 Alpha  occ. eigenvalues --   -0.76969  -0.72338  -0.71741  -0.71418  -0.70865
 Alpha  occ. eigenvalues --   -0.70447  -0.69784  -0.64996  -0.64708  -0.64336
 Alpha  occ. eigenvalues --   -0.64031  -0.62079  -0.61416  -0.55198  -0.54518
 Alpha  occ. eigenvalues --   -0.53025  -0.52803  -0.52381  -0.52132  -0.49104
 Alpha  occ. eigenvalues --   -0.49045  -0.48512  -0.48463  -0.45148  -0.44582
 Alpha  occ. eigenvalues --   -0.37284  -0.36592  -0.36275  -0.35560
 Alpha virt. eigenvalues --    0.04882   0.05578   0.11289   0.12119   0.16446
 Alpha virt. eigenvalues --    0.17220   0.21061   0.22283   0.26411   0.27815
 Alpha virt. eigenvalues --    0.28676   0.29396   0.31230   0.31708   0.32321

 Mulliken charges:
               1
     1  C   -0.168597
     2  C   -0.217397
     3  C   -0.170833
     4  C    0.158903
     5  C   -0.169895
     6  C   -0.213447
     7  H    0.227820
     8  H    0.224346
     9  H    0.274813
    10  H    0.267832
    11  H    0.225725
    12  N    0.490263
    13  O   -0.468472
    14  O   -0.459839
    15  C   -0.168321
    16  C   -0.198814
    17  C   -0.176406
    18  C    0.156969
    19  C   -0.173336
    20  C   -0.217321
    21  H    0.227581
    22  H    0.227642
    23  H    0.266128
    24  H    0.272431
    25  H    0.222112
    26  N    0.488537
    27  O   -0.461990
    28  O   -0.466433
 Sum of Mulliken charges =  -0.00000

 Dipole moment (field-independent basis, Debye):
    X=              1.8561    Y=             -0.7511    Z=              1.0253  Tot=              2.2496
 Quadrupole moment (field-independent basis, Debye-Ang):
   XX=            -86.5893   YY=           -117.5272   ZZ=            -97.1180
   XY=             22.7603   XZ=             -0.2699   YZ=              0.4529

 Normal termination of Gaussian 16 at Thu May  6 11:20:06 2021.
