 Gaussian 16, Revision A.03,
 Gaussian 16:  EM64L-G16RevA.03 25-Dec-2016

 -------------
 #p 6-31g* mp2
 -------------

 ------------------------------------------------------
 Input file generated by CHIRIPA (05-May-2021 14:51:07)
 ------------------------------------------------------
 Symbolic Z-matrix:
 Charge =  0 Multiplicity = 1

                         Standard orientation:
 ---------------------------------------------------------------------
 Center     Atomic      Atomic             Coordinates (Angstroms)
 Number     Number       Type             X           Y           Z
 ---------------------------------------------------------------------
      1          6           0       -2.555350   -0.678859   -0.044681
      2          6           0       -1.859181   -1.492626    1.046702
      3          6           0       -0.389681   -1.771548    0.729583
      4          1           0       -2.480621   -1.217851   -0.999064
      5          1           0       -2.021619    0.272029   -0.180104
      6          1           0       -2.394885   -2.441101    1.180990
      7          1           0       -1.935742   -0.951725    1.998637
      8          1           0        0.164546   -0.834246    0.616008
      9          1           0       -0.297205   -2.332085   -0.206284
     10          1           0        0.088581   -2.354489    1.522871
     11          6           0       -4.024984   -0.391941    0.257946
     12          6           0       -4.721152    0.421827   -0.833437
     13          6           0       -6.190653    0.700748   -0.516318
     14          1           0       -4.558714   -1.342828    0.393369
     15          1           0       -4.099712    0.147052    1.212329
     16          1           0       -4.644591   -0.119075   -1.785372
     17          1           0       -4.185449    1.370302   -0.967726
     18          1           0       -6.283128    1.261285    0.419549
     19          1           0       -6.744880   -0.236554   -0.402744
     20          1           0       -6.668914    1.283689   -1.309606
     21          6           0        2.961767    1.049432    0.353103
     22          6           0        2.694486    2.390900   -0.330280
     23          6           0        2.037230    3.408823    0.602265
     24          1           0        2.014119    0.643070    0.732282
     25          1           0        3.604236    1.213750    1.229246
     26          1           0        2.053845    2.223919   -1.205672
     27          1           0        3.642853    2.794025   -0.708045
     28          1           0        2.675469    3.604651    1.469965
     29          1           0        1.077433    3.031305    0.969512
     30          1           0        1.855157    4.360515    0.093352
     31          6           0        3.618566    0.021368   -0.566367
     32          6           0        3.885847   -1.320100    0.117015
     33          6           0        4.543103   -2.338024   -0.815530
     34          1           0        2.976097   -0.142951   -1.442511
     35          1           0        4.566215    0.427731   -0.945548
     36          1           0        2.937481   -1.723225    0.494780
     37          1           0        4.526488   -1.153119    0.992407
     38          1           0        5.502900   -1.960505   -1.182776
     39          1           0        3.904864   -2.533851   -1.683230
     40          1           0        4.725177   -3.289715   -0.306617
 ---------------------------------------------------------------------

 SCF Done:  E(RHF) =  -470.733201213     A.U. after   11 cycles
 E2 =    -0.1583154451D+01 EUMP2 =    -0.47231635566384D+03

 The electronic state is 1-A.
 Alpha  occ. eigenvalues --  -11.21671 -11.21634 -11.21596 -11.21500 -11.21460
 Alpha  occ. eigenvalues --  -11.21397 -11.21362 -11.21299 -11.21156 -11.21095
 Alpha  occ. eigenvalues --  -11.21091 -11.21006  -1.08486  -1.08390  -1.03587
 Alpha  occ. eigenvalues --   -1.03491  -0.96044  -0.95944  -0.87061  -0.86963
 Alpha  occ. eigenvalues --   -0.79660  -0.79551  -0.78313  -0.78185  -0.65172
 Alpha  occ. eigenvalues --   -0.64988  -0.60993  -0.60883  -0.59411  -0.59307
 Alpha  occ. eigenvalues --   -0.57666  -0.57543  -0.55440  -0.55141  -0.52748
 Alpha  occ. eigenvalues --   -0.52637  -0.52476  -0.52358  -0.50055  -0.49839
 Alpha  occ. eigenvalues --   -0.47991  -0.47873  -0.46762  -0.46567  -0.45933
 Alpha  occ. eigenvalues --   -0.45787  -0.45710  -0.45427  -0.43830  -0.43744
 Alpha virt. eigenvalues --    0.20816   0.22980   0.23982   0.24480   0.25643
 Alpha virt. eigenvalues --    0.26770   0.27169   0.27542   0.27860   0.29325
 Alpha virt. eigenvalues --    0.29894   0.31492   0.31706   0.31965   0.32236

 Mulliken charges:
               1
     1  C   -0.298408
     2  C   -0.300300
     3  C   -0.482805
     4  H    0.149761
     5  H    0.149041
     6  H    0.152352
     7  H    0.152266
     8  H    0.161393
     9  H    0.155516
    10  H    0.160927
    11  C   -0.298352
    12  C   -0.299717
    13  C   -0.475747
    14  H    0.149713
    15  H    0.149827
    16  H    0.151965
    17  H    0.152029
    18  H    0.155289
    19  H    0.155233
    20  H    0.160387
    21  C   -0.305681
    22  C   -0.299453
    23  C   -0.475438
    24  H    0.155772
    25  H    0.149688
    26  H    0.151814
    27  H    0.152145
    28  H    0.155400
    29  H    0.154031
    30  H    0.160307
    31  C   -0.297505
    32  C   -0.304565
    33  C   -0.475460
    34  H    0.149575
    35  H    0.149380
    36  H    0.158674
    37  H    0.151214
    38  H    0.154741
    39  H    0.155044
    40  H    0.159947
 Sum of Mulliken charges =  -0.00000

 Dipole moment (field-independent basis, Debye):
    X=             -0.0325    Y=             -0.0164    Z=              0.0080  Tot=              0.0373
 Quadrupole moment (field-independent basis, Debye-Ang):
   XX=            -85.2948   YY=            -84.7236   ZZ=            -84.7944
   XY=              1.2700   XZ=              0.7742   YZ=              0.0102

 Normal termination of Gaussian 16 at Thu May  6 05:14:59 2021.
