 Gaussian 16, Revision A.03,
 Gaussian 16:  EM64L-G16RevA.03 25-Dec-2016

 -------------
 #p 6-31g* mp2
 -------------

 ------------------------------------------------------
 Input file generated by CHIRIPA (05-May-2021 14:53:11)
 ------------------------------------------------------
 Symbolic Z-matrix:
 Charge =  0 Multiplicity = 1

                         Standard orientation:
 ---------------------------------------------------------------------
 Center     Atomic      Atomic             Coordinates (Angstroms)
 Number     Number       Type             X           Y           Z
 ---------------------------------------------------------------------
      1          6           0       -4.584285    0.424704    0.301442
      2          6           0       -5.942195    0.570640   -0.386138
      3          6           0       -6.666141    1.860035    0.002651
      4          1           0       -4.726920    0.452756    1.390392
      5          1           0       -3.956897    1.289877    0.045991
      6          1           0       -6.566343   -0.295239   -0.130580
      7          1           0       -5.796332    0.542044   -1.473576
      8          1           0       -6.066359    2.735123   -0.267689
      9          1           0       -6.840745    1.893083    1.082939
     10          1           0       -7.634586    1.943997   -0.500265
     11          6           0       -3.848404   -0.859371   -0.077187
     12          6           0       -2.490493   -1.005307    0.610393
     13          6           0       -1.766547   -2.294702    0.221604
     14          1           0       -4.475791   -1.724544    0.178264
     15          1           0       -3.705768   -0.887424   -1.166137
     16          1           0       -2.636356   -0.976711    1.697831
     17          1           0       -1.866345   -0.139429    0.354835
     18          1           0       -1.591943   -2.327750   -0.858684
     19          1           0       -2.366330   -3.169790    0.491943
     20          1           0       -0.798102   -2.378664    0.724520
     21          6           0        4.012271    2.579978    0.114983
     22          6           0        4.915166    1.553297    0.410327
     23          6           0        4.528114    0.214301    0.301562
     24          6           0        3.224581   -0.063216   -0.107185
     25          6           0        2.301940    0.937399   -0.408501
     26          6           0        2.710835    2.269300   -0.292769
     27          1           0        4.321427    3.617387    0.202180
     28          1           0        5.926515    1.791612    0.727223
     29          1           0        5.206753   -0.600191    0.523980
     30          1           0        1.300481    0.668631   -0.721970
     31          1           0        2.007501    3.064573   -0.522790
     32          7           0        2.803264   -1.476995   -0.226016
     33          8           0        1.649190   -1.695143   -0.588174
     34          8           0        3.635090   -2.340197    0.045251
 ---------------------------------------------------------------------

 SCF Done:  E(RHF) =  -669.535724899     A.U. after   15 cycles
 E2 =    -0.2091065841D+01 EUMP2 =    -0.67162679074023D+03

 The electronic state is 1-A.
 Alpha  occ. eigenvalues --  -20.60881 -20.60876 -15.85914 -11.31259 -11.27827
 Alpha  occ. eigenvalues --  -11.27823 -11.27567 -11.26839 -11.26829 -11.21414
 Alpha  occ. eigenvalues --  -11.21133 -11.20990 -11.20966 -11.20911 -11.19818
 Alpha  occ. eigenvalues --   -1.59949  -1.39504  -1.19431  -1.08832  -1.08042
 Alpha  occ. eigenvalues --   -1.04831  -1.03035  -0.95680  -0.95431  -0.86449
 Alpha  occ. eigenvalues --   -0.86229  -0.82502  -0.79126  -0.77845  -0.77552
 Alpha  occ. eigenvalues --   -0.72142  -0.71267  -0.70540  -0.65088  -0.64835
 Alpha  occ. eigenvalues --   -0.64683  -0.62179  -0.60441  -0.58853  -0.57046
 Alpha  occ. eigenvalues --   -0.55334  -0.54737  -0.53163  -0.52923  -0.52072
 Alpha  occ. eigenvalues --   -0.51867  -0.49404  -0.48899  -0.48880  -0.47425
 Alpha  occ. eigenvalues --   -0.46194  -0.45376  -0.45312  -0.44904  -0.43241
 Alpha  occ. eigenvalues --   -0.37410  -0.36433
 Alpha virt. eigenvalues --    0.04950   0.11218   0.16427   0.20971   0.23086
 Alpha virt. eigenvalues --    0.24356   0.26425   0.27334   0.27681   0.28306
 Alpha virt. eigenvalues --    0.28916   0.30591   0.31555   0.32070   0.32875

 Mulliken charges:
               1
     1  C   -0.296967
     2  C   -0.299271
     3  C   -0.475262
     4  H    0.148928
     5  H    0.145107
     6  H    0.152508
     7  H    0.151495
     8  H    0.153227
     9  H    0.154871
    10  H    0.159780
    11  C   -0.297724
    12  C   -0.299083
    13  C   -0.474668
    14  H    0.149841
    15  H    0.149047
    16  H    0.148729
    17  H    0.142825
    18  H    0.158670
    19  H    0.148402
    20  H    0.176606
    21  C   -0.170624
    22  C   -0.218580
    23  C   -0.170760
    24  C    0.157949
    25  C   -0.171570
    26  C   -0.218582
    27  H    0.225889
    28  H    0.223701
    29  H    0.275770
    30  H    0.276603
    31  H    0.223744
    32  N    0.489852
    33  O   -0.460975
    34  O   -0.459479
 Sum of Mulliken charges =  -0.00000

 Dipole moment (field-independent basis, Debye):
    X=              1.7089    Y=              4.8800    Z=              0.3982  Tot=              5.1859
 Quadrupole moment (field-independent basis, Debye-Ang):
   XX=            -81.9514   YY=            -95.9247   ZZ=            -94.7380
   XY=             15.5814   XZ=              2.6242   YZ=             -1.5829

 Normal termination of Gaussian 16 at Wed May  5 18:26:23 2021.
