 Gaussian 16, Revision A.03,
 Gaussian 16:  EM64L-G16RevA.03 25-Dec-2016

 -------------
 #p 6-31g* mp2
 -------------

 ------------------------------------------------------
 Input file generated by CHIRIPA (05-May-2021 14:53:12)
 ------------------------------------------------------
 Symbolic Z-matrix:
 Charge =  0 Multiplicity = 1

                         Standard orientation:
 ---------------------------------------------------------------------
 Center     Atomic      Atomic             Coordinates (Angstroms)
 Number     Number       Type             X           Y           Z
 ---------------------------------------------------------------------
      1          6           0       -4.775341   -0.032870   -0.131846
      2          6           0       -4.723300   -1.493799   -0.580136
      3          6           0       -6.103775   -2.150030   -0.618132
      4          1           0       -5.236677    0.022347    0.863677
      5          1           0       -5.430805    0.528889   -0.811690
      6          1           0       -4.067031   -2.052345    0.099535
      7          1           0       -4.261859   -1.545564   -1.574625
      8          1           0       -6.764203   -1.618210   -1.310666
      9          1           0       -6.568268   -2.127871    0.373008
     10          1           0       -6.043278   -3.193983   -0.941184
     11          6           0       -3.402998    0.636870   -0.088815
     12          6           0       -3.455039    2.097799    0.359476
     13          6           0       -2.074564    2.754030    0.397471
     14          1           0       -2.747533    0.075111    0.591029
     15          1           0       -2.941662    0.581653   -1.084337
     16          1           0       -3.916479    2.149563    1.353965
     17          1           0       -4.111308    2.656345   -0.320196
     18          1           0       -1.610071    2.731870   -0.593668
     19          1           0       -1.414136    2.222210    1.090005
     20          1           0       -2.135061    3.797982    0.720524
     21          6           0        5.532563   -0.066749   -0.847359
     22          6           0        4.587423    0.920971   -1.143405
     23          6           0        3.289090    0.837479   -0.631637
     24          6           0        2.968644   -0.252294    0.176448
     25          6           0        3.887997   -1.252344    0.489464
     26          6           0        5.180453   -1.148347   -0.033305
     27          1           0        6.538857    0.006075   -1.249187
     28          1           0        4.858067    1.762078   -1.775335
     29          1           0        2.537706    1.588054   -0.844891
     30          1           0        3.588609   -2.078962    1.122306
     31          1           0        5.912398   -1.916899    0.198278
     32          7           0        1.597267   -0.351537    0.724058
     33          8           0        1.339941   -1.321625    1.433531
     34          8           0        0.805675    0.542641    0.433432
 ---------------------------------------------------------------------

 SCF Done:  E(RHF) =  -669.536003459     A.U. after   15 cycles
 E2 =    -0.2091006941D+01 EUMP2 =    -0.67162701039918D+03

 The electronic state is 1-A.
 Alpha  occ. eigenvalues --  -20.60932 -20.60920 -15.85960 -11.31283 -11.27847
 Alpha  occ. eigenvalues --  -11.27841 -11.27586 -11.26855 -11.26845 -11.20693
 Alpha  occ. eigenvalues --  -11.20358 -11.20353 -11.20345 -11.20012 -11.19530
 Alpha  occ. eigenvalues --   -1.59993  -1.39548  -1.19452  -1.08858  -1.07292
 Alpha  occ. eigenvalues --   -1.04848  -1.02413  -0.95701  -0.94848  -0.86249
 Alpha  occ. eigenvalues --   -0.85864  -0.82533  -0.78504  -0.77583  -0.77051
 Alpha  occ. eigenvalues --   -0.72183  -0.71306  -0.70561  -0.65108  -0.64852
 Alpha  occ. eigenvalues --   -0.63930  -0.62195  -0.59818  -0.58254  -0.56447
 Alpha  occ. eigenvalues --   -0.55354  -0.54129  -0.53181  -0.52940  -0.51593
 Alpha  occ. eigenvalues --   -0.51246  -0.49016  -0.48940  -0.48717  -0.46777
 Alpha  occ. eigenvalues --   -0.45542  -0.44951  -0.44615  -0.44470  -0.42668
 Alpha  occ. eigenvalues --   -0.37432  -0.36450
 Alpha virt. eigenvalues --    0.04938   0.11205   0.16431   0.21322   0.23945
 Alpha virt. eigenvalues --    0.25405   0.27233   0.27804   0.28046   0.28693
 Alpha virt. eigenvalues --    0.29194   0.30929   0.32301   0.32594   0.32800

 Mulliken charges:
               1
     1  C   -0.297762
     2  C   -0.299167
     3  C   -0.475017
     4  H    0.147558
     5  H    0.145135
     6  H    0.155377
     7  H    0.149955
     8  H    0.152871
     9  H    0.154172
    10  H    0.157780
    11  C   -0.298801
    12  C   -0.299366
    13  C   -0.477893
    14  H    0.164247
    15  H    0.147126
    16  H    0.148207
    17  H    0.144881
    18  H    0.150574
    19  H    0.177694
    20  H    0.149253
    21  C   -0.170601
    22  C   -0.218581
    23  C   -0.170888
    24  C    0.157675
    25  C   -0.170588
    26  C   -0.218616
    27  H    0.225945
    28  H    0.223852
    29  H    0.276251
    30  H    0.275752
    31  H    0.223740
    32  N    0.491898
    33  O   -0.460037
    34  O   -0.462627
 Sum of Mulliken charges =  -0.00000

 Dipole moment (field-independent basis, Debye):
    X=              5.1923    Y=              0.2441    Z=             -1.8385  Tot=              5.5136
 Quadrupole moment (field-independent basis, Debye-Ang):
   XX=            -68.6790   YY=            -92.5613   ZZ=            -94.1597
   XY=             -1.6491   XZ=             -4.6717   YZ=             -2.1503

 Normal termination of Gaussian 16 at Wed May  5 15:30:39 2021.
