 Gaussian 16, Revision A.03,
 Gaussian 16:  EM64L-G16RevA.03 25-Dec-2016

 -------------
 #p 6-31g* mp2
 -------------

 ------------------------------------------------------
 Input file generated by CHIRIPA (05-May-2021 14:53:16)
 ------------------------------------------------------
 Symbolic Z-matrix:
 Charge =  0 Multiplicity = 1

                         Standard orientation:
 ---------------------------------------------------------------------
 Center     Atomic      Atomic             Coordinates (Angstroms)
 Number     Number       Type             X           Y           Z
 ---------------------------------------------------------------------
      1          6           0        2.455230   -0.490612   -0.109807
      2          6           0        3.293635   -1.577161    0.564340
      3          6           0        2.622548   -2.950475    0.526321
      4          1           0        1.474606   -0.434856    0.382345
      5          1           0        2.265406   -0.778226   -1.153186
      6          1           0        3.482989   -1.286924    1.605744
      7          1           0        4.272447   -1.630206    0.070650
      8          1           0        2.448161   -3.265541   -0.507566
      9          1           0        1.654217   -2.920308    1.036250
     10          1           0        3.239053   -3.712204    1.013713
     11          6           0        3.112854    0.887924   -0.079880
     12          6           0        2.274449    1.974473   -0.754026
     13          6           0        2.945537    3.347786   -0.716008
     14          1           0        3.302678    1.175538    0.963499
     15          1           0        4.093478    0.832168   -0.572031
     16          1           0        1.295637    2.027518   -0.260337
     17          1           0        2.085095    1.684236   -1.795431
     18          1           0        3.913867    3.317620   -1.225936
     19          1           0        3.119924    3.662852    0.317880
     20          1           0        2.329032    4.109515   -1.203399
     21          6           0       -2.724266    2.156982    0.921492
     22          6           0       -3.299132    1.691700   -0.265758
     23          6           0       -3.002016    0.412299   -0.744723
     24          6           0       -2.121935   -0.378733   -0.007826
     25          6           0       -1.533115    0.056396    1.178447
     26          6           0       -1.844643    1.339288    1.638541
     27          1           0       -2.960670    3.152207    1.286233
     28          1           0       -3.982599    2.324544   -0.824707
     29          1           0       -3.432880    0.026994   -1.660863
     30          1           0       -0.855397   -0.597511    1.713725
     31          1           0       -1.396709    1.698001    2.560888
     32          7           0       -1.799763   -1.735025   -0.504896
     33          8           0       -1.021374   -2.412461    0.162808
     34          8           0       -2.331734   -2.094970   -1.552791
 ---------------------------------------------------------------------

 SCF Done:  E(RHF) =  -669.535828288     A.U. after   15 cycles
 E2 =    -0.2093352188D+01 EUMP2 =    -0.67162918047515D+03

 The electronic state is 1-A.
 Alpha  occ. eigenvalues --  -20.60915 -20.60901 -15.85942 -11.31303 -11.27893
 Alpha  occ. eigenvalues --  -11.27859 -11.27611 -11.26905 -11.26872 -11.21547
 Alpha  occ. eigenvalues --  -11.21206 -11.21140 -11.21035 -11.20951 -11.19980
 Alpha  occ. eigenvalues --   -1.59966  -1.39524  -1.19478  -1.08869  -1.08129
 Alpha  occ. eigenvalues --   -1.04884  -1.03149  -0.95711  -0.95573  -0.86586
 Alpha  occ. eigenvalues --   -0.86276  -0.82546  -0.79244  -0.77954  -0.77544
 Alpha  occ. eigenvalues --   -0.72173  -0.71275  -0.70588  -0.65138  -0.64926
 Alpha  occ. eigenvalues --   -0.64743  -0.62235  -0.60554  -0.59007  -0.57170
 Alpha  occ. eigenvalues --   -0.55383  -0.54861  -0.53208  -0.52978  -0.52273
 Alpha  occ. eigenvalues --   -0.51963  -0.49516  -0.48939  -0.48913  -0.47521
 Alpha  occ. eigenvalues --   -0.46295  -0.45600  -0.45376  -0.44688  -0.43423
 Alpha  occ. eigenvalues --   -0.37440  -0.36455
 Alpha virt. eigenvalues --    0.04908   0.11068   0.16400   0.20842   0.23044
 Alpha virt. eigenvalues --    0.24320   0.26177   0.27387   0.27606   0.28245
 Alpha virt. eigenvalues --    0.28964   0.30476   0.31578   0.31943   0.32266

 Mulliken charges:
               1
     1  C   -0.299595
     2  C   -0.300472
     3  C   -0.478654
     4  H    0.147238
     5  H    0.152935
     6  H    0.145580
     7  H    0.149497
     8  H    0.159363
     9  H    0.172125
    10  H    0.153882
    11  C   -0.297578
    12  C   -0.300880
    13  C   -0.475074
    14  H    0.145169
    15  H    0.150126
    16  H    0.149479
    17  H    0.153292
    18  H    0.156424
    19  H    0.152594
    20  H    0.157913
    21  C   -0.170623
    22  C   -0.218044
    23  C   -0.170581
    24  C    0.159853
    25  C   -0.170145
    26  C   -0.219517
    27  H    0.226304
    28  H    0.224022
    29  H    0.275996
    30  H    0.275289
    31  H    0.224212
    32  N    0.492527
    33  O   -0.463427
    34  O   -0.459230
 Sum of Mulliken charges =  -0.00000

 Dipole moment (field-independent basis, Debye):
    X=             -1.3635    Y=              4.6425    Z=              1.6805  Tot=              5.1221
 Quadrupole moment (field-independent basis, Debye-Ang):
   XX=            -89.0524   YY=            -99.9807   ZZ=            -91.1812
   XY=            -10.9932   XZ=             -1.6317   YZ=             -0.9723

 Normal termination of Gaussian 16 at Wed May  5 17:12:40 2021.
