 Gaussian 16, Revision A.03,
 Gaussian 16:  EM64L-G16RevA.03 25-Dec-2016

 -------------
 #p 6-31g* mp2
 -------------

 ------------------------------------------------------
 Input file generated by CHIRIPA (05-May-2021 14:53:12)
 ------------------------------------------------------
 Symbolic Z-matrix:
 Charge =  0 Multiplicity = 1

                         Standard orientation:
 ---------------------------------------------------------------------
 Center     Atomic      Atomic             Coordinates (Angstroms)
 Number     Number       Type             X           Y           Z
 ---------------------------------------------------------------------
      1          6           0       -2.116419    1.179157    0.318050
      2          6           0       -1.570302    2.265858   -0.608677
      3          6           0       -0.275206    2.890351   -0.088554
      4          1           0       -2.289074    1.608598    1.314400
      5          1           0       -1.355135    0.396641    0.442598
      6          1           0       -2.332910    3.045410   -0.732544
      7          1           0       -1.399107    1.833825   -1.602989
      8          1           0        0.504030    2.128755    0.018047
      9          1           0       -0.435078    3.347223    0.893438
     10          1           0        0.097608    3.664623   -0.766324
     11          6           0       -3.410843    0.545358   -0.188400
     12          6           0       -3.956960   -0.541343    0.738327
     13          6           0       -5.252056   -1.165837    0.218204
     14          1           0       -4.172127    1.327873   -0.312948
     15          1           0       -3.238188    0.115916   -1.184751
     16          1           0       -4.128154   -0.109311    1.732639
     17          1           0       -3.194352   -1.320896    0.862193
     18          1           0       -5.092183   -1.622709   -0.763789
     19          1           0       -6.031292   -0.404241    0.111602
     20          1           0       -5.624870   -1.940109    0.895974
     21          6           0        3.521177    1.376496    0.503957
     22          6           0        3.276377    0.411785    1.486773
     23          6           0        2.522982   -0.728086    1.190740
     24          6           0        2.027404   -0.871838   -0.104261
     25          6           0        2.254150    0.071608   -1.105155
     26          6           0        3.010182    1.203633   -0.786595
     27          1           0        4.107456    2.258929    0.742672
     28          1           0        3.671969    0.543400    2.489883
     29          1           0        2.318330   -1.490569    1.932466
     30          1           0        1.846610   -0.087346   -2.096146
     31          1           0        3.198710    1.951201   -1.551870
     32          7           0        1.228424   -2.074417   -0.429582
     33          8           0        0.802959   -2.177631   -1.578043
     34          8           0        1.042775   -2.891011    0.470053
 ---------------------------------------------------------------------

 SCF Done:  E(RHF) =  -669.534613460     A.U. after   15 cycles
 E2 =    -0.2093786803D+01 EUMP2 =    -0.67162840026287D+03

 The electronic state is 1-A.
 Alpha  occ. eigenvalues --  -20.60893 -20.60887 -15.85949 -11.31328 -11.27873
 Alpha  occ. eigenvalues --  -11.27844 -11.27582 -11.26886 -11.26844 -11.21517
 Alpha  occ. eigenvalues --  -11.21182 -11.21116 -11.20998 -11.20991 -11.20589
 Alpha  occ. eigenvalues --   -1.59971  -1.39522  -1.19496  -1.08878  -1.08149
 Alpha  occ. eigenvalues --   -1.04889  -1.03259  -0.95730  -0.95704  -0.86753
 Alpha  occ. eigenvalues --   -0.86269  -0.82534  -0.79343  -0.77946  -0.77587
 Alpha  occ. eigenvalues --   -0.72159  -0.71300  -0.70568  -0.65127  -0.64868
 Alpha  occ. eigenvalues --   -0.64783  -0.62219  -0.60691  -0.59117  -0.57349
 Alpha  occ. eigenvalues --   -0.55361  -0.55178  -0.53276  -0.52960  -0.52424
 Alpha  occ. eigenvalues --   -0.52045  -0.49604  -0.48921  -0.48915  -0.47630
 Alpha  occ. eigenvalues --   -0.46339  -0.45487  -0.45383  -0.44921  -0.43523
 Alpha  occ. eigenvalues --   -0.37450  -0.36404
 Alpha virt. eigenvalues --    0.04926   0.11134   0.16416   0.21234   0.23010
 Alpha virt. eigenvalues --    0.24562   0.26692   0.27093   0.27686   0.28276
 Alpha virt. eigenvalues --    0.28412   0.30729   0.31680   0.31843   0.32217

 Mulliken charges:
               1
     1  C   -0.297237
     2  C   -0.298810
     3  C   -0.484653
     4  H    0.147889
     5  H    0.148361
     6  H    0.151264
     7  H    0.151023
     8  H    0.167123
     9  H    0.152635
    10  H    0.152282
    11  C   -0.298743
    12  C   -0.301224
    13  C   -0.475840
    14  H    0.147216
    15  H    0.154046
    16  H    0.148913
    17  H    0.159506
    18  H    0.157924
    19  H    0.152448
    20  H    0.160327
    21  C   -0.169287
    22  C   -0.217389
    23  C   -0.171650
    24  C    0.160700
    25  C   -0.174209
    26  C   -0.218294
    27  H    0.226692
    28  H    0.224318
    29  H    0.276263
    30  H    0.276066
    31  H    0.224902
    32  N    0.487910
    33  O   -0.460460
    34  O   -0.460009
 Sum of Mulliken charges =  -0.00000

 Dipole moment (field-independent basis, Debye):
    X=              2.9373    Y=              4.0909    Z=              1.1482  Tot=              5.1654
 Quadrupole moment (field-independent basis, Debye-Ang):
   XX=            -84.4274   YY=           -102.5307   ZZ=            -90.4638
   XY=              5.6031   XZ=              2.3248   YZ=             -2.9670

 Normal termination of Gaussian 16 at Wed May  5 15:30:17 2021.
