 Gaussian 16, Revision A.03,
 Gaussian 16:  EM64L-G16RevA.03 25-Dec-2016

 -------------
 #p 6-31g* mp2
 -------------

 ------------------------------------------------------
 Input file generated by CHIRIPA (05-May-2021 14:51:14)
 ------------------------------------------------------
 Symbolic Z-matrix:
 Charge =  0 Multiplicity = 1

                         Standard orientation:
 ---------------------------------------------------------------------
 Center     Atomic      Atomic             Coordinates (Angstroms)
 Number     Number       Type             X           Y           Z
 ---------------------------------------------------------------------
      1          6           0       -3.638061   -0.429638   -0.190091
      2          6           0       -3.205071   -1.620862    0.665180
      3          6           0       -3.612756   -2.963667    0.058169
      4          1           0       -4.728354   -0.458121   -0.321982
      5          1           0       -3.199254   -0.528215   -1.192650
      6          1           0       -3.643440   -1.519353    1.666252
      7          1           0       -2.115704   -1.589433    0.795211
      8          1           0       -3.163676   -3.090992   -0.932142
      9          1           0       -4.700092   -3.020514   -0.056152
     10          1           0       -3.293350   -3.801482    0.685788
     11          6           0       -3.237662    0.919780    0.403610
     12          6           0       -3.670653    2.111005   -0.451661
     13          6           0       -3.262968    3.453809    0.155350
     14          1           0       -3.676470    1.018358    1.406169
     15          1           0       -2.147370    0.948263    0.535502
     16          1           0       -4.760020    2.079576   -0.581692
     17          1           0       -3.232284    2.009496   -1.452733
     18          1           0       -2.175632    3.510657    0.269671
     19          1           0       -3.712048    3.581135    1.145661
     20          1           0       -3.582374    4.291625   -0.472269
     21          6           0        2.911473   -0.792539   -0.025359
     22          6           0        1.549811   -0.416296   -0.610426
     23          6           0        0.507276   -1.521655   -0.439852
     24          1           0        3.268744   -1.712999   -0.507080
     25          1           0        2.792707   -1.024256    1.042160
     26          1           0        1.671347   -0.184016   -1.676208
     27          1           0        1.195828    0.503482   -0.127392
     28          1           0        0.356724   -1.748912    0.620473
     29          1           0        0.834944   -2.440316   -0.937142
     30          1           0       -0.458587   -1.231638   -0.865126
     31          6           0        3.964251    0.302396   -0.188160
     32          6           0        5.325912   -0.073847    0.396907
     33          6           0        6.368448    1.031513    0.226333
     34          1           0        4.083017    0.534114   -1.255679
     35          1           0        3.606980    1.222857    0.293561
     36          1           0        5.679896   -0.993624   -0.086127
     37          1           0        5.204377   -0.306127    1.462689
     38          1           0        6.040780    1.950173    0.723623
     39          1           0        6.519000    1.258769   -0.833993
     40          1           0        7.334311    0.741497    0.651606
 ---------------------------------------------------------------------

 SCF Done:  E(RHF) =  -470.732432432     A.U. after   11 cycles
 E2 =    -0.1583663945D+01 EUMP2 =    -0.47231609637693D+03

 The electronic state is 1-A.
 Alpha  occ. eigenvalues --  -11.21696 -11.21637 -11.21584 -11.21464 -11.21408
 Alpha  occ. eigenvalues --  -11.21401 -11.21365 -11.21304 -11.21164 -11.21098
 Alpha  occ. eigenvalues --  -11.21063 -11.20974  -1.08498  -1.08377  -1.03615
 Alpha  occ. eigenvalues --   -1.03453  -0.96057  -0.95925  -0.87100  -0.86924
 Alpha  occ. eigenvalues --   -0.79719  -0.79487  -0.78306  -0.78189  -0.65181
 Alpha  occ. eigenvalues --   -0.65012  -0.61085  -0.60864  -0.59372  -0.59277
 Alpha  occ. eigenvalues --   -0.57656  -0.57531  -0.55352  -0.55217  -0.52779
 Alpha  occ. eigenvalues --   -0.52600  -0.52472  -0.52344  -0.50085  -0.49802
 Alpha  occ. eigenvalues --   -0.47980  -0.47844  -0.46819  -0.46434  -0.45874
 Alpha  occ. eigenvalues --   -0.45772  -0.45716  -0.45574  -0.43799  -0.43718
 Alpha virt. eigenvalues --    0.20464   0.23016   0.23976   0.24481   0.26153
 Alpha virt. eigenvalues --    0.26506   0.27142   0.27296   0.27922   0.29474
 Alpha virt. eigenvalues --    0.30577   0.30975   0.31697   0.31822   0.32358

 Mulliken charges:
               1
     1  C   -0.299249
     2  C   -0.308285
     3  C   -0.475266
     4  H    0.149859
     5  H    0.148468
     6  H    0.150848
     7  H    0.162623
     8  H    0.154871
     9  H    0.154588
    10  H    0.159861
    11  C   -0.299679
    12  C   -0.299492
    13  C   -0.475627
    14  H    0.149612
    15  H    0.150460
    16  H    0.151998
    17  H    0.151790
    18  H    0.154915
    19  H    0.155116
    20  H    0.160235
    21  C   -0.298816
    22  C   -0.300222
    23  C   -0.481734
    24  H    0.149965
    25  H    0.149942
    26  H    0.152231
    27  H    0.151936
    28  H    0.156762
    29  H    0.156046
    30  H    0.165723
    31  C   -0.298350
    32  C   -0.299708
    33  C   -0.475751
    34  H    0.149629
    35  H    0.149740
    36  H    0.152022
    37  H    0.152044
    38  H    0.155268
    39  H    0.155229
    40  H    0.160397
 Sum of Mulliken charges =  -0.00000

 Dipole moment (field-independent basis, Debye):
    X=              0.0686    Y=             -0.0115    Z=              0.0001  Tot=              0.0696
 Quadrupole moment (field-independent basis, Debye-Ang):
   XX=            -84.8909   YY=            -86.2510   ZZ=            -83.8241
   XY=             -1.0770   XZ=             -0.7248   YZ=              0.1091

 Normal termination of Gaussian 16 at Wed May  5 23:15:44 2021.
