 Gaussian 16, Revision A.03,
 Gaussian 16:  EM64L-G16RevA.03 25-Dec-2016

 -------------
 #p 6-31g* mp2
 -------------

 ------------------------------------------------------
 Input file generated by CHIRIPA (05-May-2021 14:51:08)
 ------------------------------------------------------
 Symbolic Z-matrix:
 Charge =  0 Multiplicity = 1

                         Standard orientation:
 ---------------------------------------------------------------------
 Center     Atomic      Atomic             Coordinates (Angstroms)
 Number     Number       Type             X           Y           Z
 ---------------------------------------------------------------------
      1          6           0        1.714910   -0.980754    0.311801
      2          6           0        1.897734   -1.722925    1.636090
      3          6           0        0.637921   -2.470877    2.073393
      4          1           0        0.880885   -0.272171    0.408011
      5          1           0        1.425629   -1.700149   -0.466775
      6          1           0        2.187932   -1.002553    2.411633
      7          1           0        2.731545   -2.429687    1.536776
      8          1           0        0.348387   -3.210973    1.320379
      9          1           0       -0.198314   -1.775730    2.200206
     10          1           0        0.790846   -2.994335    3.022321
     11          6           0        2.965719   -0.228198   -0.138606
     12          6           0        2.782895    0.513973   -1.462895
     13          6           0        4.042708    1.261925   -1.900197
     14          1           0        3.255000    0.491198    0.639971
     15          1           0        3.799744   -0.936781   -0.234816
     16          1           0        1.949084    1.220735   -1.363580
     17          1           0        2.492697   -0.206399   -2.238437
     18          1           0        4.878943    0.566778   -2.027011
     19          1           0        4.332241    2.002021   -1.147183
     20          1           0        3.889783    1.785384   -2.849126
     21          6           0       -1.926445    1.239274    0.009195
     22          6           0       -1.846112    1.696676    1.466011
     23          6           0       -1.014782    2.967851    1.641514
     24          1           0       -0.910054    1.069923   -0.371876
     25          1           0       -2.357437    2.047145   -0.598248
     26          1           0       -1.416680    0.887672    2.070755
     27          1           0       -2.862821    1.864774    1.843715
     28          1           0       -1.444162    3.791949    1.062638
     29          1           0        0.010196    2.809295    1.290968
     30          1           0       -0.970581    3.277007    2.690479
     31          6           0       -2.754183   -0.030322   -0.182390
     32          6           0       -2.834518   -0.487725   -1.639206
     33          6           0       -3.665847   -1.758899   -1.814710
     34          1           0       -2.323193   -0.838192    0.425052
     35          1           0       -3.770575    0.139029    0.198680
     36          1           0       -1.817808   -0.655822   -2.016911
     37          1           0       -3.263949    0.321280   -2.243951
     38          1           0       -4.690824   -1.600343   -1.464164
     39          1           0       -3.236467   -2.582997   -1.235834
     40          1           0       -3.710048   -2.068055   -2.863676
 ---------------------------------------------------------------------

 SCF Done:  E(RHF) =  -470.733240299     A.U. after   11 cycles
 E2 =    -0.1584577641D+01 EUMP2 =    -0.47231781793998D+03

 The electronic state is 1-A.
 Alpha  occ. eigenvalues --  -11.21674 -11.21669 -11.21662 -11.21567 -11.21470
 Alpha  occ. eigenvalues --  -11.21411 -11.21394 -11.21331 -11.21162 -11.21141
 Alpha  occ. eigenvalues --  -11.21111 -11.21042  -1.08528  -1.08417  -1.03599
 Alpha  occ. eigenvalues --   -1.03543  -0.96050  -0.95989  -0.87068  -0.87005
 Alpha  occ. eigenvalues --   -0.79662  -0.79606  -0.78380  -0.78202  -0.65406
 Alpha  occ. eigenvalues --   -0.64835  -0.61043  -0.60889  -0.59414  -0.59357
 Alpha  occ. eigenvalues --   -0.57684  -0.57579  -0.55370  -0.55261  -0.52739
 Alpha  occ. eigenvalues --   -0.52689  -0.52479  -0.52416  -0.50052  -0.49892
 Alpha  occ. eigenvalues --   -0.47986  -0.47935  -0.46725  -0.46661  -0.46256
 Alpha  occ. eigenvalues --   -0.45810  -0.45680  -0.45244  -0.43850  -0.43790
 Alpha virt. eigenvalues --    0.18801   0.22116   0.23729   0.24101   0.25293
 Alpha virt. eigenvalues --    0.25924   0.26926   0.27858   0.29049   0.30338
 Alpha virt. eigenvalues --    0.30721   0.31527   0.31721   0.31743   0.32316

 Mulliken charges:
               1
     1  C   -0.307459
     2  C   -0.299017
     3  C   -0.480171
     4  H    0.158688
     5  H    0.149274
     6  H    0.152180
     7  H    0.152439
     8  H    0.155277
     9  H    0.158262
    10  H    0.161005
    11  C   -0.297944
    12  C   -0.302117
    13  C   -0.475704
    14  H    0.149560
    15  H    0.150109
    16  H    0.153310
    17  H    0.152044
    18  H    0.155426
    19  H    0.155407
    20  H    0.160638
    21  C   -0.304715
    22  C   -0.302893
    23  C   -0.475936
    24  H    0.154978
    25  H    0.150208
    26  H    0.153198
    27  H    0.152813
    28  H    0.155810
    29  H    0.154205
    30  H    0.160579
    31  C   -0.301147
    32  C   -0.299936
    33  C   -0.475829
    34  H    0.152701
    35  H    0.149603
    36  H    0.152951
    37  H    0.151676
    38  H    0.155040
    39  H    0.155450
    40  H    0.160038
 Sum of Mulliken charges =  -0.00000

 Dipole moment (field-independent basis, Debye):
    X=              0.0179    Y=             -0.0053    Z=             -0.0009  Tot=              0.0187
 Quadrupole moment (field-independent basis, Debye-Ang):
   XX=            -84.9345   YY=            -84.9226   ZZ=            -84.7776
   XY=             -1.7803   XZ=              0.1273   YZ=              0.3387

 Normal termination of Gaussian 16 at Thu May  6 06:51:49 2021.
