 Gaussian 16, Revision A.03,
 Gaussian 16:  EM64L-G16RevA.03 25-Dec-2016

 -------------
 #p 6-31g* mp2
 -------------

 ------------------------------------------------------
 Input file generated by CHIRIPA (05-May-2021 14:55:25)
 ------------------------------------------------------
 Symbolic Z-matrix:
 Charge =  0 Multiplicity = 1

                         Standard orientation:
 ---------------------------------------------------------------------
 Center     Atomic      Atomic             Coordinates (Angstroms)
 Number     Number       Type             X           Y           Z
 ---------------------------------------------------------------------
      1          6           0       -1.613174   -2.000030    1.585206
      2          6           0       -0.902322   -0.827417    1.309180
      3          6           0       -1.438456    0.144432    0.459110
      4          6           0       -2.693622   -0.090013   -0.100249
      5          6           0       -3.426331   -1.248059    0.155404
      6          6           0       -2.870693   -2.206245    1.008454
      7          1           0       -1.189117   -2.749679    2.246718
      8          1           0        0.074493   -0.664587    1.755681
      9          1           0       -0.909729    1.061280    0.228339
     10          1           0       -4.397858   -1.382125   -0.304575
     11          1           0       -3.425013   -3.115962    1.221029
     12          7           0       -3.271527    0.931607   -1.001757
     13          8           0       -4.379198    0.701210   -1.481986
     14          8           0       -2.605876    1.943407   -1.211059
     15          6           0        3.116717    1.063831   -0.109185
     16          6           0        2.608571    1.636057    1.214571
     17          6           0        2.193843    3.103549    1.103840
     18          1           0        3.970029    1.662289   -0.456535
     19          1           0        2.331560    1.167458   -0.870885
     20          1           0        3.393950    1.530125    1.973896
     21          1           0        1.756490    1.036050    1.558906
     22          1           0        1.393405    3.223082    0.366541
     23          1           0        3.040168    3.719964    0.783889
     24          1           0        1.833828    3.492352    2.061484
     25          6           0        3.535127   -0.402355   -0.014541
     26          6           0        4.043272   -0.974581   -1.338297
     27          6           0        4.458000   -2.442074   -1.227567
     28          1           0        4.320283   -0.505982    0.747159
     29          1           0        2.681815   -1.000814    0.332809
     30          1           0        4.895353   -0.374575   -1.682632
     31          1           0        3.257894   -0.868650   -2.097622
     32          1           0        3.611676   -3.058489   -0.907616
     33          1           0        5.258439   -2.561607   -0.490268
     34          1           0        4.818015   -2.830877   -2.185210
 ---------------------------------------------------------------------

 SCF Done:  E(RHF) =  -669.535465502     A.U. after   15 cycles
 E2 =    -0.2092067768D+01 EUMP2 =    -0.67162753327082D+03

 The electronic state is 1-A.
 Alpha  occ. eigenvalues --  -20.60780 -20.60774 -15.85833 -11.31196 -11.27769
 Alpha  occ. eigenvalues --  -11.27763 -11.27507 -11.26780 -11.26753 -11.22400
 Alpha  occ. eigenvalues --  -11.22042 -11.21990 -11.21935 -11.21558 -11.21473
 Alpha  occ. eigenvalues --   -1.59855  -1.39408  -1.19369  -1.09025  -1.08763
 Alpha  occ. eigenvalues --   -1.04775  -1.04077  -0.96493  -0.95599  -0.87507
 Alpha  occ. eigenvalues --   -0.86172  -0.82438  -0.80153  -0.78843  -0.77480
 Alpha  occ. eigenvalues --   -0.72051  -0.71178  -0.70481  -0.65715  -0.65016
 Alpha  occ. eigenvalues --   -0.64767  -0.62204  -0.61388  -0.59864  -0.58109
 Alpha  occ. eigenvalues --   -0.55779  -0.55271  -0.53191  -0.53100  -0.52908
 Alpha  occ. eigenvalues --   -0.52871  -0.50435  -0.48814  -0.48807  -0.48448
 Alpha  occ. eigenvalues --   -0.47199  -0.46367  -0.46276  -0.44814  -0.44330
 Alpha  occ. eigenvalues --   -0.37349  -0.36373
 Alpha virt. eigenvalues --    0.05049   0.11241   0.16491   0.18486   0.22913
 Alpha virt. eigenvalues --    0.23278   0.24484   0.25920   0.27403   0.28501
 Alpha virt. eigenvalues --    0.29275   0.30248   0.31304   0.31470   0.32295

 Mulliken charges:
               1
     1  C   -0.171066
     2  C   -0.225865
     3  C   -0.174723
     4  C    0.158564
     5  C   -0.170585
     6  C   -0.218661
     7  H    0.226180
     8  H    0.231510
     9  H    0.277722
    10  H    0.275649
    11  H    0.223487
    12  N    0.488052
    13  O   -0.460356
    14  O   -0.460713
    15  C   -0.299999
    16  C   -0.305109
    17  C   -0.478705
    18  H    0.154242
    19  H    0.152846
    20  H    0.155115
    21  H    0.141095
    22  H    0.160669
    23  H    0.159624
    24  H    0.162097
    25  C   -0.298755
    26  C   -0.300322
    27  C   -0.475947
    28  H    0.150262
    29  H    0.143016
    30  H    0.154201
    31  H    0.155089
    32  H    0.153619
    33  H    0.155127
    34  H    0.162639
 Sum of Mulliken charges =  -0.00000

 Dipole moment (field-independent basis, Debye):
    X=              2.1762    Y=             -3.5122    Z=              3.0905  Tot=              5.1597
 Quadrupole moment (field-independent basis, Debye-Ang):
   XX=           -101.2574   YY=            -93.5460   ZZ=            -96.0261
   XY=             13.2533   XZ=             -8.2170   YZ=              0.4231

 Normal termination of Gaussian 16 at Thu May  6 06:24:25 2021.
