 Gaussian 16, Revision A.03,
 Gaussian 16:  EM64L-G16RevA.03 25-Dec-2016

 -------------
 #p 6-31g* mp2
 -------------

 ------------------------------------------------------
 Input file generated by CHIRIPA (05-May-2021 14:53:11)
 ------------------------------------------------------
 Symbolic Z-matrix:
 Charge =  0 Multiplicity = 1

                         Standard orientation:
 ---------------------------------------------------------------------
 Center     Atomic      Atomic             Coordinates (Angstroms)
 Number     Number       Type             X           Y           Z
 ---------------------------------------------------------------------
      1          6           0        2.921692   -0.414619   -0.215608
      2          6           0        3.873028   -1.574887    0.078878
      3          6           0        3.219420   -2.941853   -0.126046
      4          1           0        2.037624   -0.500543    0.430910
      5          1           0        2.561564   -0.498465   -1.250341
      6          1           0        4.232333   -1.488102    1.112311
      7          1           0        4.755023   -1.486084   -0.568282
      8          1           0        2.876392   -3.053778   -1.159683
      9          1           0        2.350733   -3.055808    0.530458
     10          1           0        3.917175   -3.756916    0.089987
     11          6           0        3.560612    0.958467   -0.015245
     12          6           0        2.609276    2.118735   -0.309731
     13          6           0        3.262884    3.485701   -0.104807
     14          1           0        3.920740    1.042313    1.019488
     15          1           0        4.444680    1.044391   -0.661763
     16          1           0        1.727281    2.029931    0.337428
     17          1           0        2.249970    2.031950   -1.343164
     18          1           0        4.131571    3.599656   -0.761312
     19          1           0        3.605912    3.597626    0.928830
     20          1           0        2.565129    4.300764   -0.320840
     21          6           0       -3.799175    1.965990   -0.032351
     22          6           0       -2.528584    1.927074    0.551261
     23          6           0       -1.817436    0.725642    0.624598
     24          6           0       -2.409659   -0.423043    0.102023
     25          6           0       -3.673790   -0.416496   -0.485530
     26          6           0       -4.366723    0.796142   -0.547975
     27          1           0       -4.344536    2.903644   -0.085089
     28          1           0       -2.085343    2.834033    0.952520
     29          1           0       -0.832207    0.667079    1.071042
     30          1           0       -4.089554   -1.337032   -0.876903
     31          1           0       -5.353315    0.823384   -1.001779
     32          7           0       -1.666441   -1.700877    0.173895
     33          8           0       -2.210207   -2.698996   -0.293774
     34          8           0       -0.554212   -1.680131    0.696538
 ---------------------------------------------------------------------

 SCF Done:  E(RHF) =  -669.536193855     A.U. after   15 cycles
 E2 =    -0.2092129001D+01 EUMP2 =    -0.67162832285656D+03

 The electronic state is 1-A.
 Alpha  occ. eigenvalues --  -20.60949 -20.60934 -15.85972 -11.31273 -11.27836
 Alpha  occ. eigenvalues --  -11.27833 -11.27569 -11.26840 -11.26829 -11.21610
 Alpha  occ. eigenvalues --  -11.21140 -11.20990 -11.20706 -11.20495 -11.19786
 Alpha  occ. eigenvalues --   -1.59998  -1.39556  -1.19440  -1.08848  -1.07903
 Alpha  occ. eigenvalues --   -1.04834  -1.02980  -0.95694  -0.95397  -0.86413
 Alpha  occ. eigenvalues --   -0.86236  -0.82534  -0.79135  -0.77727  -0.77456
 Alpha  occ. eigenvalues --   -0.72200  -0.71306  -0.70552  -0.65102  -0.64844
 Alpha  occ. eigenvalues --   -0.64537  -0.62184  -0.60379  -0.58867  -0.56989
 Alpha  occ. eigenvalues --   -0.55341  -0.54670  -0.53165  -0.52929  -0.52150
 Alpha  occ. eigenvalues --   -0.51797  -0.49386  -0.48951  -0.48896  -0.47403
 Alpha  occ. eigenvalues --   -0.46195  -0.45336  -0.45084  -0.44662  -0.43218
 Alpha  occ. eigenvalues --   -0.37417  -0.36430
 Alpha virt. eigenvalues --    0.04922   0.11208   0.16408   0.20126   0.23101
 Alpha virt. eigenvalues --    0.24791   0.25092   0.27440   0.27668   0.28548
 Alpha virt. eigenvalues --    0.29553   0.31231   0.31864   0.32031   0.32491

 Mulliken charges:
               1
     1  C   -0.306233
     2  C   -0.299028
     3  C   -0.479415
     4  H    0.168303
     5  H    0.147083
     6  H    0.148521
     7  H    0.146662
     8  H    0.153456
     9  H    0.175462
    10  H    0.153846
    11  C   -0.297947
    12  C   -0.297469
    13  C   -0.475148
    14  H    0.147890
    15  H    0.148593
    16  H    0.141041
    17  H    0.152667
    18  H    0.157142
    19  H    0.154988
    20  H    0.155754
    21  C   -0.170515
    22  C   -0.219120
    23  C   -0.171685
    24  C    0.157856
    25  C   -0.170586
    26  C   -0.218676
    27  H    0.225965
    28  H    0.224055
    29  H    0.278165
    30  H    0.275732
    31  H    0.223738
    32  N    0.492213
    33  O   -0.458862
    34  O   -0.464451
 Sum of Mulliken charges =  -0.00000

 Dipole moment (field-independent basis, Debye):
    X=             -2.8362    Y=              4.3486    Z=             -0.2297  Tot=              5.1968
 Quadrupole moment (field-independent basis, Debye-Ang):
   XX=            -80.2116   YY=            -99.2795   ZZ=            -93.5983
   XY=             -8.2724   XZ=              2.1750   YZ=              1.5713

 Normal termination of Gaussian 16 at Wed May  5 21:41:20 2021.
