 Gaussian 16, Revision A.03,
 Gaussian 16:  EM64L-G16RevA.03 25-Dec-2016

 -------------
 #p 6-31g* mp2
 -------------

 ------------------------------------------------------
 Input file generated by CHIRIPA (05-May-2021 14:51:14)
 ------------------------------------------------------
 Symbolic Z-matrix:
 Charge =  0 Multiplicity = 1

                         Standard orientation:
 ---------------------------------------------------------------------
 Center     Atomic      Atomic             Coordinates (Angstroms)
 Number     Number       Type             X           Y           Z
 ---------------------------------------------------------------------
      1          6           0        4.092291   -0.392126   -0.297932
      2          6           0        3.472087   -1.711554    0.162983
      3          6           0        4.246588   -2.933509   -0.331757
      4          1           0        4.137896   -0.379409   -1.395522
      5          1           0        5.130250   -0.338579    0.058675
      6          1           0        2.435169   -1.761979   -0.193212
      7          1           0        3.427778   -1.721051    1.259597
      8          1           0        5.277826   -2.910470    0.035147
      9          1           0        4.279578   -2.951631   -1.425916
     10          1           0        3.785916   -3.865898    0.009257
     11          6           0        3.329265    0.838600    0.188721
     12          6           0        3.949469    2.158028   -0.272194
     13          6           0        3.174968    3.379983    0.222546
     14          1           0        2.291306    0.785053   -0.167885
     15          1           0        3.283660    0.825883    1.286311
     16          1           0        3.993778    2.167525   -1.368808
     17          1           0        4.986386    2.208453    0.084001
     18          1           0        3.141978    3.398105    1.316706
     19          1           0        2.143730    3.356944   -0.144358
     20          1           0        3.635640    4.312372   -0.118468
     21          6           0       -4.256649    0.250201   -0.193010
     22          6           0       -5.671651   -0.250212    0.099122
     23          6           0       -6.752737    0.707738   -0.402257
     24          1           0       -4.119746    1.235851    0.272497
     25          1           0       -4.143652    0.397602   -1.276015
     26          1           0       -5.781505   -0.397945    1.181122
     27          1           0       -5.805137   -1.234870   -0.366973
     28          1           0       -6.671692    0.847329   -1.485100
     29          1           0       -6.647925    1.689010    0.071791
     30          1           0       -7.756474    0.330515   -0.183001
     31          6           0       -3.164907   -0.696675    0.302221
     32          6           0       -1.749905   -0.196262    0.010088
     33          6           0       -0.668819   -1.154212    0.511469
     34          1           0       -3.277904   -0.844076    1.385226
     35          1           0       -3.301810   -1.682325   -0.163286
     36          1           0       -1.616418    0.788396    0.476183
     37          1           0       -1.640051   -0.048529   -1.071910
     38          1           0       -0.773631   -2.135484    0.037420
     39          1           0       -0.749864   -1.293803    1.594310
     40          1           0        0.334918   -0.776989    0.292212
 ---------------------------------------------------------------------

 SCF Done:  E(RHF) =  -470.732866311     A.U. after   11 cycles
 E2 =    -0.1583082900D+01 EUMP2 =    -0.47231594921075D+03

 The electronic state is 1-A.
 Alpha  occ. eigenvalues --  -11.21611 -11.21601 -11.21600 -11.21532 -11.21411
 Alpha  occ. eigenvalues --  -11.21403 -11.21344 -11.21343 -11.21076 -11.21071
 Alpha  occ. eigenvalues --  -11.21034 -11.21015  -1.08443  -1.08415  -1.03537
 Alpha  occ. eigenvalues --   -1.03504  -0.95982  -0.95964  -0.87011  -0.86970
 Alpha  occ. eigenvalues --   -0.79649  -0.79530  -0.78265  -0.78223  -0.65083
 Alpha  occ. eigenvalues --   -0.65054  -0.60952  -0.60894  -0.59444  -0.59249
 Alpha  occ. eigenvalues --   -0.57641  -0.57533  -0.55274  -0.55242  -0.52813
 Alpha  occ. eigenvalues --   -0.52572  -0.52412  -0.52374  -0.49943  -0.49884
 Alpha  occ. eigenvalues --   -0.47946  -0.47879  -0.46657  -0.46581  -0.45786
 Alpha  occ. eigenvalues --   -0.45773  -0.45722  -0.45682  -0.43796  -0.43642
 Alpha virt. eigenvalues --    0.21628   0.23096   0.23906   0.24242   0.26039
 Alpha virt. eigenvalues --    0.26649   0.26941   0.27489   0.27853   0.29150
 Alpha virt. eigenvalues --    0.30769   0.31445   0.31639   0.31895   0.32108

 Mulliken charges:
               1
     1  C   -0.298220
     2  C   -0.305367
     3  C   -0.475305
     4  H    0.149223
     5  H    0.149521
     6  H    0.158697
     7  H    0.151868
     8  H    0.154889
     9  H    0.154805
    10  H    0.160389
    11  C   -0.302801
    12  C   -0.299343
    13  C   -0.475792
    14  H    0.152966
    15  H    0.149912
    16  H    0.151953
    17  H    0.152148
    18  H    0.155159
    19  H    0.155305
    20  H    0.160299
    21  C   -0.298231
    22  C   -0.299626
    23  C   -0.475700
    24  H    0.149682
    25  H    0.149384
    26  H    0.151958
    27  H    0.151917
    28  H    0.155142
    29  H    0.155203
    30  H    0.160254
    31  C   -0.298438
    32  C   -0.299278
    33  C   -0.485346
    34  H    0.149638
    35  H    0.149609
    36  H    0.151984
    37  H    0.151133
    38  H    0.154426
    39  H    0.155495
    40  H    0.170492
 Sum of Mulliken charges =  -0.00000

 Dipole moment (field-independent basis, Debye):
    X=              0.0079    Y=              0.0022    Z=              0.0099  Tot=              0.0129
 Quadrupole moment (field-independent basis, Debye-Ang):
   XX=            -85.5634   YY=            -85.8764   ZZ=            -83.4032
   XY=              1.0061   XZ=              0.3665   YZ=              0.3719

 Normal termination of Gaussian 16 at Wed May  5 23:16:20 2021.
