 Gaussian 16, Revision A.03,
 Gaussian 16:  EM64L-G16RevA.03 25-Dec-2016

 -------------
 #p 6-31g* mp2
 -------------

 ------------------------------------------------------
 Input file generated by CHIRIPA (05-May-2021 14:51:12)
 ------------------------------------------------------
 Symbolic Z-matrix:
 Charge =  0 Multiplicity = 1

                         Standard orientation:
 ---------------------------------------------------------------------
 Center     Atomic      Atomic             Coordinates (Angstroms)
 Number     Number       Type             X           Y           Z
 ---------------------------------------------------------------------
      1          6           0       -3.163458   -0.431145   -0.107292
      2          6           0       -2.996967   -1.622543   -1.051134
      3          6           0       -3.588281   -2.913360   -0.483742
      4          1           0       -2.685368   -0.663551    0.854145
      5          1           0       -4.232131   -0.284871    0.102317
      6          1           0       -1.929022   -1.765668   -1.259999
      7          1           0       -3.475342   -1.387199   -2.010502
      8          1           0       -4.659596   -2.794609   -0.291951
      9          1           0       -3.104489   -3.175228    0.462815
     10          1           0       -3.458249   -3.752163   -1.174655
     11          6           0       -2.577313    0.866570   -0.660553
     12          6           0       -2.743804    2.057968    0.283289
     13          6           0       -2.152490    3.348784   -0.284103
     14          1           0       -1.508640    0.720296   -0.870162
     15          1           0       -3.055403    1.098975   -1.621991
     16          1           0       -2.265428    1.822624    1.242656
     17          1           0       -3.811749    2.201092    0.492154
     18          1           0       -2.636282    3.610653   -1.230661
     19          1           0       -1.081175    3.230034   -0.475894
     20          1           0       -2.282521    4.187588    0.406809
     21          6           0        2.431481   -0.583204    0.891082
     22          6           0        1.082341    0.096702    1.126738
     23          6           0        0.215587   -0.646284    2.143843
     24          1           0        2.261029   -1.612593    0.547206
     25          1           0        2.968512   -0.657812    1.846815
     26          1           0        0.548603    0.171251    0.170609
     27          1           0        1.256024    1.124653    1.469908
     28          1           0        0.724469   -0.708458    3.111197
     29          1           0        0.013028   -1.667277    1.804515
     30          1           0       -0.744155   -0.143028    2.297107
     31          6           0        3.309290    0.147780   -0.123237
     32          6           0        4.658430   -0.532127   -0.358892
     33          6           0        5.525184    0.210859   -1.375997
     34          1           0        2.772258    0.222387   -1.078970
     35          1           0        3.479742    1.177168    0.220639
     36          1           0        4.484747   -1.560078   -0.702062
     37          1           0        5.192169   -0.606676    0.597236
     38          1           0        5.727743    1.231853   -1.036670
     39          1           0        5.016302    0.273033   -2.343352
     40          1           0        6.484926   -0.292397   -1.529262
 ---------------------------------------------------------------------

 SCF Done:  E(RHF) =  -470.732568177     A.U. after   11 cycles
 E2 =    -0.1584607638D+01 EUMP2 =    -0.47231717581491D+03

 The electronic state is 1-A.
 Alpha  occ. eigenvalues --  -11.21693 -11.21643 -11.21590 -11.21588 -11.21471
 Alpha  occ. eigenvalues --  -11.21410 -11.21347 -11.21281 -11.21176 -11.21100
 Alpha  occ. eigenvalues --  -11.21061 -11.21045  -1.08520  -1.08386  -1.03607
 Alpha  occ. eigenvalues --   -1.03506  -0.96071  -0.95938  -0.87079  -0.86967
 Alpha  occ. eigenvalues --   -0.79688  -0.79573  -0.78353  -0.78174  -0.65334
 Alpha  occ. eigenvalues --   -0.64918  -0.60996  -0.60921  -0.59408  -0.59321
 Alpha  occ. eigenvalues --   -0.57666  -0.57563  -0.55427  -0.55133  -0.52784
 Alpha  occ. eigenvalues --   -0.52647  -0.52472  -0.52373  -0.50097  -0.49824
 Alpha  occ. eigenvalues --   -0.48057  -0.47886  -0.46820  -0.46594  -0.46025
 Alpha  occ. eigenvalues --   -0.45820  -0.45713  -0.45301  -0.43806  -0.43747
 Alpha virt. eigenvalues --    0.19512   0.23067   0.23532   0.24723   0.25149
 Alpha virt. eigenvalues --    0.26165   0.27061   0.27642   0.28499   0.29715
 Alpha virt. eigenvalues --    0.30269   0.31427   0.31825   0.31937   0.32201

 Mulliken charges:
               1
     1  C   -0.303595
     2  C   -0.299414
     3  C   -0.475950
     4  H    0.156251
     5  H    0.149126
     6  H    0.150768
     7  H    0.151861
     8  H    0.155325
     9  H    0.155409
    10  H    0.159981
    11  C   -0.303269
    12  C   -0.302390
    13  C   -0.476119
    14  H    0.154508
    15  H    0.149701
    16  H    0.153949
    17  H    0.151992
    18  H    0.155075
    19  H    0.156037
    20  H    0.159982
    21  C   -0.297849
    22  C   -0.306147
    23  C   -0.481143
    24  H    0.149749
    25  H    0.149910
    26  H    0.157332
    27  H    0.152442
    28  H    0.156085
    29  H    0.155211
    30  H    0.164777
    31  C   -0.298447
    32  C   -0.299708
    33  C   -0.475786
    34  H    0.149363
    35  H    0.149848
    36  H    0.152053
    37  H    0.152073
    38  H    0.155281
    39  H    0.155308
    40  H    0.160420
 Sum of Mulliken charges =  -0.00000

 Dipole moment (field-independent basis, Debye):
    X=              0.0338    Y=              0.0005    Z=              0.0216  Tot=              0.0401
 Quadrupole moment (field-independent basis, Debye-Ang):
   XX=            -84.5255   YY=            -85.6723   ZZ=            -84.5892
   XY=             -0.6503   XZ=              1.2980   YZ=              0.8934

 Normal termination of Gaussian 16 at Thu May  6 02:18:28 2021.
