 Gaussian 16, Revision A.03,
 Gaussian 16:  EM64L-G16RevA.03 25-Dec-2016

 -------------
 #p 6-31g* mp2
 -------------

 ------------------------------------------------------
 Input file generated by CHIRIPA (05-May-2021 14:51:08)
 ------------------------------------------------------
 Symbolic Z-matrix:
 Charge =  0 Multiplicity = 1

                         Standard orientation:
 ---------------------------------------------------------------------
 Center     Atomic      Atomic             Coordinates (Angstroms)
 Number     Number       Type             X           Y           Z
 ---------------------------------------------------------------------
      1          6           0        3.830613    0.775561   -0.162710
      2          6           0        2.427110    1.195877   -0.600317
      3          6           0        2.231093    2.712120   -0.580867
      4          1           0        4.022442    1.158566    0.848949
      5          1           0        4.570302    1.250325   -0.822144
      6          1           0        1.690226    0.719361    0.058888
      7          1           0        2.238527    0.811664   -1.610976
      8          1           0        2.943902    3.201360   -1.252544
      9          1           0        2.392486    3.108532    0.426808
     10          1           0        1.220963    2.990429   -0.897160
     11          6           0        4.041975   -0.737334   -0.176935
     12          6           0        5.445478   -1.157649    0.260672
     13          6           0        5.641495   -2.673892    0.241223
     14          1           0        3.302285   -1.212097    0.482499
     15          1           0        3.850146   -1.120339   -1.188594
     16          1           0        5.634061   -0.773436    1.271332
     17          1           0        6.182361   -0.681133   -0.398533
     18          1           0        5.480101   -3.070304   -0.766453
     19          1           0        4.928686   -3.163132    0.912899
     20          1           0        6.651625   -2.952201    0.557516
     21          6           0       -4.689166   -0.060390    0.047706
     22          6           0       -5.178770   -1.478598   -0.247180
     23          6           0       -6.687008   -1.544926   -0.489284
     24          1           0       -5.220574    0.328729    0.926989
     25          1           0       -4.955562    0.594341   -0.793575
     26          1           0       -4.910308   -2.130752    0.593794
     27          1           0       -4.645997   -1.864457   -1.125748
     28          1           0       -6.968388   -0.917483   -1.341188
     29          1           0       -7.234201   -1.185291    0.388124
     30          1           0       -7.015479   -2.567827   -0.698183
     31          6           0       -3.183422    0.022163    0.291938
     32          6           0       -2.693818    1.440370    0.586825
     33          6           0       -1.185580    1.506698    0.828929
     34          1           0       -2.917026   -0.632569    1.133221
     35          1           0       -2.652014   -0.366956   -0.587344
     36          1           0       -3.226591    1.826230    1.465394
     37          1           0       -2.962280    2.092525   -0.254149
     38          1           0       -0.638388    1.147064   -0.048479
     39          1           0       -0.904200    0.879255    1.680834
     40          1           0       -0.857109    2.529599    1.037829
 ---------------------------------------------------------------------

 SCF Done:  E(RHF) =  -470.732608328     A.U. after   11 cycles
 E2 =    -0.1583043174D+01 EUMP2 =    -0.47231565150225D+03

 The electronic state is 1-A.
 Alpha  occ. eigenvalues --  -11.21604 -11.21594 -11.21569 -11.21481 -11.21407
 Alpha  occ. eigenvalues --  -11.21351 -11.21348 -11.21288 -11.21073 -11.21047
 Alpha  occ. eigenvalues --  -11.21032 -11.20967  -1.08436  -1.08369  -1.03563
 Alpha  occ. eigenvalues --   -1.03441  -0.96037  -0.95870  -0.87023  -0.86921
 Alpha  occ. eigenvalues --   -0.79655  -0.79495  -0.78270  -0.78162  -0.65081
 Alpha  occ. eigenvalues --   -0.64993  -0.61023  -0.60816  -0.59422  -0.59231
 Alpha  occ. eigenvalues --   -0.57656  -0.57507  -0.55313  -0.55145  -0.52781
 Alpha  occ. eigenvalues --   -0.52514  -0.52423  -0.52314  -0.49925  -0.49845
 Alpha  occ. eigenvalues --   -0.48066  -0.47746  -0.46692  -0.46480  -0.45862
 Alpha  occ. eigenvalues --   -0.45723  -0.45703  -0.45498  -0.43815  -0.43684
 Alpha virt. eigenvalues --    0.22151   0.22947   0.23495   0.24907   0.26373
 Alpha virt. eigenvalues --    0.26553   0.27042   0.27426   0.27833   0.29226
 Alpha virt. eigenvalues --    0.30754   0.31136   0.31501   0.31981   0.32219

 Mulliken charges:
               1
     1  C   -0.297742
     2  C   -0.305268
     3  C   -0.476080
     4  H    0.149516
     5  H    0.149067
     6  H    0.159054
     7  H    0.150235
     8  H    0.154159
     9  H    0.154723
    10  H    0.162063
    11  C   -0.298302
    12  C   -0.299581
    13  C   -0.475665
    14  H    0.149503
    15  H    0.149356
    16  H    0.151879
    17  H    0.151864
    18  H    0.155082
    19  H    0.155111
    20  H    0.160133
    21  C   -0.298247
    22  C   -0.299641
    23  C   -0.475705
    24  H    0.149658
    25  H    0.149524
    26  H    0.151893
    27  H    0.151968
    28  H    0.155188
    29  H    0.155173
    30  H    0.160261
    31  C   -0.298442
    32  C   -0.300294
    33  C   -0.480217
    34  H    0.149346
    35  H    0.149773
    36  H    0.151699
    37  H    0.151716
    38  H    0.161291
    39  H    0.153849
    40  H    0.162103
 Sum of Mulliken charges =  -0.00000

 Dipole moment (field-independent basis, Debye):
    X=             -0.0260    Y=              0.0029    Z=              0.0106  Tot=              0.0282
 Quadrupole moment (field-independent basis, Debye-Ang):
   XX=            -86.1543   YY=            -86.0129   ZZ=            -82.8822
   XY=              0.1109   XZ=             -0.6287   YZ=             -0.1881

 Normal termination of Gaussian 16 at Wed May  5 16:36:04 2021.
