 Gaussian 16, Revision A.03,
 Gaussian 16:  EM64L-G16RevA.03 25-Dec-2016

 -------------
 #p 6-31g* mp2
 -------------

 ------------------------------------------------------
 Input file generated by CHIRIPA (05-May-2021 14:57:21)
 ------------------------------------------------------
 Symbolic Z-matrix:
 Charge =  0 Multiplicity = 1

                         Standard orientation:
 ---------------------------------------------------------------------
 Center     Atomic      Atomic             Coordinates (Angstroms)
 Number     Number       Type             X           Y           Z
 ---------------------------------------------------------------------
      1          6           0       -1.659322   -1.642405    0.761827
      2          6           0       -2.562712   -1.115535    1.690705
      3          6           0       -3.587229   -0.258708    1.277472
      4          6           0       -3.679408    0.051546   -0.078454
      5          6           0       -2.794762   -0.457321   -1.028057
      6          6           0       -1.778020   -1.312198   -0.592203
      7          1           0       -0.866473   -2.307251    1.091623
      8          1           0       -2.472942   -1.370244    2.742897
      9          1           0       -4.300214    0.163354    1.975279
     10          1           0       -2.909669   -0.185151   -2.070237
     11          1           0       -1.077862   -1.719886   -1.315814
     12          7           0       -4.759902    0.957598   -0.527900
     13          8           0       -4.819650    1.215514   -1.728128
     14          8           0       -5.526586    1.392690    0.328563
     15          6           0        4.175794    2.496543    0.400572
     16          6           0        4.708779    1.789222   -0.682083
     17          6           0        4.342204    0.459690   -0.911247
     18          6           0        3.436125   -0.134121   -0.033922
     19          6           0        2.887717    0.544142    1.053505
     20          6           0        3.268563    1.872846    1.263390
     21          1           0        4.466101    3.529034    0.571104
     22          1           0        5.413549    2.271042   -1.353794
     23          1           0        4.739487   -0.111241   -1.741682
     24          1           0        2.187296    0.036948    1.705871
     25          1           0        2.853032    2.419714    2.105004
     26          7           0        3.040494   -1.541198   -0.266322
     27          8           0        2.240441   -2.041641    0.521147
     28          8           0        3.537944   -2.116979   -1.231547
 ---------------------------------------------------------------------

 SCF Done:  E(RHF) =  -868.340169141     A.U. after   16 cycles
 E2 =    -0.2598439301D+01 EUMP2 =    -0.87093860844254D+03

 The electronic state is 1-A.
 Alpha  occ. eigenvalues --  -20.61770 -20.61706 -20.60462 -20.60456 -15.86775
 Alpha  occ. eigenvalues --  -15.85511 -11.31843 -11.30729 -11.28395 -11.28363
 Alpha  occ. eigenvalues --  -11.28047 -11.27323 -11.27319 -11.27305 -11.27269
 Alpha  occ. eigenvalues --  -11.26805 -11.26248 -11.26132  -1.60806  -1.59542
 Alpha  occ. eigenvalues --   -1.40370  -1.39100  -1.19986  -1.18876  -1.09431
 Alpha  occ. eigenvalues --   -1.08256  -1.05344  -1.04263  -0.96318  -0.95119
 Alpha  occ. eigenvalues --   -0.86756  -0.85639  -0.83166  -0.81968  -0.78248
 Alpha  occ. eigenvalues --   -0.77073  -0.73014  -0.72117  -0.71728  -0.71087
 Alpha  occ. eigenvalues --   -0.70868  -0.69853  -0.65642  -0.65340  -0.64502
 Alpha  occ. eigenvalues --   -0.64230  -0.62699  -0.61615  -0.55845  -0.54599
 Alpha  occ. eigenvalues --   -0.53686  -0.53432  -0.52604  -0.52326  -0.49771
 Alpha  occ. eigenvalues --   -0.49723  -0.48495  -0.48472  -0.45837  -0.44539
 Alpha  occ. eigenvalues --   -0.37941  -0.36934  -0.36795  -0.35898
 Alpha virt. eigenvalues --    0.04245   0.05466   0.10726   0.11772   0.15793
 Alpha virt. eigenvalues --    0.17000   0.20841   0.22135   0.26781   0.27550
 Alpha virt. eigenvalues --    0.27871   0.29106   0.30554   0.31487   0.32451

 Mulliken charges:
               1
     1  C   -0.175926
     2  C   -0.222001
     3  C   -0.172297
     4  C    0.157047
     5  C   -0.172515
     6  C   -0.222317
     7  H    0.244822
     8  H    0.221207
     9  H    0.272902
    10  H    0.273846
    11  H    0.229928
    12  N    0.488178
    13  O   -0.461848
    14  O   -0.462631
    15  C   -0.169517
    16  C   -0.218350
    17  C   -0.170643
    18  C    0.157301
    19  C   -0.169408
    20  C   -0.217975
    21  H    0.228542
    22  H    0.225860
    23  H    0.276370
    24  H    0.272378
    25  H    0.225672
    26  N    0.489863
    27  O   -0.472052
    28  O   -0.456433
 Sum of Mulliken charges =  -0.00000

 Dipole moment (field-independent basis, Debye):
    X=              5.6124    Y=              1.7738    Z=              2.3533  Tot=              6.3391
 Quadrupole moment (field-independent basis, Debye-Ang):
   XX=           -122.4106   YY=           -107.3582   ZZ=            -97.8274
   XY=             29.4658   XZ=             -8.0039   YZ=              0.7933

 Normal termination of Gaussian 16 at Thu May  6 09:36:23 2021.
