 Gaussian 16, Revision A.03,
 Gaussian 16:  EM64L-G16RevA.03 25-Dec-2016

 -------------
 #p 6-31g* mp2
 -------------

 ------------------------------------------------------
 Input file generated by CHIRIPA (05-May-2021 14:57:21)
 ------------------------------------------------------
 Symbolic Z-matrix:
 Charge =  0 Multiplicity = 1

                         Standard orientation:
 ---------------------------------------------------------------------
 Center     Atomic      Atomic             Coordinates (Angstroms)
 Number     Number       Type             X           Y           Z
 ---------------------------------------------------------------------
      1          6           0        6.379256   -0.814935   -1.015594
      2          6           0        6.261938    0.483964   -0.510006
      3          6           0        5.086460    0.895037    0.125462
      4          6           0        4.043395   -0.022861    0.238465
      5          6           0        4.129851   -1.323771   -0.254940
      6          6           0        5.314715   -1.713074   -0.886675
      7          1           0        7.296041   -1.125810   -1.507790
      8          1           0        7.087050    1.183603   -0.608698
      9          1           0        4.968784    1.894614    0.525982
     10          1           0        3.290220   -1.998733   -0.141509
     11          1           0        5.403011   -2.722443   -1.278366
     12          7           0        2.794001    0.400799    0.909230
     13          8           0        1.889512   -0.426844    0.996080
     14          8           0        2.742873    1.552486    1.335425
     15          6           0       -2.399139    1.788264   -0.388300
     16          6           0       -3.673833    2.059539   -0.896320
     17          6           0       -4.706530    1.127394   -0.757795
     18          6           0       -4.428179   -0.071237   -0.102742
     19          6           0       -3.168671   -0.370694    0.414229
     20          6           0       -2.151064    0.576150    0.264203
     21          1           0       -1.602775    2.518087   -0.500376
     22          1           0       -3.869376    3.000048   -1.403521
     23          1           0       -5.702623    1.311659   -1.141544
     24          1           0       -3.004140   -1.317039    0.915007
     25          1           0       -1.162090    0.362776    0.659739
     26          7           0       -5.513462   -1.065837    0.049996
     27          8           0       -5.242571   -2.114405    0.631170
     28          8           0       -6.614447   -0.778007   -0.414355
 ---------------------------------------------------------------------

 SCF Done:  E(RHF) =  -868.340713169     A.U. after   16 cycles
 E2 =    -0.2598180136D+01 EUMP2 =    -0.87093889330548D+03

 The electronic state is 1-A.
 Alpha  occ. eigenvalues --  -20.61836 -20.61827 -20.60050 -20.60042 -15.86840
 Alpha  occ. eigenvalues --  -15.85090 -11.31899 -11.30271 -11.28430 -11.28421
 Alpha  occ. eigenvalues --  -11.28109 -11.27372 -11.27358 -11.26844 -11.26712
 Alpha  occ. eigenvalues --  -11.26435 -11.25846 -11.25519  -1.60889  -1.59127
 Alpha  occ. eigenvalues --   -1.40448  -1.38686  -1.20041  -1.18396  -1.09494
 Alpha  occ. eigenvalues --   -1.07818  -1.05395  -1.03747  -0.96379  -0.94695
 Alpha  occ. eigenvalues --   -0.86807  -0.85145  -0.83221  -0.81519  -0.78302
 Alpha  occ. eigenvalues --   -0.76598  -0.73071  -0.72184  -0.71314  -0.71141
 Alpha  occ. eigenvalues --   -0.70448  -0.69495  -0.65695  -0.65392  -0.64031
 Alpha  occ. eigenvalues --   -0.63693  -0.62743  -0.61074  -0.55904  -0.54238
 Alpha  occ. eigenvalues --   -0.53742  -0.53480  -0.52121  -0.51800  -0.49835
 Alpha  occ. eigenvalues --   -0.49802  -0.48081  -0.48049  -0.45914  -0.44133
 Alpha  occ. eigenvalues --   -0.38002  -0.36983  -0.36373  -0.35356
 Alpha virt. eigenvalues --    0.04192   0.05889   0.10676   0.12297   0.15746
 Alpha virt. eigenvalues --    0.17449   0.20854   0.22594   0.26791   0.27692
 Alpha virt. eigenvalues --    0.28616   0.29321   0.30456   0.31855   0.32273

 Mulliken charges:
               1
     1  C   -0.169635
     2  C   -0.218597
     3  C   -0.170607
     4  C    0.157248
     5  C   -0.170400
     6  C   -0.218531
     7  H    0.228176
     8  H    0.225428
     9  H    0.275807
    10  H    0.276269
    11  H    0.226121
    12  N    0.489271
    13  O   -0.466828
    14  O   -0.459750
    15  C   -0.173305
    16  C   -0.218831
    17  C   -0.173479
    18  C    0.158131
    19  C   -0.173982
    20  C   -0.228383
    21  H    0.227523
    22  H    0.219561
    23  H    0.271970
    24  H    0.275015
    25  H    0.249195
    26  N    0.488097
    27  O   -0.461970
    28  O   -0.463515
 Sum of Mulliken charges =  -0.00000

 Dipole moment (field-independent basis, Debye):
    X=              8.8519    Y=              1.9825    Z=             -2.8719  Tot=              9.5149
 Quadrupole moment (field-independent basis, Debye-Ang):
   XX=           -101.5132   YY=            -99.8139   ZZ=           -106.0823
   XY=            -22.3198   XZ=             -5.1081   YZ=             -1.3175

 Normal termination of Gaussian 16 at Thu May  6 01:42:47 2021.
