 Gaussian 16, Revision A.03,
 Gaussian 16:  EM64L-G16RevA.03 25-Dec-2016

 -------------
 #p 6-31g* mp2
 -------------

 ------------------------------------------------------
 Input file generated by CHIRIPA (05-May-2021 14:51:08)
 ------------------------------------------------------
 Symbolic Z-matrix:
 Charge =  0 Multiplicity = 1

                         Standard orientation:
 ---------------------------------------------------------------------
 Center     Atomic      Atomic             Coordinates (Angstroms)
 Number     Number       Type             X           Y           Z
 ---------------------------------------------------------------------
      1          6           0        3.922034    0.031710   -0.216753
      2          6           0        4.043703   -1.448240   -0.581348
      3          6           0        5.406681   -2.036961   -0.215983
      4          1           0        4.715119    0.594977   -0.727332
      5          1           0        4.097473    0.152216    0.861251
      6          1           0        3.866720   -1.566090   -1.658105
      7          1           0        3.250119   -2.008023   -0.069993
      8          1           0        5.588553   -1.948649    0.859993
      9          1           0        6.208658   -1.504205   -0.737142
     10          1           0        5.471900   -3.095769   -0.485302
     11          6           0        2.565060    0.634530   -0.575863
     12          6           0        2.443391    2.114480   -0.211268
     13          6           0        1.080413    2.703200   -0.576633
     14          1           0        2.389622    0.514023   -1.653868
     15          1           0        1.771976    0.071262   -0.065284
     16          1           0        3.236976    2.674262   -0.722623
     17          1           0        2.620374    2.232330    0.865488
     18          1           0        0.278436    2.170445   -0.055475
     19          1           0        0.898541    2.614889   -1.652610
     20          1           0        1.015194    3.762008   -0.307315
     21          6           0       -3.057327   -0.182994    1.121716
     22          6           0       -1.562025   -0.328037    1.406352
     23          6           0       -1.205127   -0.024435    2.861771
     24          1           0       -3.374586    0.838312    1.373163
     25          1           0       -3.616865   -0.856483    1.785586
     26          1           0       -1.005390    0.344512    0.741182
     27          1           0       -1.248249   -1.349060    1.154016
     28          1           0       -1.734657   -0.703381    3.537959
     29          1           0       -1.490418    0.999813    3.122779
     30          1           0       -0.131385   -0.134203    3.043124
     31          6           0       -3.429767   -0.483245   -0.329099
     32          6           0       -4.925070   -0.338203   -0.613736
     33          6           0       -5.281967   -0.641805   -2.069154
     34          1           0       -2.870229    0.190243   -0.992970
     35          1           0       -3.112509   -1.504552   -0.580547
     36          1           0       -5.238846    0.682820   -0.361400
     37          1           0       -5.481704   -1.010752    0.051434
     38          1           0       -4.996676   -1.666053   -2.330162
     39          1           0       -4.752437    0.037142   -2.745343
     40          1           0       -6.355709   -0.532038   -2.250507
 ---------------------------------------------------------------------

 SCF Done:  E(RHF) =  -470.733307926     A.U. after   11 cycles
 E2 =    -0.1583033769D+01 EUMP2 =    -0.47231634169535D+03

 The electronic state is 1-A.
 Alpha  occ. eigenvalues --  -11.21640 -11.21608 -11.21599 -11.21594 -11.21419
 Alpha  occ. eigenvalues --  -11.21395 -11.21355 -11.21334 -11.21130 -11.21093
 Alpha  occ. eigenvalues --  -11.21067 -11.21065  -1.08456  -1.08421  -1.03570
 Alpha  occ. eigenvalues --   -1.03520  -0.96003  -0.95982  -0.87022  -0.86996
 Alpha  occ. eigenvalues --   -0.79672  -0.79551  -0.78309  -0.78187  -0.65159
 Alpha  occ. eigenvalues --   -0.64994  -0.61103  -0.60805  -0.59403  -0.59314
 Alpha  occ. eigenvalues --   -0.57619  -0.57586  -0.55342  -0.55221  -0.52698
 Alpha  occ. eigenvalues --   -0.52679  -0.52445  -0.52397  -0.50019  -0.49870
 Alpha  occ. eigenvalues --   -0.48079  -0.47829  -0.46836  -0.46474  -0.45957
 Alpha  occ. eigenvalues --   -0.45762  -0.45731  -0.45411  -0.43804  -0.43784
 Alpha virt. eigenvalues --    0.20506   0.23021   0.23682   0.24953   0.25927
 Alpha virt. eigenvalues --    0.26381   0.27106   0.27504   0.28437   0.29035
 Alpha virt. eigenvalues --    0.30564   0.31471   0.31697   0.31801   0.32008

 Mulliken charges:
               1
     1  C   -0.298220
     2  C   -0.299646
     3  C   -0.475704
     4  H    0.149652
     5  H    0.149371
     6  H    0.151960
     7  H    0.152012
     8  H    0.155150
     9  H    0.155167
    10  H    0.160221
    11  C   -0.301728
    12  C   -0.299055
    13  C   -0.482753
    14  H    0.149404
    15  H    0.153359
    16  H    0.152015
    17  H    0.151938
    18  H    0.161143
    19  H    0.155130
    20  H    0.160464
    21  C   -0.297726
    22  C   -0.310276
    23  C   -0.475679
    24  H    0.149779
    25  H    0.149666
    26  H    0.160905
    27  H    0.152176
    28  H    0.155723
    29  H    0.155500
    30  H    0.159609
    31  C   -0.298628
    32  C   -0.299687
    33  C   -0.475744
    34  H    0.150133
    35  H    0.149698
    36  H    0.152054
    37  H    0.151861
    38  H    0.155153
    39  H    0.155367
    40  H    0.160237
 Sum of Mulliken charges =  -0.00000

 Dipole moment (field-independent basis, Debye):
    X=             -0.0140    Y=             -0.0022    Z=             -0.0024  Tot=              0.0144
 Quadrupole moment (field-independent basis, Debye-Ang):
   XX=            -85.6949   YY=            -84.1214   ZZ=            -84.9469
   XY=              0.6746   XZ=             -0.9885   YZ=             -0.5471

 Normal termination of Gaussian 16 at Wed May  5 16:36:17 2021.
