 Gaussian 16, Revision A.03,
 Gaussian 16:  EM64L-G16RevA.03 25-Dec-2016

 -------------
 #p 6-31g* mp2
 -------------

 ------------------------------------------------------
 Input file generated by CHIRIPA (05-May-2021 14:55:23)
 ------------------------------------------------------
 Symbolic Z-matrix:
 Charge =  0 Multiplicity = 1

                         Standard orientation:
 ---------------------------------------------------------------------
 Center     Atomic      Atomic             Coordinates (Angstroms)
 Number     Number       Type             X           Y           Z
 ---------------------------------------------------------------------
      1          6           0        0.625419   -1.254809    0.740029
      2          6           0        1.508749   -2.081683    0.038223
      3          6           0        2.782788   -1.624660   -0.311781
      4          6           0        3.142232   -0.329437    0.057659
      5          6           0        2.284655    0.518317    0.757063
      6          6           0        1.015504    0.040268    1.096580
      7          1           0       -0.362387   -1.618002    1.007847
      8          1           0        1.208505   -3.087911   -0.239992
      9          1           0        3.486492   -2.243692   -0.854937
     10          1           0        2.612418    1.516594    1.020565
     11          1           0        0.331580    0.684641    1.641627
     12          7           0        4.488413    0.165522   -0.307323
     13          8           0        4.781052    1.310652    0.029837
     14          8           0        5.225421   -0.601031   -0.923645
     15          6           0       -4.367904    0.202698   -0.437422
     16          6           0       -4.765315   -1.089148    0.277549
     17          6           0       -6.027217   -1.724297   -0.307244
     18          1           0       -5.200359    0.917275   -0.379604
     19          1           0       -4.211961   -0.009876   -1.504141
     20          1           0       -4.919114   -0.874474    1.342855
     21          1           0       -3.931745   -1.800664    0.218188
     22          1           0       -5.881831   -1.966689   -1.364934
     23          1           0       -6.874810   -1.035236   -0.233877
     24          1           0       -6.293211   -2.646516    0.218704
     25          6           0       -3.108231    0.849493    0.135821
     26          6           0       -2.710820    2.141339   -0.579150
     27          6           0       -1.448917    2.776488    0.005642
     28          1           0       -3.264173    1.062067    1.202540
     29          1           0       -2.275776    0.134916    0.078003
     30          1           0       -3.544389    2.852855   -0.519789
     31          1           0       -2.557020    1.926665   -1.644456
     32          1           0       -0.601324    2.087427   -0.067724
     33          1           0       -1.594303    3.018879    1.063333
     34          1           0       -1.182923    3.698706   -0.520305
 ---------------------------------------------------------------------

 SCF Done:  E(RHF) =  -669.534965921     A.U. after   15 cycles
 E2 =    -0.2092952061D+01 EUMP2 =    -0.67162791798159D+03

 The electronic state is 1-A.
 Alpha  occ. eigenvalues --  -20.60777 -20.60772 -15.85830 -11.31218 -11.27782
 Alpha  occ. eigenvalues --  -11.27767 -11.27507 -11.26805 -11.26739 -11.22419
 Alpha  occ. eigenvalues --  -11.22340 -11.22282 -11.22139 -11.21763 -11.21723
 Alpha  occ. eigenvalues --   -1.59852  -1.39404  -1.19391  -1.09238  -1.08777
 Alpha  occ. eigenvalues --   -1.04800  -1.04276  -0.96736  -0.95609  -0.87758
 Alpha  occ. eigenvalues --   -0.86186  -0.82442  -0.80360  -0.79089  -0.77479
 Alpha  occ. eigenvalues --   -0.72047  -0.71175  -0.70488  -0.65877  -0.65036
 Alpha  occ. eigenvalues --   -0.64793  -0.62187  -0.61635  -0.60086  -0.58360
 Alpha  occ. eigenvalues --   -0.56058  -0.55265  -0.53394  -0.53334  -0.53077
 Alpha  occ. eigenvalues --   -0.52761  -0.50660  -0.48826  -0.48802  -0.48631
 Alpha  occ. eigenvalues --   -0.47379  -0.46605  -0.46525  -0.44805  -0.44546
 Alpha  occ. eigenvalues --   -0.37346  -0.36349
 Alpha virt. eigenvalues --    0.05002   0.11155   0.16348   0.20064   0.22497
 Alpha virt. eigenvalues --    0.23359   0.24954   0.26064   0.26533   0.28570
 Alpha virt. eigenvalues --    0.29506   0.30807   0.31038   0.31454   0.31681

 Mulliken charges:
               1
     1  C   -0.174443
     2  C   -0.218917
     3  C   -0.170830
     4  C    0.158930
     5  C   -0.172684
     6  C   -0.219585
     7  H    0.227684
     8  H    0.223571
     9  H    0.275726
    10  H    0.276555
    11  H    0.230315
    12  N    0.488070
    13  O   -0.460037
    14  O   -0.460402
    15  C   -0.298445
    16  C   -0.299311
    17  C   -0.476071
    18  H    0.153008
    19  H    0.152049
    20  H    0.152380
    21  H    0.145433
    22  H    0.156609
    23  H    0.157568
    24  H    0.161305
    25  C   -0.303288
    26  C   -0.298118
    27  C   -0.486202
    28  H    0.147962
    29  H    0.144510
    30  H    0.154847
    31  H    0.155648
    32  H    0.159110
    33  H    0.151037
    34  H    0.166015
 Sum of Mulliken charges =  -0.00000

 Dipole moment (field-independent basis, Debye):
    X=             -4.8459    Y=             -1.7080    Z=              1.2140  Tot=              5.2795
 Quadrupole moment (field-independent basis, Debye-Ang):
   XX=           -124.7967   YY=            -89.8321   ZZ=            -93.9771
   XY=             -5.8697   XZ=              2.8942   YZ=              1.7487

 Normal termination of Gaussian 16 at Wed May  5 22:19:22 2021.
