 Gaussian 16, Revision A.03,
 Gaussian 16:  EM64L-G16RevA.03 25-Dec-2016

 -------------
 #p 6-31g* mp2
 -------------

 ------------------------------------------------------
 Input file generated by CHIRIPA (05-May-2021 14:55:19)
 ------------------------------------------------------
 Symbolic Z-matrix:
 Charge =  0 Multiplicity = 1

                         Standard orientation:
 ---------------------------------------------------------------------
 Center     Atomic      Atomic             Coordinates (Angstroms)
 Number     Number       Type             X           Y           Z
 ---------------------------------------------------------------------
      1          6           0       -6.324451    0.689443    0.406865
      2          6           0       -5.337188    1.662473    0.219662
      3          6           0       -4.023865    1.292074   -0.084534
      4          6           0       -3.731546   -0.066506   -0.194528
      5          6           0       -4.693042   -1.059543   -0.013715
      6          6           0       -5.999799   -0.666070    0.289786
      7          1           0       -7.342122    0.986140    0.642901
      8          1           0       -5.586437    2.715927    0.309971
      9          1           0       -3.240025    2.024553   -0.234492
     10          1           0       -4.414232   -2.101833   -0.110226
     11          1           0       -6.764473   -1.423919    0.434643
     12          7           0       -2.344665   -0.470845   -0.516198
     13          8           0       -2.112753   -1.674379   -0.607628
     14          8           0       -1.515801    0.423425   -0.670803
     15          6           0        5.638218    0.305492   -0.226222
     16          6           0        7.025414   -0.038416    0.317285
     17          6           0        8.153868    0.580306   -0.508287
     18          1           0        5.563731   -0.037919   -1.267118
     19          1           0        5.521183    1.397834   -0.248331
     20          1           0        7.139280   -1.129814    0.339661
     21          1           0        7.096541    0.305683    1.357070
     22          1           0        8.068283    1.671689   -0.520806
     23          1           0        8.111265    0.228036   -1.543995
     24          1           0        9.136741    0.321717   -0.102146
     25          6           0        4.499691   -0.305835    0.588494
     26          6           0        3.112495    0.038074    0.044988
     27          6           0        1.984041   -0.580648    0.870560
     28          1           0        4.616725   -1.398176    0.610605
     29          1           0        4.574178    0.037577    1.629391
     30          1           0        3.041368   -0.306026   -0.994797
     31          1           0        2.998628    1.129472    0.022612
     32          1           0        2.026643   -0.228378    1.906268
     33          1           0        2.069626   -1.672032    0.883079
     34          1           0        1.001167   -0.322059    0.464419
 ---------------------------------------------------------------------

 SCF Done:  E(RHF) =  -669.536626328     A.U. after   15 cycles
 E2 =    -0.2090943809D+01 EUMP2 =    -0.67162757013705D+03

 The electronic state is 1-A.
 Alpha  occ. eigenvalues --  -20.61026 -20.61010 -15.86031 -11.31329 -11.27885
 Alpha  occ. eigenvalues --  -11.27882 -11.27619 -11.26886 -11.26876 -11.20960
 Alpha  occ. eigenvalues --  -11.20581 -11.20538 -11.20378 -11.20270 -11.19329
 Alpha  occ. eigenvalues --   -1.60065  -1.39622  -1.19491  -1.08901  -1.07497
 Alpha  occ. eigenvalues --   -1.04883  -1.02502  -0.95747  -0.94938  -0.86285
 Alpha  occ. eigenvalues --   -0.85960  -0.82581  -0.78613  -0.77638  -0.77271
 Alpha  occ. eigenvalues --   -0.72245  -0.71373  -0.70600  -0.65147  -0.64886
 Alpha  occ. eigenvalues --   -0.64142  -0.62230  -0.59917  -0.58356  -0.56514
 Alpha  occ. eigenvalues --   -0.55388  -0.54256  -0.53217  -0.52974  -0.51602
 Alpha  occ. eigenvalues --   -0.51379  -0.49005  -0.48974  -0.48922  -0.46887
 Alpha  occ. eigenvalues --   -0.45683  -0.45039  -0.44806  -0.44731  -0.42710
 Alpha  occ. eigenvalues --   -0.37468  -0.36482
 Alpha virt. eigenvalues --    0.04866   0.11174   0.16366   0.21312   0.23726
 Alpha virt. eigenvalues --    0.25431   0.27232   0.27523   0.28183   0.28382
 Alpha virt. eigenvalues --    0.29139   0.30865   0.32357   0.32411   0.32615

 Mulliken charges:
               1
     1  C   -0.170456
     2  C   -0.218586
     3  C   -0.170618
     4  C    0.158527
     5  C   -0.170628
     6  C   -0.218617
     7  H    0.226128
     8  H    0.223957
     9  H    0.275962
    10  H    0.276017
    11  H    0.223960
    12  N    0.488597
    13  O   -0.458015
    14  O   -0.459784
    15  C   -0.297405
    16  C   -0.298855
    17  C   -0.475168
    18  H    0.149215
    19  H    0.147879
    20  H    0.151159
    21  H    0.150484
    22  H    0.154154
    23  H    0.154709
    24  H    0.158181
    25  C   -0.297232
    26  C   -0.297496
    27  C   -0.487665
    28  H    0.147945
    29  H    0.146398
    30  H    0.153263
    31  H    0.148856
    32  H    0.144660
    33  H    0.151438
    34  H    0.189034
 Sum of Mulliken charges =  -0.00000

 Dipole moment (field-independent basis, Debye):
    X=             -5.3257    Y=              1.4124    Z=              1.0426  Tot=              5.6076
 Quadrupole moment (field-independent basis, Debye-Ang):
   XX=            -60.5518   YY=            -89.8006   ZZ=            -96.2248
   XY=             -3.9647   XZ=             -3.2685   YZ=              0.2538

 Normal termination of Gaussian 16 at Wed May  5 22:05:49 2021.
