 Gaussian 16, Revision A.03,
 Gaussian 16:  EM64L-G16RevA.03 25-Dec-2016

 -------------
 #p 6-31g* mp2
 -------------

 ------------------------------------------------------
 Input file generated by CHIRIPA (05-May-2021 14:53:12)
 ------------------------------------------------------
 Symbolic Z-matrix:
 Charge =  0 Multiplicity = 1

                         Standard orientation:
 ---------------------------------------------------------------------
 Center     Atomic      Atomic             Coordinates (Angstroms)
 Number     Number       Type             X           Y           Z
 ---------------------------------------------------------------------
      1          6           0        3.914667   -0.060263    0.015858
      2          6           0        3.734152   -1.160633    1.062083
      3          6           0        4.936067   -2.102245    1.143080
      4          1           0        4.087698   -0.521567   -0.966081
      5          1           0        4.818735    0.517283    0.253550
      6          1           0        2.829930   -1.735061    0.823272
      7          1           0        3.561340   -0.696656    2.041613
      8          1           0        5.843098   -1.547549    1.404247
      9          1           0        5.107533   -2.591854    0.178983
     10          1           0        4.785771   -2.881121    1.897152
     11          6           0        2.721414    0.889086   -0.076933
     12          6           0        2.901929    1.989456   -1.123158
     13          6           0        1.700014    2.931068   -1.204155
     14          1           0        1.817346    0.311540   -0.314624
     15          1           0        2.548383    1.350390    0.905006
     16          1           0        3.074741    1.525479   -2.102688
     17          1           0        3.806151    2.563884   -0.884346
     18          1           0        1.528548    3.420677   -0.240058
     19          1           0        0.792983    2.376373   -1.465321
     20          1           0        1.850310    3.709944   -1.958226
     21          6           0       -3.462455    1.692913    1.265487
     22          6           0       -2.099238    1.586916    0.970655
     23          6           0       -1.605938    0.474001    0.283179
     24          6           0       -2.508088   -0.518723   -0.096179
     25          6           0       -3.871728   -0.441998    0.182905
     26          6           0       -4.342797    0.679905    0.871366
     27          1           0       -3.837028    2.560943    1.799917
     28          1           0       -1.413237    2.372100    1.275504
     29          1           0       -0.555376    0.366456    0.041992
     30          1           0       -4.531162   -1.240848   -0.133959
     31          1           0       -5.401992    0.759553    1.098979
     32          7           0       -1.997620   -1.701674   -0.824500
     33          8           0       -2.813022   -2.562639   -1.147759
     34          8           0       -0.791781   -1.745505   -1.058309
 ---------------------------------------------------------------------

 SCF Done:  E(RHF) =  -669.536009780     A.U. after   15 cycles
 E2 =    -0.2092064949D+01 EUMP2 =    -0.67162807472897D+03

 The electronic state is 1-A.
 Alpha  occ. eigenvalues --  -20.60812 -20.60805 -15.85858 -11.31164 -11.27739
 Alpha  occ. eigenvalues --  -11.27690 -11.27471 -11.26750 -11.26719 -11.21798
 Alpha  occ. eigenvalues --  -11.21565 -11.21526 -11.21359 -11.21278 -11.20810
 Alpha  occ. eigenvalues --   -1.59881  -1.39438  -1.19337  -1.08745  -1.08466
 Alpha  occ. eigenvalues --   -1.04730  -1.03559  -0.96042  -0.95588  -0.87061
 Alpha  occ. eigenvalues --   -0.86135  -0.82419  -0.79648  -0.78295  -0.77454
 Alpha  occ. eigenvalues --   -0.72080  -0.71200  -0.70455  -0.65121  -0.64989
 Alpha  occ. eigenvalues --   -0.64698  -0.62095  -0.60928  -0.59423  -0.57647
 Alpha  occ. eigenvalues --   -0.55343  -0.55238  -0.53070  -0.52865  -0.52709
 Alpha  occ. eigenvalues --   -0.52458  -0.49986  -0.48838  -0.48829  -0.47955
 Alpha  occ. eigenvalues --   -0.46649  -0.45807  -0.45667  -0.44854  -0.43813
 Alpha  occ. eigenvalues --   -0.37322  -0.36326
 Alpha virt. eigenvalues --    0.05035   0.11302   0.16526   0.20003   0.23113
 Alpha virt. eigenvalues --    0.24005   0.25215   0.26439   0.27458   0.28286
 Alpha virt. eigenvalues --    0.30106   0.30389   0.31524   0.31741   0.32304

 Mulliken charges:
               1
     1  C   -0.296313
     2  C   -0.302982
     3  C   -0.475866
     4  H    0.154449
     5  H    0.148296
     6  H    0.162033
     7  H    0.147991
     8  H    0.153034
     9  H    0.157610
    10  H    0.160758
    11  C   -0.312139
    12  C   -0.298510
    13  C   -0.479757
    14  H    0.161325
    15  H    0.143733
    16  H    0.157635
    17  H    0.152789
    18  H    0.148488
    19  H    0.154575
    20  H    0.163952
    21  C   -0.170380
    22  C   -0.223925
    23  C   -0.179221
    24  C    0.155975
    25  C   -0.169724
    26  C   -0.219136
    27  H    0.225619
    28  H    0.225515
    29  H    0.291999
    30  H    0.275442
    31  H    0.223338
    32  N    0.487181
    33  O   -0.459713
    34  O   -0.464072
 Sum of Mulliken charges =  -0.00000

 Dipole moment (field-independent basis, Debye):
    X=             -1.7256    Y=              4.0700    Z=              2.4781  Tot=              5.0679
 Quadrupole moment (field-independent basis, Debye-Ang):
   XX=            -81.6551   YY=            -99.2623   ZZ=            -95.5568
   XY=             -7.0362   XZ=             -6.4098   YZ=             -1.1039

 Normal termination of Gaussian 16 at Thu May  6 17:00:47 2021.
