 Gaussian 16, Revision A.03,
 Gaussian 16:  EM64L-G16RevA.03 25-Dec-2016

 -------------
 #p 6-31g* mp2
 -------------

 ------------------------------------------------------
 Input file generated by CHIRIPA (05-May-2021 14:57:26)
 ------------------------------------------------------
 Symbolic Z-matrix:
 Charge =  0 Multiplicity = 1

                         Standard orientation:
 ---------------------------------------------------------------------
 Center     Atomic      Atomic             Coordinates (Angstroms)
 Number     Number       Type             X           Y           Z
 ---------------------------------------------------------------------
      1          6           0       -2.589679    2.735676   -0.128312
      2          6           0       -2.140034    1.845395   -1.108996
      3          6           0       -2.401767    0.476476   -0.998967
      4          6           0       -3.119160    0.030273    0.109879
      5          6           0       -3.580520    0.892284    1.103546
      6          6           0       -3.307221    2.257123    0.972888
      7          1           0       -2.381866    3.797500   -0.221798
      8          1           0       -1.582551    2.214216   -1.965283
      9          1           0       -2.065462   -0.234807   -1.743543
     10          1           0       -4.133822    0.494812    1.945740
     11          1           0       -3.657657    2.946215    1.736034
     12          7           0       -3.402367   -1.416780    0.237282
     13          8           0       -4.036439   -1.784715    1.223798
     14          8           0       -2.984910   -2.155644   -0.651788
     15          6           0        5.045595    1.002620    0.836504
     16          6           0        4.721516   -0.257421    1.350111
     17          6           0        3.630458   -0.970867    0.845002
     18          6           0        2.881732   -0.391678   -0.178345
     19          6           0        3.179355    0.861732   -0.710955
     20          6           0        4.274839    1.557197   -0.190579
     21          1           0        5.894875    1.549857    1.234814
     22          1           0        5.318320   -0.690578    2.147760
     23          1           0        3.357274   -1.948112    1.224186
     24          1           0        2.565721    1.267552   -1.506054
     25          1           0        4.524186    2.535575   -0.591385
     26          7           0        1.724334   -1.137453   -0.721162
     27          8           0        1.080500   -0.605260   -1.622763
     28          8           0        1.482916   -2.240064   -0.234743
 ---------------------------------------------------------------------

 SCF Done:  E(RHF) =  -868.337861856     A.U. after   16 cycles
 E2 =    -0.2599729149D+01 EUMP2 =    -0.87093759100451D+03

 The electronic state is 1-A.
 Alpha  occ. eigenvalues --  -20.61015 -20.60951 -20.59756 -20.59682 -15.86029
 Alpha  occ. eigenvalues --  -15.84777 -11.31406 -11.30231 -11.28018 -11.27938
 Alpha  occ. eigenvalues --  -11.27716 -11.27017 -11.26963 -11.26932 -11.26727
 Alpha  occ. eigenvalues --  -11.26696 -11.25985 -11.25859  -1.60038  -1.58796
 Alpha  occ. eigenvalues --   -1.39599  -1.38342  -1.19577  -1.18458  -1.08967
 Alpha  occ. eigenvalues --   -1.07860  -1.04986  -1.03861  -0.95802  -0.94658
 Alpha  occ. eigenvalues --   -0.86382  -0.85270  -0.82642  -0.81478  -0.77687
 Alpha  occ. eigenvalues --   -0.76482  -0.72255  -0.71361  -0.70998  -0.70688
 Alpha  occ. eigenvalues --   -0.70119  -0.69585  -0.65234  -0.64989  -0.64112
 Alpha  occ. eigenvalues --   -0.63887  -0.62336  -0.61179  -0.55482  -0.54438
 Alpha  occ. eigenvalues --   -0.53310  -0.53080  -0.52220  -0.51960  -0.49014
 Alpha  occ. eigenvalues --   -0.48966  -0.47782  -0.47731  -0.45002  -0.43723
 Alpha  occ. eigenvalues --   -0.37555  -0.36590  -0.36510  -0.35453
 Alpha virt. eigenvalues --    0.04830   0.06060   0.11065   0.12175   0.16327
 Alpha virt. eigenvalues --    0.17478   0.21154   0.22222   0.27033   0.27743
 Alpha virt. eigenvalues --    0.28429   0.29185   0.30757   0.31673   0.32426

 Mulliken charges:
               1
     1  C   -0.172561
     2  C   -0.221254
     3  C   -0.163853
     4  C    0.154958
     5  C   -0.172019
     6  C   -0.220199
     7  H    0.219924
     8  H    0.221573
     9  H    0.290329
    10  H    0.272790
    11  H    0.218792
    12  N    0.488017
    13  O   -0.466769
    14  O   -0.451548
    15  C   -0.170796
    16  C   -0.218454
    17  C   -0.170404
    18  C    0.159167
    19  C   -0.170686
    20  C   -0.218513
    21  H    0.225982
    22  H    0.224777
    23  H    0.278190
    24  H    0.271014
    25  H    0.222267
    26  N    0.489108
    27  O   -0.469408
    28  O   -0.450423
 Sum of Mulliken charges =  -0.00000

 Dipole moment (field-independent basis, Debye):
    X=              5.3365    Y=              7.3777    Z=              1.3621  Tot=              9.2067
 Quadrupole moment (field-independent basis, Debye-Ang):
   XX=            -88.1068   YY=           -104.8199   ZZ=           -100.6715
   XY=            -10.7989   XZ=              5.5152   YZ=             -2.5607

 Normal termination of Gaussian 16 at Fri May  7 08:08:50 2021.
