 Gaussian 16, Revision A.03,
 Gaussian 16:  EM64L-G16RevA.03 25-Dec-2016

 -------------
 #p 6-31g* mp2
 -------------

 ------------------------------------------------------
 Input file generated by CHIRIPA (05-May-2021 14:55:20)
 ------------------------------------------------------
 Symbolic Z-matrix:
 Charge =  0 Multiplicity = 1

                         Standard orientation:
 ---------------------------------------------------------------------
 Center     Atomic      Atomic             Coordinates (Angstroms)
 Number     Number       Type             X           Y           Z
 ---------------------------------------------------------------------
      1          6           0       -3.794028   -1.952966   -0.141157
      2          6           0       -2.488228   -1.694990   -0.571105
      3          6           0       -1.972888   -0.395850   -0.536341
      4          6           0       -2.794690    0.626101   -0.063534
      5          6           0       -4.099729    0.400928    0.371738
      6          6           0       -4.594200   -0.906030    0.328064
      7          1           0       -4.186251   -2.965206   -0.171623
      8          1           0       -1.864531   -2.506100   -0.936000
      9          1           0       -0.965543   -0.168025   -0.863100
     10          1           0       -4.697515    1.230083    0.730308
     11          1           0       -5.608675   -1.103431    0.662606
     12          7           0       -2.260169    2.005580   -0.022016
     13          8           0       -3.004395    2.888528    0.398897
     14          8           0       -1.107107    2.177748   -0.411172
     15          6           0        4.437010   -0.380280    0.181879
     16          6           0        4.854813    1.042822   -0.189882
     17          6           0        6.352177    1.287743   -0.000911
     18          1           0        4.712848   -0.575329    1.227257
     19          1           0        5.006274   -1.093736   -0.429933
     20          1           0        4.283929    1.753420    0.421475
     21          1           0        4.577777    1.234571   -1.234438
     22          1           0        6.936250    0.601812   -0.622971
     23          1           0        6.640733    1.123609    1.042351
     24          1           0        6.628985    2.311213   -0.272476
     25          6           0        2.942921   -0.640510   -0.001714
     26          6           0        2.525118   -2.063612    0.370047
     27          6           0        1.027754   -2.308533    0.181076
     28          1           0        2.373658    0.072946    0.610098
     29          1           0        2.667084   -0.445461   -1.047092
     30          1           0        2.802155   -2.255362    1.414604
     31          1           0        3.096002   -2.774210   -0.241310
     32          1           0        0.739198   -2.144399   -0.862186
     33          1           0        0.443682   -1.622603    0.803136
     34          1           0        0.750946   -3.332003    0.452640
 ---------------------------------------------------------------------

 SCF Done:  E(RHF) =  -669.534738341     A.U. after   15 cycles
 E2 =    -0.2092504711D+01 EUMP2 =    -0.67162724305159D+03

 The electronic state is 1-A.
 Alpha  occ. eigenvalues --  -20.60716 -20.60711 -15.85766 -11.31089 -11.27667
 Alpha  occ. eigenvalues --  -11.27594 -11.27396 -11.26683 -11.26610 -11.21949
 Alpha  occ. eigenvalues --  -11.21812 -11.21446 -11.21394 -11.21321 -11.20885
 Alpha  occ. eigenvalues --   -1.59792  -1.39346  -1.19266  -1.08669  -1.08505
 Alpha  occ. eigenvalues --   -1.04672  -1.03673  -0.96174  -0.95505  -0.87216
 Alpha  occ. eigenvalues --   -0.86058  -0.82345  -0.79776  -0.78262  -0.77361
 Alpha  occ. eigenvalues --   -0.71985  -0.71116  -0.70380  -0.65134  -0.64917
 Alpha  occ. eigenvalues --   -0.64664  -0.62050  -0.61073  -0.59556  -0.57726
 Alpha  occ. eigenvalues --   -0.55476  -0.55168  -0.53138  -0.52951  -0.52622
 Alpha  occ. eigenvalues --   -0.52482  -0.50117  -0.48742  -0.48739  -0.48046
 Alpha  occ. eigenvalues --   -0.46757  -0.45812  -0.45690  -0.44758  -0.43897
 Alpha  occ. eigenvalues --   -0.37257  -0.36212
 Alpha virt. eigenvalues --    0.05113   0.11351   0.16567   0.20622   0.22857
 Alpha virt. eigenvalues --    0.24024   0.25845   0.26846   0.27182   0.28276
 Alpha virt. eigenvalues --    0.29531   0.30204   0.31274   0.31549   0.31912

 Mulliken charges:
               1
     1  C   -0.171511
     2  C   -0.218708
     3  C   -0.173305
     4  C    0.157513
     5  C   -0.171358
     6  C   -0.218754
     7  H    0.225132
     8  H    0.227405
     9  H    0.278761
    10  H    0.275060
    11  H    0.222927
    12  N    0.488249
    13  O   -0.460792
    14  O   -0.460948
    15  C   -0.298603
    16  C   -0.300407
    17  C   -0.475990
    18  H    0.149631
    19  H    0.148226
    20  H    0.156897
    21  H    0.153341
    22  H    0.153816
    23  H    0.154678
    24  H    0.161648
    25  C   -0.301450
    26  C   -0.299604
    27  C   -0.483214
    28  H    0.157380
    29  H    0.149493
    30  H    0.154522
    31  H    0.152243
    32  H    0.145261
    33  H    0.163262
    34  H    0.159196
 Sum of Mulliken charges =  -0.00000

 Dipole moment (field-independent basis, Debye):
    X=             -1.7575    Y=             -4.8006    Z=             -0.0865  Tot=              5.1129
 Quadrupole moment (field-independent basis, Debye-Ang):
   XX=            -81.6322   YY=           -101.0887   ZZ=            -93.9042
   XY=             10.8137   XZ=             -1.4858   YZ=              1.1079

 Normal termination of Gaussian 16 at Thu May  6 17:27:50 2021.
