 Gaussian 16, Revision A.03,
 Gaussian 16:  EM64L-G16RevA.03 25-Dec-2016

 -------------
 #p 6-31g* mp2
 -------------

 ------------------------------------------------------
 Input file generated by CHIRIPA (05-May-2021 14:55:21)
 ------------------------------------------------------
 Symbolic Z-matrix:
 Charge =  0 Multiplicity = 1

                         Standard orientation:
 ---------------------------------------------------------------------
 Center     Atomic      Atomic             Coordinates (Angstroms)
 Number     Number       Type             X           Y           Z
 ---------------------------------------------------------------------
      1          6           0       -2.878411    2.271790    0.869695
      2          6           0       -3.690051    1.134990    0.795870
      3          6           0       -3.267305    0.005462    0.088763
      4          6           0       -2.021519    0.047423   -0.535374
      5          6           0       -1.190089    1.164991   -0.480082
      6          6           0       -1.633216    2.283142    0.232606
      7          1           0       -3.214727    3.144815    1.421160
      8          1           0       -4.657563    1.123339    1.289660
      9          1           0       -3.875554   -0.887893    0.015498
     10          1           0       -0.230660    1.146733   -0.982656
     11          1           0       -1.000780    3.164603    0.288251
     12          7           0       -1.563189   -1.142335   -1.286911
     13          8           0       -0.461399   -1.080148   -1.828048
     14          8           0       -2.314418   -2.114527   -1.320599
     15          6           0        2.993881    0.376058    0.406114
     16          6           0        4.161120    0.350799   -0.581257
     17          6           0        4.770081    1.734136   -0.812211
     18          1           0        2.220486    1.060953    0.032317
     19          1           0        3.341207    0.789245    1.363211
     20          1           0        3.812031   -0.063503   -1.535775
     21          1           0        4.931742   -0.334262   -0.205160
     22          1           0        5.145132    2.151761    0.127750
     23          1           0        4.019058    2.424058   -1.210426
     24          1           0        5.602762    1.692930   -1.521297
     25          6           0        2.374587   -0.999444    0.647356
     26          6           0        1.207349   -0.974185    1.634727
     27          6           0        0.598387   -2.357521    1.865682
     28          1           0        2.027260   -1.412630   -0.309741
     29          1           0        3.147982   -1.684338    1.021154
     30          1           0        0.436726   -0.289124    1.258631
     31          1           0        1.556437   -0.559882    2.589246
     32          1           0        1.349410   -3.047443    2.263896
     33          1           0        0.223335   -2.775146    0.925720
     34          1           0       -0.234295   -2.316314    2.574768
 ---------------------------------------------------------------------

 SCF Done:  E(RHF) =  -669.535157832     A.U. after   15 cycles
 E2 =    -0.2095203313D+01 EUMP2 =    -0.67163036114501D+03

 The electronic state is 1-A.
 Alpha  occ. eigenvalues --  -20.61007 -20.61002 -15.86025 -11.31304 -11.27877
 Alpha  occ. eigenvalues --  -11.27864 -11.27608 -11.26872 -11.26863 -11.21353
 Alpha  occ. eigenvalues --  -11.21224 -11.21124 -11.20990 -11.20728 -11.20528
 Alpha  occ. eigenvalues --   -1.60062  -1.39619  -1.19494  -1.08894  -1.08074
 Alpha  occ. eigenvalues --   -1.04886  -1.03197  -0.95748  -0.95646  -0.86662
 Alpha  occ. eigenvalues --   -0.86285  -0.82579  -0.79277  -0.77886  -0.77636
 Alpha  occ. eigenvalues --   -0.72255  -0.71410  -0.70603  -0.65157  -0.64957
 Alpha  occ. eigenvalues --   -0.64612  -0.62217  -0.60600  -0.59030  -0.57266
 Alpha  occ. eigenvalues --   -0.55384  -0.54946  -0.53254  -0.52966  -0.52346
 Alpha  occ. eigenvalues --   -0.52065  -0.49601  -0.49007  -0.48998  -0.47591
 Alpha  occ. eigenvalues --   -0.46321  -0.45515  -0.45362  -0.44837  -0.43435
 Alpha  occ. eigenvalues --   -0.37423  -0.36411
 Alpha virt. eigenvalues --    0.04823   0.11103   0.16309   0.20317   0.23071
 Alpha virt. eigenvalues --    0.24526   0.25695   0.27427   0.27918   0.28169
 Alpha virt. eigenvalues --    0.29602   0.31147   0.31649   0.32063   0.32227

 Mulliken charges:
               1
     1  C   -0.170262
     2  C   -0.218528
     3  C   -0.170352
     4  C    0.162078
     5  C   -0.178122
     6  C   -0.217950
     7  H    0.226358
     8  H    0.224028
     9  H    0.276090
    10  H    0.280688
    11  H    0.224574
    12  N    0.489650
    13  O   -0.461588
    14  O   -0.458523
    15  C   -0.295886
    16  C   -0.300910
    17  C   -0.474838
    18  H    0.136618
    19  H    0.146892
    20  H    0.158535
    21  H    0.152867
    22  H    0.153569
    23  H    0.150541
    24  H    0.161103
    25  C   -0.306469
    26  C   -0.304976
    27  C   -0.481491
    28  H    0.173094
    29  H    0.147467
    30  H    0.150558
    31  H    0.147113
    32  H    0.154982
    33  H    0.167393
    34  H    0.155698
 Sum of Mulliken charges =  -0.00000

 Dipole moment (field-independent basis, Debye):
    X=             -1.7565    Y=              4.0584    Z=              2.4828  Tot=              5.0715
 Quadrupole moment (field-independent basis, Debye-Ang):
   XX=            -84.5377   YY=            -94.4206   ZZ=            -97.8825
   XY=             -7.4105   XZ=             -5.4013   YZ=             -2.3309

 Normal termination of Gaussian 16 at Thu May  6 03:00:14 2021.
