 Gaussian 16, Revision A.03,
 Gaussian 16:  EM64L-G16RevA.03 25-Dec-2016

 -------------
 #p 6-31g* mp2
 -------------

 ------------------------------------------------------
 Input file generated by CHIRIPA (05-May-2021 14:55:24)
 ------------------------------------------------------
 Symbolic Z-matrix:
 Charge =  0 Multiplicity = 1

                         Standard orientation:
 ---------------------------------------------------------------------
 Center     Atomic      Atomic             Coordinates (Angstroms)
 Number     Number       Type             X           Y           Z
 ---------------------------------------------------------------------
      1          6           0       -1.302662    1.846517    1.178102
      2          6           0       -1.035638    0.563367    1.666719
      3          6           0       -1.707575   -0.547749    1.148576
      4          6           0       -2.644491   -0.338340    0.137821
      5          6           0       -2.932558    0.927570   -0.369899
      6          6           0       -2.248602    2.024209    0.163142
      7          1           0       -0.776017    2.704035    1.586395
      8          1           0       -0.301522    0.422374    2.454906
      9          1           0       -1.520288   -1.552171    1.508405
     10          1           0       -3.669767    1.036572   -1.156067
     11          1           0       -2.458013    3.019562   -0.218257
     12          7           0       -3.362203   -1.506966   -0.418599
     13          8           0       -4.183063   -1.295844   -1.308685
     14          8           0       -3.090294   -2.611929    0.045900
     15          6           0        3.687543   -0.239035    0.149150
     16          6           0        4.100117   -1.561278   -0.498493
     17          6           0        5.008245   -2.401548    0.399864
     18          1           0        4.589343    0.335485    0.401395
     19          1           0        3.174425   -0.447945    1.098076
     20          1           0        4.611080   -1.349986   -1.446589
     21          1           0        3.197224   -2.132633   -0.749399
     22          1           0        4.503591   -2.641365    1.341360
     23          1           0        5.925480   -1.854270    0.640208
     24          1           0        5.291061   -3.342309   -0.082676
     25          6           0        2.779539    0.612120   -0.736737
     26          6           0        2.366965    1.934363   -0.089094
     27          6           0        1.458837    2.774633   -0.987451
     28          1           0        3.292657    0.821031   -1.685663
     29          1           0        1.877739    0.037600   -0.988981
     30          1           0        3.269857    2.505719    0.161812
     31          1           0        1.856002    1.723071    0.859002
     32          1           0        0.541601    2.227355   -1.227795
     33          1           0        1.963491    3.014450   -1.928947
     34          1           0        1.176021    3.715394   -0.504911
 ---------------------------------------------------------------------

 SCF Done:  E(RHF) =  -669.535027141     A.U. after   15 cycles
 E2 =    -0.2093415589D+01 EUMP2 =    -0.67162844272970D+03

 The electronic state is 1-A.
 Alpha  occ. eigenvalues --  -20.60824 -20.60818 -15.85880 -11.31263 -11.27857
 Alpha  occ. eigenvalues --  -11.27844 -11.27576 -11.26858 -11.26829 -11.22225
 Alpha  occ. eigenvalues --  -11.21887 -11.21826 -11.21770 -11.21648 -11.21316
 Alpha  occ. eigenvalues --   -1.59900  -1.39453  -1.19455  -1.08915  -1.08794
 Alpha  occ. eigenvalues --   -1.04858  -1.03970  -0.96425  -0.95658  -0.87438
 Alpha  occ. eigenvalues --   -0.86247  -0.82495  -0.80044  -0.78672  -0.77540
 Alpha  occ. eigenvalues --   -0.72097  -0.71225  -0.70558  -0.65528  -0.65099
 Alpha  occ. eigenvalues --   -0.64837  -0.62200  -0.61390  -0.59810  -0.58034
 Alpha  occ. eigenvalues --   -0.55774  -0.55307  -0.53211  -0.53076  -0.52940
 Alpha  occ. eigenvalues --   -0.52793  -0.50340  -0.48857  -0.48850  -0.48352
 Alpha  occ. eigenvalues --   -0.47078  -0.46217  -0.46127  -0.44855  -0.44231
 Alpha  occ. eigenvalues --   -0.37352  -0.36448
 Alpha virt. eigenvalues --    0.04981   0.11069   0.16422   0.20050   0.22781
 Alpha virt. eigenvalues --    0.24037   0.25346   0.26601   0.26658   0.28349
 Alpha virt. eigenvalues --    0.28860   0.30373   0.31046   0.31319   0.32128

 Mulliken charges:
               1
     1  C   -0.165572
     2  C   -0.219184
     3  C   -0.171820
     4  C    0.158049
     5  C   -0.171548
     6  C   -0.219927
     7  H    0.227900
     8  H    0.223832
     9  H    0.275876
    10  H    0.276156
    11  H    0.224803
    12  N    0.488147
    13  O   -0.460133
    14  O   -0.460400
    15  C   -0.297369
    16  C   -0.300570
    17  C   -0.475746
    18  H    0.149969
    19  H    0.144324
    20  H    0.153329
    21  H    0.154454
    22  H    0.154099
    23  H    0.155059
    24  H    0.162498
    25  C   -0.299479
    26  C   -0.298258
    27  C   -0.480870
    28  H    0.151657
    29  H    0.153607
    30  H    0.152599
    31  H    0.142481
    32  H    0.163412
    33  H    0.158122
    34  H    0.150505
 Sum of Mulliken charges =  -0.00000

 Dipole moment (field-independent basis, Debye):
    X=              2.5081    Y=              4.0544    Z=              1.8882  Tot=              5.1278
 Quadrupole moment (field-independent basis, Debye-Ang):
   XX=           -107.0772   YY=            -96.6486   ZZ=            -92.8581
   XY=            -13.0758   XZ=             -3.9919   YZ=             -2.0265

 Normal termination of Gaussian 16 at Wed May  5 19:10:26 2021.
