 Gaussian 16, Revision A.03,
 Gaussian 16:  EM64L-G16RevA.03 25-Dec-2016

 -------------
 #p 6-31g* mp2
 -------------

 ------------------------------------------------------
 Input file generated by CHIRIPA (05-May-2021 14:57:22)
 ------------------------------------------------------
 Symbolic Z-matrix:
 Charge =  0 Multiplicity = 1

                         Standard orientation:
 ---------------------------------------------------------------------
 Center     Atomic      Atomic             Coordinates (Angstroms)
 Number     Number       Type             X           Y           Z
 ---------------------------------------------------------------------
      1          6           0       -2.690956    2.482905    0.611758
      2          6           0       -3.875920    1.781648    0.857968
      3          6           0       -4.042534    0.478809    0.379010
      4          6           0       -2.999015   -0.094781   -0.345803
      5          6           0       -1.806533    0.578085   -0.607581
      6          6           0       -1.661859    1.879949   -0.118943
      7          1           0       -2.570048    3.494603    0.987584
      8          1           0       -4.676814    2.247400    1.425143
      9          1           0       -4.949416   -0.086859    0.555082
     10          1           0       -1.025902    0.087340   -1.176091
     11          1           0       -0.740502    2.422167   -0.311676
     12          7           0       -3.163788   -1.473522   -0.857979
     13          8           0       -2.229470   -1.956516   -1.493905
     14          8           0       -4.224136   -2.045077   -0.613798
     15          6           0        1.348765   -1.277982    1.816785
     16          6           0        2.539570   -1.915914    1.454087
     17          6           0        3.446239   -1.290664    0.592948
     18          6           0        3.128773   -0.021707    0.111020
     19          6           0        1.950574    0.639770    0.453926
     20          6           0        1.058580   -0.004420    1.316429
     21          1           0        0.650143   -1.771049    2.486268
     22          1           0        2.767553   -2.904985    1.841136
     23          1           0        4.375379   -1.761685    0.295871
     24          1           0        1.750934    1.625651    0.051929
     25          1           0        0.134547    0.493400    1.596398
     26          7           0        4.080855    0.650244   -0.801351
     27          8           0        3.777846    1.768260   -1.212279
     28          8           0        5.112081    0.046179   -1.088263
 ---------------------------------------------------------------------

 SCF Done:  E(RHF) =  -868.336165578     A.U. after   16 cycles
 E2 =    -0.2602788188D+01 EUMP2 =    -0.87093895376538D+03

 The electronic state is 1-A.
 Alpha  occ. eigenvalues --  -20.61361 -20.61353 -20.61056 -20.61032 -15.86420
 Alpha  occ. eigenvalues --  -15.86098 -11.31898 -11.31475 -11.28503 -11.28486
 Alpha  occ. eigenvalues --  -11.28290 -11.28104 -11.27936 -11.27641 -11.27549
 Alpha  occ. eigenvalues --  -11.27486 -11.26948 -11.26930  -1.60439  -1.60119
 Alpha  occ. eigenvalues --   -1.39985  -1.39675  -1.20135  -1.19603  -1.09487
 Alpha  occ. eigenvalues --   -1.08977  -1.05595  -1.04984  -0.96287  -0.95832
 Alpha  occ. eigenvalues --   -0.86920  -0.86400  -0.83165  -0.82642  -0.78196
 Alpha  occ. eigenvalues --   -0.77694  -0.72628  -0.72316  -0.71776  -0.71441
 Alpha  occ. eigenvalues --   -0.71180  -0.70703  -0.65771  -0.65559  -0.65235
 Alpha  occ. eigenvalues --   -0.65015  -0.62976  -0.62268  -0.56004  -0.55472
 Alpha  occ. eigenvalues --   -0.54078  -0.53621  -0.53274  -0.52890  -0.49403
 Alpha  occ. eigenvalues --   -0.49376  -0.49083  -0.49061  -0.45362  -0.45081
 Alpha  occ. eigenvalues --   -0.38146  -0.37644  -0.37276  -0.36312
 Alpha virt. eigenvalues --    0.04318   0.04839   0.10172   0.11237   0.15664
 Alpha virt. eigenvalues --    0.16419   0.19533   0.21865   0.24748   0.27582
 Alpha virt. eigenvalues --    0.27892   0.28645   0.30357   0.31334   0.31732

 Mulliken charges:
               1
     1  C   -0.171458
     2  C   -0.219551
     3  C   -0.170451
     4  C    0.156482
     5  C   -0.171081
     6  C   -0.234016
     7  H    0.229434
     8  H    0.226269
     9  H    0.277790
    10  H    0.282408
    11  H    0.226853
    12  N    0.487613
    13  O   -0.457540
    14  O   -0.459480
    15  C   -0.169559
    16  C   -0.215913
    17  C   -0.170228
    18  C    0.161954
    19  C   -0.183856
    20  C   -0.221738
    21  H    0.228758
    22  H    0.226443
    23  H    0.277126
    24  H    0.266886
    25  H    0.229802
    26  N    0.488375
    27  O   -0.463802
    28  O   -0.457519
 Sum of Mulliken charges =  -0.00000

 Dipole moment (field-independent basis, Debye):
    X=             -2.8809    Y=              2.2719    Z=              5.0398  Tot=              6.2338
 Quadrupole moment (field-independent basis, Debye-Ang):
   XX=           -123.0049   YY=           -103.1478   ZZ=           -105.7892
   XY=            -25.2775   XZ=              2.2505   YZ=             -2.6814

 Normal termination of Gaussian 16 at Thu May  6 04:55:43 2021.
