 Gaussian 16, Revision A.03,
 Gaussian 16:  EM64L-G16RevA.03 25-Dec-2016

 -------------
 #p 6-31g* mp2
 -------------

 ------------------------------------------------------
 Input file generated by CHIRIPA (05-May-2021 14:55:20)
 ------------------------------------------------------
 Symbolic Z-matrix:
 Charge =  0 Multiplicity = 1

                         Standard orientation:
 ---------------------------------------------------------------------
 Center     Atomic      Atomic             Coordinates (Angstroms)
 Number     Number       Type             X           Y           Z
 ---------------------------------------------------------------------
      1          6           0       -5.295734    2.009081    0.110789
      2          6           0       -3.928599    2.271642   -0.025316
      3          6           0       -3.009213    1.221996   -0.112041
      4          6           0       -3.493907   -0.083971   -0.059036
      5          6           0       -4.849886   -0.377831    0.076089
      6          6           0       -5.751211    0.687513    0.160968
      7          1           0       -6.002920    2.830569    0.177442
      8          1           0       -3.572012    3.296996   -0.064564
      9          1           0       -1.945412    1.396794   -0.217832
     10          1           0       -5.175244   -1.410425    0.112280
     11          1           0       -6.812379    0.480621    0.266624
     12          7           0       -2.530155   -1.203494   -0.149871
     13          8           0       -2.982588   -2.345213   -0.100697
     14          8           0       -1.340581   -0.918058   -0.268522
     15          6           0        3.945579   -0.294147    0.208889
     16          6           0        3.592702   -1.761735   -0.035337
     17          6           0        2.128982   -2.077202    0.274176
     18          1           0        3.727693   -0.040486    1.255372
     19          1           0        3.294371    0.339970   -0.408541
     20          1           0        4.245317   -2.392946    0.581332
     21          1           0        3.811633   -2.011982   -1.081312
     22          1           0        1.464046   -1.472074   -0.350550
     23          1           0        1.900195   -1.855203    1.321541
     24          1           0        1.898494   -3.131622    0.092696
     25          6           0        5.405449    0.036766   -0.096082
     26          6           0        5.758326    1.504354    0.148145
     27          6           0        7.222046    1.819821   -0.161369
     28          1           0        6.056657   -0.597351    0.521348
     29          1           0        5.623335   -0.216894   -1.142565
     30          1           0        5.539395    1.754602    1.194119
     31          1           0        5.105711    2.135565   -0.468525
     32          1           0        7.450833    1.597822   -1.208733
     33          1           0        7.886982    1.214693    0.463357
     34          1           0        7.452534    2.874241    0.020112
 ---------------------------------------------------------------------

 SCF Done:  E(RHF) =  -669.535745680     A.U. after   15 cycles
 E2 =    -0.2090698101D+01 EUMP2 =    -0.67162644378098D+03

 The electronic state is 1-A.
 Alpha  occ. eigenvalues --  -20.60863 -20.60857 -15.85909 -11.31256 -11.27823
 Alpha  occ. eigenvalues --  -11.27819 -11.27565 -11.26837 -11.26827 -11.21173
 Alpha  occ. eigenvalues --  -11.20790 -11.20728 -11.20594 -11.20500 -11.19427
 Alpha  occ. eigenvalues --   -1.59929  -1.39485  -1.19427  -1.08826  -1.07706
 Alpha  occ. eigenvalues --   -1.04828  -1.02701  -0.95666  -0.95112  -0.86229
 Alpha  occ. eigenvalues --   -0.86118  -0.82498  -0.78797  -0.77556  -0.77466
 Alpha  occ. eigenvalues --   -0.72132  -0.71248  -0.70536  -0.65083  -0.64831
 Alpha  occ. eigenvalues --   -0.64348  -0.62175  -0.60102  -0.58571  -0.56722
 Alpha  occ. eigenvalues --   -0.55331  -0.54397  -0.53158  -0.52921  -0.51791
 Alpha  occ. eigenvalues --   -0.51531  -0.49148  -0.48880  -0.48790  -0.47066
 Alpha  occ. eigenvalues --   -0.45849  -0.45018  -0.44915  -0.44876  -0.42963
 Alpha  occ. eigenvalues --   -0.37408  -0.36431
 Alpha virt. eigenvalues --    0.04989   0.11224   0.16483   0.21347   0.23522
 Alpha virt. eigenvalues --    0.25184   0.27262   0.27330   0.28066   0.28249
 Alpha virt. eigenvalues --    0.29004   0.30909   0.32177   0.32370   0.32597

 Mulliken charges:
               1
     1  C   -0.170715
     2  C   -0.218529
     3  C   -0.170814
     4  C    0.157583
     5  C   -0.170582
     6  C   -0.218585
     7  H    0.225833
     8  H    0.223690
     9  H    0.275508
    10  H    0.275824
    11  H    0.223673
    12  N    0.493360
    13  O   -0.459352
    14  O   -0.464240
    15  C   -0.296807
    16  C   -0.300865
    17  C   -0.476437
    18  H    0.147589
    19  H    0.148338
    20  H    0.147107
    21  H    0.148873
    22  H    0.175457
    23  H    0.150366
    24  H    0.159401
    25  C   -0.297461
    26  C   -0.298819
    27  C   -0.475213
    28  H    0.148506
    29  H    0.148724
    30  H    0.150695
    31  H    0.150156
    32  H    0.154717
    33  H    0.154851
    34  H    0.158167
 Sum of Mulliken charges =  -0.00000

 Dipole moment (field-independent basis, Debye):
    X=             -3.7092    Y=              3.9141    Z=              0.2857  Tot=              5.4000
 Quadrupole moment (field-independent basis, Debye-Ang):
   XX=            -70.6834   YY=            -93.8500   ZZ=            -94.8632
   XY=            -11.3437   XZ=             -0.9445   YZ=             -0.6367

 Normal termination of Gaussian 16 at Wed May  5 23:45:33 2021.
