 Gaussian 16, Revision A.03,
 Gaussian 16:  EM64L-G16RevA.03 25-Dec-2016

 -------------
 #p 6-31g* mp2
 -------------

 ------------------------------------------------------
 Input file generated by CHIRIPA (05-May-2021 14:57:20)
 ------------------------------------------------------
 Symbolic Z-matrix:
 Charge =  0 Multiplicity = 1

                         Standard orientation:
 ---------------------------------------------------------------------
 Center     Atomic      Atomic             Coordinates (Angstroms)
 Number     Number       Type             X           Y           Z
 ---------------------------------------------------------------------
      1          6           0       -2.607655    2.441874    0.820994
      2          6           0       -3.639300    2.144037   -0.075401
      3          6           0       -3.939169    0.817004   -0.397283
      4          6           0       -3.183799   -0.191892    0.198399
      5          6           0       -2.149831    0.072787    1.095140
      6          6           0       -1.867518    1.407123    1.402378
      7          1           0       -2.381528    3.475582    1.065352
      8          1           0       -4.215760    2.945599   -0.528432
      9          1           0       -4.732438    0.558136   -1.088029
     10          1           0       -1.592684   -0.747742    1.530728
     11          1           0       -1.065764    1.635461    2.098867
     12          7           0       -3.491965   -1.600628   -0.134612
     13          8           0       -2.811711   -2.471320    0.403706
     14          8           0       -4.407924   -1.807428   -0.927638
     15          6           0        5.485151   -0.375188    0.595948
     16          6           0        4.522765   -1.371755    0.788784
     17          6           0        3.216409   -1.196986    0.322483
     18          6           0        2.905614   -0.007909   -0.335384
     19          6           0        3.842170    1.003570   -0.542899
     20          6           0        5.142388    0.807210   -0.068106
     21          1           0        6.497576   -0.519338    0.961480
     22          1           0        4.786120   -2.291040    1.304151
     23          1           0        2.451691   -1.952107    0.458192
     24          1           0        3.549716    1.909214   -1.060296
     25          1           0        5.887728    1.582875   -0.219289
     26          7           0        1.525882    0.188541   -0.833529
     27          8           0        1.277340    1.245193   -1.410027
     28          8           0        0.719117   -0.717855   -0.638046
 ---------------------------------------------------------------------

 SCF Done:  E(RHF) =  -868.338040210     A.U. after   16 cycles
 E2 =    -0.2600132206D+01 EUMP2 =    -0.87093817241591D+03

 The electronic state is 1-A.
 Alpha  occ. eigenvalues --  -20.61114 -20.61098 -20.59591 -20.59570 -15.86135
 Alpha  occ. eigenvalues --  -15.84637 -11.31472 -11.29850 -11.28048 -11.28005
 Alpha  occ. eigenvalues --  -11.27761 -11.27044 -11.27012 -11.26525 -11.26468
 Alpha  occ. eigenvalues --  -11.26303 -11.25515 -11.25497  -1.60175  -1.58651
 Alpha  occ. eigenvalues --   -1.39730  -1.38212  -1.19640  -1.18060  -1.09041
 Alpha  occ. eigenvalues --   -1.07499  -1.05031  -1.03484  -0.95880  -0.94354
 Alpha  occ. eigenvalues --   -0.86430  -0.84904  -0.82707  -0.81218  -0.77762
 Alpha  occ. eigenvalues --   -0.76256  -0.72360  -0.71512  -0.70883  -0.70736
 Alpha  occ. eigenvalues --   -0.69943  -0.69246  -0.65288  -0.65025  -0.63762
 Alpha  occ. eigenvalues --   -0.63555  -0.62372  -0.60867  -0.55528  -0.54061
 Alpha  occ. eigenvalues --   -0.53375  -0.53115  -0.51780  -0.51635  -0.49117
 Alpha  occ. eigenvalues --   -0.49090  -0.47631  -0.47619  -0.45141  -0.43653
 Alpha  occ. eigenvalues --   -0.37627  -0.36637  -0.36033  -0.35003
 Alpha virt. eigenvalues --    0.04718   0.06349   0.11016   0.12622   0.16253
 Alpha virt. eigenvalues --    0.17804   0.21187   0.22478   0.27102   0.27964
 Alpha virt. eigenvalues --    0.28394   0.29395   0.30781   0.31860   0.32377

 Mulliken charges:
               1
     1  C   -0.166339
     2  C   -0.218575
     3  C   -0.169622
     4  C    0.159418
     5  C   -0.149542
     6  C   -0.218544
     7  H    0.220457
     8  H    0.218562
     9  H    0.271972
    10  H    0.272794
    11  H    0.215162
    12  N    0.489636
    13  O   -0.461777
    14  O   -0.465505
    15  C   -0.170708
    16  C   -0.218661
    17  C   -0.172628
    18  C    0.156660
    19  C   -0.171833
    20  C   -0.218657
    21  H    0.226592
    22  H    0.225397
    23  H    0.278912
    24  H    0.274775
    25  H    0.223770
    26  N    0.487443
    27  O   -0.460653
    28  O   -0.458505
 Sum of Mulliken charges =  -0.00000

 Dipole moment (field-independent basis, Debye):
    X=              6.2250    Y=              4.1457    Z=              2.8634  Tot=              8.0086
 Quadrupole moment (field-independent basis, Debye-Ang):
   XX=            -82.0628   YY=           -103.2566   ZZ=           -104.5194
   XY=            -18.1744   XZ=              2.2859   YZ=             -2.1240

 Normal termination of Gaussian 16 at Wed May  5 22:30:49 2021.
