 Gaussian 16, Revision A.03,
 Gaussian 16:  EM64L-G16RevA.03 25-Dec-2016

 -------------
 #p 6-31g* mp2
 -------------

 ------------------------------------------------------
 Input file generated by CHIRIPA (05-May-2021 14:53:11)
 ------------------------------------------------------
 Symbolic Z-matrix:
 Charge =  0 Multiplicity = 1

                         Standard orientation:
 ---------------------------------------------------------------------
 Center     Atomic      Atomic             Coordinates (Angstroms)
 Number     Number       Type             X           Y           Z
 ---------------------------------------------------------------------
      1          6           0        2.921022    0.933487   -0.002795
      2          6           0        2.243846    2.154152   -0.626810
      3          6           0        2.561501    3.451392    0.117540
      4          1           0        2.605459    0.843027    1.045624
      5          1           0        4.008138    1.092839    0.010632
      6          1           0        1.158431    1.991955   -0.640319
      7          1           0        2.560908    2.241606   -1.673920
      8          1           0        3.639887    3.640290    0.119446
      9          1           0        2.229441    3.389221    1.158920
     10          1           0        2.067279    4.311220   -0.345384
     11          6           0        2.613017   -0.370958   -0.735790
     12          6           0        3.290193   -1.591623   -0.111774
     13          6           0        2.972537   -2.888862   -0.856125
     14          1           0        1.525901   -0.530310   -0.749217
     15          1           0        2.928580   -0.280498   -1.784209
     16          1           0        2.973131   -1.679076    0.935336
     17          1           0        4.375608   -1.429425   -0.098266
     18          1           0        3.304598   -2.826691   -1.897505
     19          1           0        1.894152   -3.077761   -0.858030
     20          1           0        3.466760   -3.748691   -0.393201
     21          6           0       -4.149629    0.651606   -0.997941
     22          6           0       -3.353716    1.532495   -0.258293
     23          6           0       -2.249832    1.060821    0.458302
     24          6           0       -1.969552   -0.303977    0.412879
     25          6           0       -2.743461   -1.206695   -0.314755
     26          6           0       -3.842503   -0.712772   -1.023765
     27          1           0       -5.005272    1.026656   -1.551664
     28          1           0       -3.589856    2.592592   -0.236416
     29          1           0       -1.616829    1.720656    1.039114
     30          1           0       -2.483003   -2.258158   -0.317370
     31          1           0       -4.458855   -1.399200   -1.597326
     32          7           0       -0.803482   -0.815094    1.167492
     33          8           0       -0.577715   -2.021951    1.111271
     34          8           0       -0.137363    0.000828    1.800890
 ---------------------------------------------------------------------

 SCF Done:  E(RHF) =  -669.536756653     A.U. after   15 cycles
 E2 =    -0.2093522522D+01 EUMP2 =    -0.67163027917439D+03

 The electronic state is 1-A.
 Alpha  occ. eigenvalues --  -20.61139 -20.61133 -15.86127 -11.31388 -11.27936
 Alpha  occ. eigenvalues --  -11.27932 -11.27657 -11.26926 -11.26916 -11.20916
 Alpha  occ. eigenvalues --  -11.20541 -11.20362 -11.20296 -11.20218 -11.19895
 Alpha  occ. eigenvalues --   -1.60178  -1.39735  -1.19544  -1.08963  -1.07391
 Alpha  occ. eigenvalues --   -1.04927  -1.02567  -0.95816  -0.95028  -0.86331
 Alpha  occ. eigenvalues --   -0.86061  -0.82652  -0.78653  -0.77716  -0.77204
 Alpha  occ. eigenvalues --   -0.72361  -0.71522  -0.70650  -0.65202  -0.64929
 Alpha  occ. eigenvalues --   -0.63949  -0.62274  -0.59943  -0.58441  -0.56647
 Alpha  occ. eigenvalues --   -0.55433  -0.54295  -0.53257  -0.53016  -0.51779
 Alpha  occ. eigenvalues --   -0.51478  -0.49137  -0.49116  -0.48961  -0.46990
 Alpha  occ. eigenvalues --   -0.45642  -0.45164  -0.44765  -0.44537  -0.42805
 Alpha  occ. eigenvalues --   -0.37514  -0.36518
 Alpha virt. eigenvalues --    0.04746   0.11070   0.16209   0.21075   0.23604
 Alpha virt. eigenvalues --    0.25039   0.26849   0.27340   0.28315   0.28605
 Alpha virt. eigenvalues --    0.28982   0.31066   0.31329   0.32476   0.32687

 Mulliken charges:
               1
     1  C   -0.302709
     2  C   -0.297009
     3  C   -0.476431
     4  H    0.170395
     5  H    0.143934
     6  H    0.145087
     7  H    0.147502
     8  H    0.154822
     9  H    0.157998
    10  H    0.153558
    11  C   -0.293445
    12  C   -0.300235
    13  C   -0.477378
    14  H    0.143807
    15  H    0.142532
    16  H    0.167631
    17  H    0.145508
    18  H    0.147182
    19  H    0.162730
    20  H    0.157295
    21  C   -0.170225
    22  C   -0.218528
    23  C   -0.171016
    24  C    0.156627
    25  C   -0.170539
    26  C   -0.218398
    27  H    0.226484
    28  H    0.224493
    29  H    0.276656
    30  H    0.276063
    31  H    0.224301
    32  N    0.488980
    33  O   -0.458452
    34  O   -0.459222
 Sum of Mulliken charges =  -0.00000

 Dipole moment (field-independent basis, Debye):
    X=             -4.3630    Y=              1.6831    Z=             -2.3926  Tot=              5.2530
 Quadrupole moment (field-independent basis, Debye-Ang):
   XX=            -78.6833   YY=            -93.1986   ZZ=            -97.1627
   XY=             -1.4104   XZ=              4.3554   YZ=              2.6759

 Normal termination of Gaussian 16 at Wed May  5 16:57:44 2021.
