 Gaussian 16, Revision A.03,
 Gaussian 16:  EM64L-G16RevA.03 25-Dec-2016

 -------------
 #p 6-31g* mp2
 -------------

 ------------------------------------------------------
 Input file generated by CHIRIPA (05-May-2021 14:57:25)
 ------------------------------------------------------
 Symbolic Z-matrix:
 Charge =  0 Multiplicity = 1

                         Standard orientation:
 ---------------------------------------------------------------------
 Center     Atomic      Atomic             Coordinates (Angstroms)
 Number     Number       Type             X           Y           Z
 ---------------------------------------------------------------------
      1          6           0       -6.007461    0.987940    0.185231
      2          6           0       -4.812438    1.711474    0.255515
      3          6           0       -3.580810    1.062186    0.128766
      4          6           0       -3.581153   -0.317838   -0.068272
      5          6           0       -4.754752   -1.066445   -0.142728
      6          6           0       -5.974861   -0.396270   -0.013316
      7          1           0       -6.959745    1.500435    0.284727
      8          1           0       -4.834720    2.786553    0.409637
      9          1           0       -2.640636    1.597853    0.179268
     10          1           0       -4.700552   -2.137259   -0.297123
     11          1           0       -6.901356   -0.960742   -0.068309
     12          7           0       -2.283381   -1.016266   -0.203865
     13          8           0       -2.310689   -2.232810   -0.376816
     14          8           0       -1.263452   -0.333926   -0.134624
     15          6           0        2.999546    2.591443   -0.118851
     16          6           0        4.350786    2.288462   -0.316013
     17          6           0        4.802761    0.968475   -0.227120
     18          6           0        3.871947   -0.028203    0.061855
     19          6           0        2.519278    0.241865    0.263448
     20          6           0        2.089708    1.568981    0.169742
     21          1           0        2.657144    3.619610   -0.189775
     22          1           0        5.059628    3.080483   -0.540271
     23          1           0        5.843204    0.705857   -0.375207
     24          1           0        1.836372   -0.569128    0.485593
     25          1           0        1.039727    1.801339    0.323337
     26          7           0        4.338573   -1.429389    0.158510
     27          8           0        3.498514   -2.289339    0.414284
     28          8           0        5.535537   -1.641153   -0.023336
 ---------------------------------------------------------------------

 SCF Done:  E(RHF) =  -868.339270276     A.U. after   15 cycles
 E2 =    -0.2599149680D+01 EUMP2 =    -0.87093841995611D+03

 The electronic state is 1-A.
 Alpha  occ. eigenvalues --  -20.61534 -20.61470 -20.59790 -20.59754 -15.86540
 Alpha  occ. eigenvalues --  -15.84822 -11.31755 -11.30117 -11.28359 -11.28259
 Alpha  occ. eigenvalues --  -11.27998 -11.27303 -11.27245 -11.26793 -11.26547
 Alpha  occ. eigenvalues --  -11.26506 -11.25835 -11.25625  -1.60547  -1.58854
 Alpha  occ. eigenvalues --   -1.40114  -1.38405  -1.19905  -1.18316  -1.09322
 Alpha  occ. eigenvalues --   -1.07755  -1.05291  -1.03680  -0.96187  -0.94580
 Alpha  occ. eigenvalues --   -0.86695  -0.85109  -0.83038  -0.81388  -0.78104
 Alpha  occ. eigenvalues --   -0.76419  -0.72774  -0.71850  -0.71044  -0.71015
 Alpha  occ. eigenvalues --   -0.70178  -0.69453  -0.65567  -0.65292  -0.63966
 Alpha  occ. eigenvalues --   -0.63697  -0.62648  -0.60985  -0.55785  -0.54281
 Alpha  occ. eigenvalues --   -0.53619  -0.53384  -0.52066  -0.51772  -0.49526
 Alpha  occ. eigenvalues --   -0.49468  -0.47815  -0.47785  -0.45549  -0.43823
 Alpha  occ. eigenvalues --   -0.37865  -0.36884  -0.36370  -0.35283
 Alpha virt. eigenvalues --    0.04439   0.06075   0.10774   0.12344   0.15963
 Alpha virt. eigenvalues --    0.17544   0.20524   0.22334   0.25915   0.27174
 Alpha virt. eigenvalues --    0.28808   0.29295   0.30507   0.31373   0.32942

 Mulliken charges:
               1
     1  C   -0.170090
     2  C   -0.218124
     3  C   -0.169620
     4  C    0.158843
     5  C   -0.169913
     6  C   -0.218274
     7  H    0.227480
     8  H    0.223619
     9  H    0.268793
    10  H    0.278081
    11  H    0.225870
    12  N    0.493506
    13  O   -0.450850
    14  O   -0.475935
    15  C   -0.171983
    16  C   -0.219603
    17  C   -0.172166
    18  C    0.157064
    19  C   -0.171985
    20  C   -0.221176
    21  H    0.219254
    22  H    0.218651
    23  H    0.272200
    24  H    0.292906
    25  H    0.227651
    26  N    0.487653
    27  O   -0.456222
    28  O   -0.465628
 Sum of Mulliken charges =  -0.00000

 Dipole moment (field-independent basis, Debye):
    X=             -6.8177    Y=              7.1004    Z=              0.1486  Tot=              9.8448
 Quadrupole moment (field-independent basis, Debye-Ang):
   XX=            -80.1695   YY=           -103.3656   ZZ=           -106.4402
   XY=             15.5348   XZ=             -3.5065   YZ=              0.2838

 Normal termination of Gaussian 16 at Thu May  6 11:25:19 2021.
