 Gaussian 16, Revision A.03,
 Gaussian 16:  EM64L-G16RevA.03 25-Dec-2016

 -------------
 #p 6-31g* mp2
 -------------

 ------------------------------------------------------
 Input file generated by CHIRIPA (05-May-2021 14:57:23)
 ------------------------------------------------------
 Symbolic Z-matrix:
 Charge =  0 Multiplicity = 1

                         Standard orientation:
 ---------------------------------------------------------------------
 Center     Atomic      Atomic             Coordinates (Angstroms)
 Number     Number       Type             X           Y           Z
 ---------------------------------------------------------------------
      1          6           0        1.212213   -2.131627    0.859549
      2          6           0        1.577622   -2.044945   -0.487850
      3          6           0        2.396827   -1.004378   -0.935815
      4          6           0        2.834511   -0.063518   -0.004952
      5          6           0        2.487723   -0.122706    1.343945
      6          6           0        1.667626   -1.171923    1.769542
      7          1           0        0.575489   -2.943325    1.198850
      8          1           0        1.225427   -2.788847   -1.196802
      9          1           0        2.694961   -0.913291   -1.973234
     10          1           0        2.854456    0.633781    2.027066
     11          1           0        1.385443   -1.236729    2.816546
     12          7           0        3.702239    1.042662   -0.467352
     13          8           0        4.074628    1.858958    0.372662
     14          8           0        3.993543    1.072445   -1.661041
     15          6           0       -2.761823    2.720294    0.416598
     16          6           0       -2.529141    1.809028    1.451959
     17          6           0       -2.488063    0.435737    1.193247
     18          6           0       -2.684700    0.006608   -0.118421
     19          6           0       -2.918631    0.889700   -1.171377
     20          6           0       -2.955484    2.258536   -0.889463
     21          1           0       -2.792092    3.785370    0.626584
     22          1           0       -2.378400    2.164775    2.467226
     23          1           0       -2.309785   -0.291642    1.975906
     24          1           0       -3.065302    0.504928   -2.173303
     25          1           0       -3.136382    2.963943   -1.695517
     26          7           0       -2.643450   -1.444875   -0.404590
     27          8           0       -2.819722   -1.797488   -1.568733
     28          8           0       -2.435626   -2.202453    0.540674
 ---------------------------------------------------------------------

 SCF Done:  E(RHF) =  -868.340196011     A.U. after   16 cycles
 E2 =    -0.2599617213D+01 EUMP2 =    -0.87093981322376D+03

 The electronic state is 1-A.
 Alpha  occ. eigenvalues --  -20.61529 -20.61486 -20.60609 -20.60598 -15.86535
 Alpha  occ. eigenvalues --  -15.85656 -11.31613 -11.30856 -11.28191 -11.28131
 Alpha  occ. eigenvalues --  -11.27822 -11.27480 -11.27398 -11.27117 -11.27071
 Alpha  occ. eigenvalues --  -11.26961 -11.26397 -11.26243  -1.60572  -1.59687
 Alpha  occ. eigenvalues --   -1.40137  -1.39245  -1.19757  -1.19012  -1.09200
 Alpha  occ. eigenvalues --   -1.08395  -1.05126  -1.04399  -0.96088  -0.95258
 Alpha  occ. eigenvalues --   -0.86535  -0.85777  -0.82942  -0.82106  -0.78024
 Alpha  occ. eigenvalues --   -0.77213  -0.72781  -0.71892  -0.71864  -0.71013
 Alpha  occ. eigenvalues --   -0.70866  -0.69989  -0.65419  -0.65130  -0.64640
 Alpha  occ. eigenvalues --   -0.64368  -0.62490  -0.61752  -0.55624  -0.54746
 Alpha  occ. eigenvalues --   -0.53459  -0.53222  -0.52729  -0.52463  -0.49542
 Alpha  occ. eigenvalues --   -0.49499  -0.48641  -0.48616  -0.45607  -0.44689
 Alpha  occ. eigenvalues --   -0.37704  -0.36936  -0.36695  -0.36020
 Alpha virt. eigenvalues --    0.04474   0.05344   0.10912   0.11654   0.15988
 Alpha virt. eigenvalues --    0.16934   0.20995   0.22025   0.26873   0.27619
 Alpha virt. eigenvalues --    0.28046   0.29049   0.30738   0.31627   0.32068

 Mulliken charges:
               1
     1  C   -0.169096
     2  C   -0.223599
     3  C   -0.171877
     4  C    0.156992
     5  C   -0.172003
     6  C   -0.223577
     7  H    0.241025
     8  H    0.231386
     9  H    0.274737
    10  H    0.271854
    11  H    0.219672
    12  N    0.488172
    13  O   -0.463539
    14  O   -0.461409
    15  C   -0.168995
    16  C   -0.218215
    17  C   -0.168498
    18  C    0.159405
    19  C   -0.170297
    20  C   -0.217877
    21  H    0.228574
    22  H    0.223647
    23  H    0.270272
    24  H    0.275921
    25  H    0.226174
    26  N    0.489459
    27  O   -0.459037
    28  O   -0.469273
 Sum of Mulliken charges =  -0.00000

 Dipole moment (field-independent basis, Debye):
    X=             -3.4254    Y=              1.1832    Z=              2.5274  Tot=              4.4183
 Quadrupole moment (field-independent basis, Debye-Ang):
   XX=           -123.3989   YY=           -103.8749   ZZ=            -96.2261
   XY=            -25.5603   XZ=              3.1864   YZ=              0.2371

 Normal termination of Gaussian 16 at Wed May  5 22:40:19 2021.
