 Gaussian 16, Revision A.03,
 Gaussian 16:  EM64L-G16RevA.03 25-Dec-2016

 -------------
 #p 6-31g* mp2
 -------------

 ------------------------------------------------------
 Input file generated by CHIRIPA (05-May-2021 14:51:12)
 ------------------------------------------------------
 Symbolic Z-matrix:
 Charge =  0 Multiplicity = 1

                         Standard orientation:
 ---------------------------------------------------------------------
 Center     Atomic      Atomic             Coordinates (Angstroms)
 Number     Number       Type             X           Y           Z
 ---------------------------------------------------------------------
      1          6           0        4.290570   -0.198193    0.099080
      2          6           0        4.468829   -1.568477   -0.555543
      3          6           0        5.563640   -2.403360    0.109403
      4          1           0        5.243802    0.346567    0.059984
      5          1           0        4.052708   -0.335978    1.162956
      6          1           0        4.704921   -1.428176   -1.618177
      7          1           0        3.515010   -2.109962   -0.515054
      8          1           0        5.330936   -2.572735    1.165699
      9          1           0        6.527607   -1.887075    0.056308
     10          1           0        5.674172   -3.378897   -0.374302
     11          6           0        3.199640    0.648166   -0.554585
     12          6           0        3.021381    2.018450    0.100037
     13          6           0        1.926569    2.853333   -0.564908
     14          1           0        3.437502    0.785951   -1.618461
     15          1           0        2.246407    0.103406   -0.515489
     16          1           0        3.975199    2.559936    0.059549
     17          1           0        2.785289    1.878149    1.162671
     18          1           0        0.962602    2.337048   -0.511814
     19          1           0        2.159274    3.022708   -1.621204
     20          1           0        1.816037    3.828870   -0.081204
     21          6           0       -3.216382    0.182779    0.598712
     22          6           0       -1.830763   -0.463591    0.582852
     23          6           0       -0.783815    0.364010    1.329022
     24          1           0       -3.151937    1.184284    0.151745
     25          1           0       -3.534881    0.325405    1.640638
     26          1           0       -1.515563   -0.606223   -0.458744
     27          1           0       -1.898550   -1.463750    1.029735
     28          1           0       -1.071995    0.495414    2.377014
     29          1           0       -0.686832    1.357813    0.880078
     30          1           0        0.199273   -0.116437    1.305181
     31          6           0       -4.273828   -0.632752   -0.143207
     32          6           0       -5.659447    0.013618   -0.127347
     33          6           0       -6.706394   -0.813984   -0.873516
     34          1           0       -3.955328   -0.775379   -1.185132
     35          1           0       -4.338272   -1.634258    0.303761
     36          1           0       -5.591659    1.013776   -0.574228
     37          1           0       -5.974646    0.156249    0.914249
     38          1           0       -6.803377   -1.807787   -0.424573
     39          1           0       -6.418215   -0.945387   -1.921508
     40          1           0       -7.689483   -0.333536   -0.849676
 ---------------------------------------------------------------------

 SCF Done:  E(RHF) =  -470.733045521     A.U. after   11 cycles
 E2 =    -0.1583036720D+01 EUMP2 =    -0.47231608224021D+03

 The electronic state is 1-A.
 Alpha  occ. eigenvalues --  -11.21665 -11.21620 -11.21591 -11.21546 -11.21440
 Alpha  occ. eigenvalues --  -11.21379 -11.21377 -11.21314 -11.21138 -11.21084
 Alpha  occ. eigenvalues --  -11.21062 -11.20994  -1.08471  -1.08398  -1.03587
 Alpha  occ. eigenvalues --   -1.03484  -0.96039  -0.95938  -0.87055  -0.86959
 Alpha  occ. eigenvalues --   -0.79654  -0.79546  -0.78279  -0.78213  -0.65148
 Alpha  occ. eigenvalues --   -0.65003  -0.61131  -0.60770  -0.59397  -0.59300
 Alpha  occ. eigenvalues --   -0.57668  -0.57541  -0.55509  -0.55065  -0.52721
 Alpha  occ. eigenvalues --   -0.52642  -0.52511  -0.52315  -0.50141  -0.49721
 Alpha  occ. eigenvalues --   -0.47961  -0.47852  -0.46751  -0.46485  -0.45826
 Alpha  occ. eigenvalues --   -0.45761  -0.45722  -0.45654  -0.43818  -0.43752
 Alpha virt. eigenvalues --    0.20465   0.22987   0.23716   0.25013   0.26144
 Alpha virt. eigenvalues --    0.26359   0.27006   0.27417   0.27869   0.29313
 Alpha virt. eigenvalues --    0.30755   0.31574   0.31669   0.31782   0.32209

 Mulliken charges:
               1
     1  C   -0.298445
     2  C   -0.299563
     3  C   -0.475678
     4  H    0.149721
     5  H    0.149348
     6  H    0.151929
     7  H    0.151660
     8  H    0.155153
     9  H    0.155199
    10  H    0.160202
    11  C   -0.301632
    12  C   -0.299134
    13  C   -0.480736
    14  H    0.149329
    15  H    0.152565
    16  H    0.151694
    17  H    0.152929
    18  H    0.160511
    19  H    0.154504
    20  H    0.159704
    21  C   -0.298439
    22  C   -0.300399
    23  C   -0.482724
    24  H    0.149971
    25  H    0.149722
    26  H    0.152175
    27  H    0.152200
    28  H    0.155743
    29  H    0.160101
    30  H    0.161985
    31  C   -0.298356
    32  C   -0.299717
    33  C   -0.475739
    34  H    0.149694
    35  H    0.149682
    36  H    0.152097
    37  H    0.151958
    38  H    0.155183
    39  H    0.155260
    40  H    0.160344
 Sum of Mulliken charges =  -0.00000

 Dipole moment (field-independent basis, Debye):
    X=             -0.0354    Y=             -0.0023    Z=              0.0114  Tot=              0.0372
 Quadrupole moment (field-independent basis, Debye-Ang):
   XX=            -85.6043   YY=            -85.2029   ZZ=            -84.0102
   XY=              0.4852   XZ=             -1.3463   YZ=             -0.6435

 Normal termination of Gaussian 16 at Thu May  6 03:54:05 2021.
