 Gaussian 16, Revision A.03,
 Gaussian 16:  EM64L-G16RevA.03 25-Dec-2016

 -------------
 #p 6-31g* mp2
 -------------

 ------------------------------------------------------
 Input file generated by CHIRIPA (05-May-2021 14:57:27)
 ------------------------------------------------------
 Symbolic Z-matrix:
 Charge =  0 Multiplicity = 1

                         Standard orientation:
 ---------------------------------------------------------------------
 Center     Atomic      Atomic             Coordinates (Angstroms)
 Number     Number       Type             X           Y           Z
 ---------------------------------------------------------------------
      1          6           0        5.546084   -0.749536   -1.338378
      2          6           0        5.087121    0.571778   -1.339567
      3          6           0        4.054750    0.965576   -0.483015
      4          6           0        3.501614    0.007732    0.365434
      5          6           0        3.937094   -1.316293    0.389995
      6          6           0        4.970620   -1.687701   -0.475123
      7          1           0        6.348503   -1.046751   -2.007096
      8          1           0        5.532164    1.302509   -2.008907
      9          1           0        3.680204    1.981817   -0.463309
     10          1           0        3.473755   -2.022183    1.068563
     11          1           0        5.325041   -2.714551   -0.472038
     12          7           0        2.408078    0.412776    1.276762
     13          8           0        1.937396   -0.450114    2.014675
     14          8           0        2.042352    1.585471    1.235890
     15          6           0       -1.741373    1.667379   -0.332268
     16          6           0       -3.053737    2.150017   -0.368094
     17          6           0       -4.136591    1.268056   -0.303925
     18          6           0       -3.869439   -0.096466   -0.203922
     19          6           0       -2.573248   -0.608070   -0.165983
     20          6           0       -1.505733    0.292300   -0.231505
     21          1           0       -0.906143    2.359659   -0.382643
     22          1           0       -3.239733    3.217413   -0.446313
     23          1           0       -5.162593    1.614575   -0.329678
     24          1           0       -2.419392   -1.677465   -0.087629
     25          1           0       -0.487584   -0.085365   -0.203475
     26          7           0       -5.007689   -1.039903   -0.135273
     27          8           0       -4.745689   -2.237520   -0.047492
     28          8           0       -6.140298   -0.563888   -0.170546
 ---------------------------------------------------------------------

 SCF Done:  E(RHF) =  -868.339288648     A.U. after   16 cycles
 E2 =    -0.2598966071D+01 EUMP2 =    -0.87093825471947D+03

 The electronic state is 1-A.
 Alpha  occ. eigenvalues --  -20.61930 -20.61884 -20.60116 -20.60111 -15.86934
 Alpha  occ. eigenvalues --  -15.85165 -11.32059 -11.30358 -11.28609 -11.28572
 Alpha  occ. eigenvalues --  -11.28260 -11.27539 -11.27513 -11.26941 -11.26894
 Alpha  occ. eigenvalues --  -11.26523 -11.25895 -11.25818  -1.60991  -1.59195
 Alpha  occ. eigenvalues --   -1.40543  -1.38754  -1.20204  -1.18507  -1.09640
 Alpha  occ. eigenvalues --   -1.07911  -1.05560  -1.03892  -0.96512  -0.94779
 Alpha  occ. eigenvalues --   -0.86969  -0.85288  -0.83345  -0.81627  -0.78432
 Alpha  occ. eigenvalues --   -0.76720  -0.73140  -0.72338  -0.71387  -0.71291
 Alpha  occ. eigenvalues --   -0.70516  -0.69558  -0.65848  -0.65546  -0.64151
 Alpha  occ. eigenvalues --   -0.63885  -0.62907  -0.61255  -0.56051  -0.54322
 Alpha  occ. eigenvalues --   -0.53911  -0.53639  -0.52218  -0.51985  -0.49917
 Alpha  occ. eigenvalues --   -0.49873  -0.48151  -0.48129  -0.45989  -0.44199
 Alpha  occ. eigenvalues --   -0.38167  -0.37153  -0.36434  -0.35494
 Alpha virt. eigenvalues --    0.04045   0.05825   0.10503   0.12171   0.15583
 Alpha virt. eigenvalues --    0.17376   0.20686   0.22225   0.26637   0.27409
 Alpha virt. eigenvalues --    0.27921   0.29201   0.30433   0.31405   0.32068

 Mulliken charges:
               1
     1  C   -0.169621
     2  C   -0.218199
     3  C   -0.171658
     4  C    0.154659
     5  C   -0.171387
     6  C   -0.218240
     7  H    0.228899
     8  H    0.225781
     9  H    0.274111
    10  H    0.277364
    11  H    0.226870
    12  N    0.485113
    13  O   -0.456089
    14  O   -0.465031
    15  C   -0.168787
    16  C   -0.219579
    17  C   -0.171952
    18  C    0.157505
    19  C   -0.171962
    20  C   -0.212436
    21  H    0.232534
    22  H    0.220749
    23  H    0.272683
    24  H    0.273379
    25  H    0.222364
    26  N    0.488315
    27  O   -0.462475
    28  O   -0.462910
 Sum of Mulliken charges =  -0.00000

 Dipole moment (field-independent basis, Debye):
    X=              8.3580    Y=              1.8620    Z=             -3.4323  Tot=              9.2251
 Quadrupole moment (field-independent basis, Debye-Ang):
   XX=           -107.7176   YY=            -98.4433   ZZ=           -107.8323
   XY=            -21.3672   XZ=            -10.2713   YZ=             -3.4000

 Normal termination of Gaussian 16 at Thu May  6 18:10:45 2021.
