 Gaussian 16, Revision A.03,
 Gaussian 16:  EM64L-G16RevA.03 25-Dec-2016

 -------------
 #p 6-31g* mp2
 -------------

 ------------------------------------------------------
 Input file generated by CHIRIPA (05-May-2021 14:57:25)
 ------------------------------------------------------
 Symbolic Z-matrix:
 Charge =  0 Multiplicity = 1

                         Standard orientation:
 ---------------------------------------------------------------------
 Center     Atomic      Atomic             Coordinates (Angstroms)
 Number     Number       Type             X           Y           Z
 ---------------------------------------------------------------------
      1          6           0        6.181736    0.770436   -0.559338
      2          6           0        5.036746    1.335463   -1.130531
      3          6           0        3.765855    0.864761   -0.787275
      4          6           0        3.676344   -0.176987    0.134702
      5          6           0        4.798331   -0.760602    0.721071
      6          6           0        6.059091   -0.273952    0.363014
      7          1           0        7.165059    1.142283   -0.831736
      8          1           0        5.128971    2.146659   -1.847121
      9          1           0        2.862857    1.283951   -1.214231
     10          1           0        4.674544   -1.568075    1.432465
     11          1           0        6.946567   -0.714671    0.808208
     12          7           0        2.336272   -0.683740    0.505926
     13          8           0        2.284305   -1.602506    1.320668
     14          8           0        1.363265   -0.152571   -0.024879
     15          6           0       -3.899730   -2.355153   -0.681939
     16          6           0       -5.101923   -1.708373   -0.377096
     17          6           0       -5.112443   -0.351951   -0.038632
     18          6           0       -3.896961    0.330191   -0.014699
     19          6           0       -2.682817   -0.286180   -0.313415
     20          6           0       -2.696135   -1.643247   -0.649183
     21          1           0       -3.900816   -3.409104   -0.943819
     22          1           0       -6.038158   -2.258737   -0.401729
     23          1           0       -6.028697    0.173497    0.201785
     24          1           0       -1.765428    0.288907   -0.280377
     25          1           0       -1.760983   -2.142952   -0.885465
     26          7           0       -3.895479    1.766515    0.342190
     27          8           0       -2.811216    2.345149    0.356114
     28          8           0       -4.978609    2.286476    0.601239
 ---------------------------------------------------------------------

 SCF Done:  E(RHF) =  -868.340166884     A.U. after   16 cycles
 E2 =    -0.2598269027D+01 EUMP2 =    -0.87093843591131D+03

 The electronic state is 1-A.
 Alpha  occ. eigenvalues --  -20.61358 -20.61350 -20.59863 -20.59845 -15.86387
 Alpha  occ. eigenvalues --  -15.84901 -11.31504 -11.30086 -11.28052 -11.28029
 Alpha  occ. eigenvalues --  -11.27751 -11.27016 -11.26993 -11.26741 -11.26466
 Alpha  occ. eigenvalues --  -11.26433 -11.25750 -11.25520  -1.60415  -1.58937
 Alpha  occ. eigenvalues --   -1.39975  -1.38492  -1.19656  -1.18264  -1.09099
 Alpha  occ. eigenvalues --   -1.07714  -1.05021  -1.03614  -0.95974  -0.94563
 Alpha  occ. eigenvalues --   -0.86431  -0.85040  -0.82816  -0.81381  -0.77885
 Alpha  occ. eigenvalues --   -0.76432  -0.72627  -0.71713  -0.71129  -0.70763
 Alpha  occ. eigenvalues --   -0.70257  -0.69384  -0.65314  -0.65023  -0.63913
 Alpha  occ. eigenvalues --   -0.63615  -0.62369  -0.60929  -0.55537  -0.54188
 Alpha  occ. eigenvalues --   -0.53365  -0.53110  -0.52000  -0.51689  -0.49383
 Alpha  occ. eigenvalues --   -0.49349  -0.47888  -0.47869  -0.45430  -0.43936
 Alpha  occ. eigenvalues --   -0.37625  -0.36612  -0.36293  -0.35216
 Alpha virt. eigenvalues --    0.04633   0.06058   0.11045   0.12420   0.16173
 Alpha virt. eigenvalues --    0.17567   0.21190   0.22549   0.27138   0.27947
 Alpha virt. eigenvalues --    0.28569   0.29390   0.30806   0.32063   0.32309

 Mulliken charges:
               1
     1  C   -0.169942
     2  C   -0.218615
     3  C   -0.170116
     4  C    0.157368
     5  C   -0.170462
     6  C   -0.218687
     7  H    0.227024
     8  H    0.225513
     9  H    0.277248
    10  H    0.275579
    11  H    0.224384
    12  N    0.492193
    13  O   -0.459158
    14  O   -0.469942
    15  C   -0.171519
    16  C   -0.219683
    17  C   -0.172248
    18  C    0.156790
    19  C   -0.174404
    20  C   -0.220726
    21  H    0.222119
    22  H    0.219008
    23  H    0.271711
    24  H    0.292572
    25  H    0.231069
    26  N    0.487816
    27  O   -0.459680
    28  O   -0.465209
 Sum of Mulliken charges =  -0.00000

 Dipole moment (field-independent basis, Debye):
    X=              5.2611    Y=             -3.2641    Z=             -2.5737  Tot=              6.7050
 Quadrupole moment (field-independent basis, Debye-Ang):
   XX=            -65.6972   YY=           -107.8876   ZZ=           -104.5411
   XY=             24.3877   XZ=              1.4557   YZ=             -2.4344

 Normal termination of Gaussian 16 at Fri May  7 00:21:44 2021.
