 Gaussian 16, Revision A.03,
 Gaussian 16:  EM64L-G16RevA.03 25-Dec-2016

 -------------
 #p 6-31g* mp2
 -------------

 ------------------------------------------------------
 Input file generated by CHIRIPA (05-May-2021 14:51:13)
 ------------------------------------------------------
 Symbolic Z-matrix:
 Charge =  0 Multiplicity = 1

                         Standard orientation:
 ---------------------------------------------------------------------
 Center     Atomic      Atomic             Coordinates (Angstroms)
 Number     Number       Type             X           Y           Z
 ---------------------------------------------------------------------
      1          6           0        2.215092   -0.381488   -0.287529
      2          6           0        2.842510   -1.471660   -1.156929
      3          6           0        2.023124   -2.762492   -1.169313
      4          1           0        2.105416   -0.757715    0.738809
      5          1           0        1.200682   -0.169472   -0.652791
      6          1           0        3.855949   -1.680578   -0.790991
      7          1           0        2.950882   -1.092727   -2.181274
      8          1           0        1.015594   -2.575552   -1.554721
      9          1           0        1.925803   -3.166743   -0.156539
     10          1           0        2.489749   -3.528207   -1.796850
     11          6           0        3.022675    0.915059   -0.265044
     12          6           0        2.395258    2.005231    0.604356
     13          6           0        3.214644    3.296063    0.616740
     14          1           0        4.037085    0.703043    0.100218
     15          1           0        3.132352    1.291285   -1.291382
     16          1           0        2.286885    1.626298    1.628701
     17          1           0        1.381819    2.214148    0.238418
     18          1           0        3.311964    3.700313   -0.396034
     19          1           0        4.222173    3.109123    1.002148
     20          1           0        2.748018    4.061777    1.244277
     21          6           0       -2.867769    0.451960    0.206327
     22          6           0       -4.001075    0.605129   -0.808630
     23          6           0       -4.488245    2.048695   -0.937381
     24          1           0       -3.209774    0.813756    1.185654
     25          1           0       -2.029622    1.097710   -0.090172
     26          1           0       -4.836298   -0.041765   -0.511060
     27          1           0       -3.656395    0.242749   -1.785610
     28          1           0       -3.671448    2.703864   -1.257065
     29          1           0       -4.858056    2.417734    0.024728
     30          1           0       -5.298449    2.135320   -1.668082
     31          6           0       -2.369999   -0.985530    0.346246
     32          6           0       -1.236691   -1.138699    1.361203
     33          6           0       -0.749522   -2.582266    1.489953
     34          1           0       -3.208145   -1.631282    0.642746
     35          1           0       -2.027993   -1.347326   -0.633080
     36          1           0       -1.581373   -0.776319    2.338184
     37          1           0       -0.401469   -0.491805    1.063632
     38          1           0       -0.379712   -2.951304    0.527846
     39          1           0       -1.566320   -3.237434    1.809638
     40          1           0        0.060682   -2.668890    2.220655
 ---------------------------------------------------------------------

 SCF Done:  E(RHF) =  -470.731345150     A.U. after   11 cycles
 E2 =    -0.1585382994D+01 EUMP2 =    -0.47231672814355D+03

 The electronic state is 1-A.
 Alpha  occ. eigenvalues --  -11.21667 -11.21666 -11.21586 -11.21469 -11.21410
 Alpha  occ. eigenvalues --  -11.21379 -11.21353 -11.21284 -11.21116 -11.21100
 Alpha  occ. eigenvalues --  -11.21064 -11.20859  -1.08530  -1.08343  -1.03621
 Alpha  occ. eigenvalues --   -1.03419  -0.96064  -0.95897  -0.87122  -0.86876
 Alpha  occ. eigenvalues --   -0.79680  -0.79513  -0.78432  -0.78100  -0.65170
 Alpha  occ. eigenvalues --   -0.64973  -0.60994  -0.60901  -0.59387  -0.59277
 Alpha  occ. eigenvalues --   -0.57816  -0.57423  -0.55351  -0.55200  -0.52734
 Alpha  occ. eigenvalues --   -0.52662  -0.52580  -0.52250  -0.49993  -0.49796
 Alpha  occ. eigenvalues --   -0.48112  -0.47703  -0.46718  -0.46544  -0.46132
 Alpha  occ. eigenvalues --   -0.45783  -0.45655  -0.45151  -0.43846  -0.43705
 Alpha virt. eigenvalues --    0.20433   0.22887   0.23311   0.24599   0.25112
 Alpha virt. eigenvalues --    0.25975   0.26446   0.28061   0.29467   0.30000
 Alpha virt. eigenvalues --    0.30149   0.31030   0.31448   0.32128   0.32486

 Mulliken charges:
               1
     1  C   -0.303298
     2  C   -0.298960
     3  C   -0.480018
     4  H    0.153371
     5  H    0.151569
     6  H    0.152181
     7  H    0.151781
     8  H    0.154637
     9  H    0.160782
    10  H    0.160692
    11  C   -0.297730
    12  C   -0.300917
    13  C   -0.475654
    14  H    0.149770
    15  H    0.149600
    16  H    0.152663
    17  H    0.151779
    18  H    0.155250
    19  H    0.155404
    20  H    0.160677
    21  C   -0.298402
    22  C   -0.299543
    23  C   -0.475620
    24  H    0.149998
    25  H    0.148456
    26  H    0.152115
    27  H    0.151504
    28  H    0.154850
    29  H    0.155268
    30  H    0.160183
    31  C   -0.298664
    32  C   -0.307426
    33  C   -0.480997
    34  H    0.149455
    35  H    0.148150
    36  H    0.150508
    37  H    0.162016
    38  H    0.163757
    39  H    0.153821
    40  H    0.156993
 Sum of Mulliken charges =  -0.00000

 Dipole moment (field-independent basis, Debye):
    X=              0.0907    Y=             -0.0000    Z=             -0.0175  Tot=              0.0923
 Quadrupole moment (field-independent basis, Debye-Ang):
   XX=            -84.4724   YY=            -86.6037   ZZ=            -83.7665
   XY=             -0.1743   XZ=             -0.1506   YZ=             -0.2123

 Normal termination of Gaussian 16 at Wed May  5 20:00:24 2021.
