 Gaussian 16, Revision A.03,
 Gaussian 16:  EM64L-G16RevA.03 25-Dec-2016

 -------------
 #p 6-31g* mp2
 -------------

 ------------------------------------------------------
 Input file generated by CHIRIPA (05-May-2021 14:57:27)
 ------------------------------------------------------
 Symbolic Z-matrix:
 Charge =  0 Multiplicity = 1

                         Standard orientation:
 ---------------------------------------------------------------------
 Center     Atomic      Atomic             Coordinates (Angstroms)
 Number     Number       Type             X           Y           Z
 ---------------------------------------------------------------------
      1          6           0       -4.739452    1.309059   -0.756467
      2          6           0       -4.156515    1.601702    0.480896
      3          6           0       -3.199147    0.746564    1.034733
      4          6           0       -2.846618   -0.397685    0.320796
      5          6           0       -3.409380   -0.716628   -0.914058
      6          6           0       -4.364685    0.152866   -1.448774
      7          1           0       -5.482356    1.978927   -1.179274
      8          1           0       -4.445634    2.498905    1.020786
      9          1           0       -2.731946    0.948963    1.990858
     10          1           0       -3.100842   -1.618502   -1.428689
     11          1           0       -4.815733   -0.076936   -2.409915
     12          7           0       -1.834188   -1.310581    0.896997
     13          8           0       -1.540773   -2.312336    0.248127
     14          8           0       -1.353231   -1.007068    1.986582
     15          6           0        3.145621   -2.257494   -0.499374
     16          6           0        4.211843   -1.559023    0.076672
     17          6           0        4.149555   -0.171159    0.233195
     18          6           0        3.000704    0.489376   -0.199386
     19          6           0        1.921929   -0.178354   -0.777027
     20          6           0        2.006075   -1.566148   -0.923638
     21          1           0        3.202498   -3.335592   -0.617115
     22          1           0        5.098078   -2.093316    0.407074
     23          1           0        4.960455    0.394432    0.675875
     24          1           0        1.051637    0.381806   -1.096763
     25          1           0        1.176509   -2.105984   -1.371346
     26          7           0        2.923192    1.958609   -0.038929
     27          8           0        1.899950    2.517282   -0.428158
     28          8           0        3.887145    2.523701    0.473029
 ---------------------------------------------------------------------

 SCF Done:  E(RHF) =  -868.339480154     A.U. after   16 cycles
 E2 =    -0.2599142066D+01 EUMP2 =    -0.87093862221994D+03

 The electronic state is 1-A.
 Alpha  occ. eigenvalues --  -20.61307 -20.61229 -20.60237 -20.60225 -15.86299
 Alpha  occ. eigenvalues --  -15.85277 -11.31452 -11.30422 -11.28040 -11.27941
 Alpha  occ. eigenvalues --  -11.27676 -11.26977 -11.26959 -11.26933 -11.26903
 Alpha  occ. eigenvalues --  -11.26595 -11.25958 -11.25799  -1.60336  -1.59309
 Alpha  occ. eigenvalues --   -1.39897  -1.38871  -1.19598  -1.18543  -1.09031
 Alpha  occ. eigenvalues --   -1.07975  -1.04963  -1.03913  -0.95903  -0.94863
 Alpha  occ. eigenvalues --   -0.86374  -0.85320  -0.82742  -0.81704  -0.77819
 Alpha  occ. eigenvalues --   -0.76788  -0.72526  -0.71659  -0.71507  -0.70699
 Alpha  occ. eigenvalues --   -0.70621  -0.69670  -0.65252  -0.64960  -0.64201
 Alpha  occ. eigenvalues --   -0.63902  -0.62316  -0.61276  -0.55466  -0.54418
 Alpha  occ. eigenvalues --   -0.53306  -0.53051  -0.52238  -0.52003  -0.49295
 Alpha  occ. eigenvalues --   -0.49251  -0.48273  -0.48239  -0.45338  -0.44329
 Alpha  occ. eigenvalues --   -0.37562  -0.36551  -0.36486  -0.35482
 Alpha virt. eigenvalues --    0.04670   0.05730   0.11102   0.12171   0.16200
 Alpha virt. eigenvalues --    0.17303   0.21242   0.22273   0.27161   0.27793
 Alpha virt. eigenvalues --    0.28384   0.29046   0.30855   0.31794   0.32482

 Mulliken charges:
               1
     1  C   -0.169443
     2  C   -0.217211
     3  C   -0.167936
     4  C    0.156005
     5  C   -0.173233
     6  C   -0.218032
     7  H    0.227550
     8  H    0.226721
     9  H    0.278463
    10  H    0.271684
    11  H    0.223754
    12  N    0.487979
    13  O   -0.470232
    14  O   -0.453922
    15  C   -0.170100
    16  C   -0.217816
    17  C   -0.172180
    18  C    0.159708
    19  C   -0.172521
    20  C   -0.210691
    21  H    0.225586
    22  H    0.220884
    23  H    0.272637
    24  H    0.268694
    25  H    0.232434
    26  N    0.488531
    27  O   -0.465015
    28  O   -0.462300
 Sum of Mulliken charges =  -0.00000

 Dipole moment (field-independent basis, Debye):
    X=             -3.5557    Y=             -1.9776    Z=             -2.4850  Tot=              4.7675
 Quadrupole moment (field-independent basis, Debye-Ang):
   XX=            -79.3988   YY=           -111.7777   ZZ=           -102.7110
   XY=            -24.0889   XZ=              5.4832   YZ=              5.4704

 Normal termination of Gaussian 16 at Thu May  6 03:38:37 2021.
