 Gaussian 16, Revision A.03,
 Gaussian 16:  EM64L-G16RevA.03 25-Dec-2016

 -------------
 #p 6-31g* mp2
 -------------

 ------------------------------------------------------
 Input file generated by CHIRIPA (05-May-2021 14:55:22)
 ------------------------------------------------------
 Symbolic Z-matrix:
 Charge =  0 Multiplicity = 1

                         Standard orientation:
 ---------------------------------------------------------------------
 Center     Atomic      Atomic             Coordinates (Angstroms)
 Number     Number       Type             X           Y           Z
 ---------------------------------------------------------------------
      1          6           0        3.219332    2.720471    0.383303
      2          6           0        4.351022    1.911859    0.531441
      3          6           0        4.287936    0.543845    0.250180
      4          6           0        3.071538    0.015259   -0.179081
      5          6           0        1.926608    0.794795   -0.336397
      6          6           0        2.012864    2.160346   -0.049380
      7          1           0        3.277339    3.782220    0.604030
      8          1           0        5.289310    2.344132    0.867300
      9          1           0        5.148699   -0.105189    0.356284
     10          1           0        1.005274    0.335152   -0.672984
     11          1           0        1.132370    2.785910   -0.165325
     12          7           0        2.992487   -1.431692   -0.479887
     13          8           0        1.909022   -1.873120   -0.856558
     14          8           0        4.015489   -2.096985   -0.333291
     15          6           0       -4.575275    0.060002    0.371216
     16          6           0       -5.188403    0.873431   -0.769132
     17          6           0       -6.442123    1.637647   -0.342571
     18          1           0       -5.324783   -0.646474    0.753412
     19          1           0       -4.329274    0.734909    1.202709
     20          1           0       -5.431901    0.197391   -1.598767
     21          1           0       -4.437287    1.577920   -1.148785
     22          1           0       -6.210832    2.334600    0.469439
     23          1           0       -7.211096    0.946228    0.016900
     24          1           0       -6.864010    2.212285   -1.173031
     25          6           0       -3.321217   -0.709562   -0.039684
     26          6           0       -2.708089   -1.522990    1.100663
     27          6           0       -1.454369   -2.287206    0.674103
     28          1           0       -3.567218   -1.384468   -0.871177
     29          1           0       -2.571709   -0.003086   -0.421880
     30          1           0       -3.459204   -2.227480    1.480317
     31          1           0       -2.464590   -0.846951    1.930299
     32          1           0       -0.685395   -1.595786    0.314631
     33          1           0       -1.685660   -2.984160   -0.137908
     34          1           0       -1.032482   -2.861845    1.504563
 ---------------------------------------------------------------------

 SCF Done:  E(RHF) =  -669.535571265     A.U. after   15 cycles
 E2 =    -0.2091448518D+01 EUMP2 =    -0.67162701978337D+03

 The electronic state is 1-A.
 Alpha  occ. eigenvalues --  -20.60848 -20.60838 -15.85879 -11.31251 -11.27826
 Alpha  occ. eigenvalues --  -11.27812 -11.27560 -11.26838 -11.26827 -11.21656
 Alpha  occ. eigenvalues --  -11.21374 -11.21300 -11.21238 -11.21141 -11.20313
 Alpha  occ. eigenvalues --   -1.59910  -1.39465  -1.19423  -1.08817  -1.08329
 Alpha  occ. eigenvalues --   -1.04828  -1.03336  -0.95766  -0.95642  -0.86759
 Alpha  occ. eigenvalues --   -0.86226  -0.82485  -0.79403  -0.78140  -0.77527
 Alpha  occ. eigenvalues --   -0.72103  -0.71225  -0.70533  -0.65081  -0.64982
 Alpha  occ. eigenvalues --   -0.64826  -0.62187  -0.60736  -0.59163  -0.57366
 Alpha  occ. eigenvalues --   -0.55331  -0.55046  -0.53153  -0.52925  -0.52418
 Alpha  occ. eigenvalues --   -0.52161  -0.49728  -0.48860  -0.48849  -0.47687
 Alpha  occ. eigenvalues --   -0.46464  -0.45681  -0.45608  -0.44800  -0.43602
 Alpha  occ. eigenvalues --   -0.37401  -0.36429
 Alpha virt. eigenvalues --    0.04973   0.11190   0.16468   0.20467   0.22832
 Alpha virt. eigenvalues --    0.23940   0.25842   0.27195   0.27637   0.27953
 Alpha virt. eigenvalues --    0.29095   0.30353   0.31517   0.31900   0.32241

 Mulliken charges:
               1
     1  C   -0.170588
     2  C   -0.218540
     3  C   -0.170675
     4  C    0.157663
     5  C   -0.172433
     6  C   -0.219331
     7  H    0.225837
     8  H    0.223709
     9  H    0.275811
    10  H    0.278838
    11  H    0.223698
    12  N    0.489045
    13  O   -0.460406
    14  O   -0.459699
    15  C   -0.297882
    16  C   -0.298934
    17  C   -0.475529
    18  H    0.150991
    19  H    0.147264
    20  H    0.153331
    21  H    0.148436
    22  H    0.153943
    23  H    0.156141
    24  H    0.159891
    25  C   -0.295408
    26  C   -0.301759
    27  C   -0.476899
    28  H    0.152302
    29  H    0.140463
    30  H    0.151306
    31  H    0.147314
    32  H    0.162780
    33  H    0.158554
    34  H    0.160766
 Sum of Mulliken charges =  -0.00000

 Dipole moment (field-independent basis, Debye):
    X=              0.4072    Y=              4.9917    Z=              1.0289  Tot=              5.1128
 Quadrupole moment (field-independent basis, Debye-Ang):
   XX=            -88.9896   YY=            -94.6079   ZZ=            -95.7828
   XY=             16.5155   XZ=              5.0355   YZ=             -0.7972

 Normal termination of Gaussian 16 at Thu May  6 19:13:51 2021.
