 Gaussian 16, Revision A.03,
 Gaussian 16:  EM64L-G16RevA.03 25-Dec-2016

 -------------
 #p 6-31g* mp2
 -------------

 ------------------------------------------------------
 Input file generated by CHIRIPA (05-May-2021 14:53:12)
 ------------------------------------------------------
 Symbolic Z-matrix:
 Charge =  0 Multiplicity = 1

                         Standard orientation:
 ---------------------------------------------------------------------
 Center     Atomic      Atomic             Coordinates (Angstroms)
 Number     Number       Type             X           Y           Z
 ---------------------------------------------------------------------
      1          6           0       -3.251247   -0.427800    0.065918
      2          6           0       -3.806694   -1.550209   -0.811385
      3          6           0       -3.620089   -2.934294   -0.189067
      4          1           0       -2.183065   -0.608292    0.248555
      5          1           0       -3.745775   -0.459587    1.046646
      6          1           0       -3.312258   -1.515451   -1.790640
      7          1           0       -4.873633   -1.366921   -0.992113
      8          1           0       -4.128238   -2.993158    0.778879
      9          1           0       -2.557991   -3.142531   -0.024185
     10          1           0       -4.024242   -3.721737   -0.832849
     11          6           0       -3.430339    0.961869   -0.542748
     12          6           0       -2.874891    2.084278    0.334556
     13          6           0       -3.061496    3.468364   -0.287762
     14          1           0       -2.935811    0.993657   -1.523475
     15          1           0       -4.498520    1.142362   -0.725385
     16          1           0       -1.807952    1.900991    0.515284
     17          1           0       -3.369328    2.049520    1.313811
     18          1           0       -4.123594    3.676601   -0.452645
     19          1           0       -2.553347    3.527228   -1.255709
     20          1           0       -2.657343    4.255806    0.356019
     21          6           0        0.481554   -1.116003    1.192405
     22          6           0        0.832624    0.223782    1.387977
     23          6           0        2.009588    0.737330    0.835191
     24          6           0        2.815764   -0.120898    0.088991
     25          6           0        2.493218   -1.460316   -0.123646
     26          6           0        1.311509   -1.952302    0.438548
     27          1           0       -0.434582   -1.506565    1.625477
     28          1           0        0.189988    0.875574    1.972981
     29          1           0        2.305404    1.770526    0.970903
     30          1           0        3.154031   -2.085688   -0.711569
     31          1           0        1.041382   -2.993218    0.285020
     32          7           0        4.064275    0.411359   -0.501197
     33          8           0        4.757462   -0.365316   -1.154579
     34          8           0        4.326030    1.595136   -0.299231
 ---------------------------------------------------------------------

 SCF Done:  E(RHF) =  -669.535062564     A.U. after   15 cycles
 E2 =    -0.2093255832D+01 EUMP2 =    -0.67162831839530D+03

 The electronic state is 1-A.
 Alpha  occ. eigenvalues --  -20.60808 -20.60803 -15.85863 -11.31251 -11.27828
 Alpha  occ. eigenvalues --  -11.27822 -11.27531 -11.26835 -11.26818 -11.22366
 Alpha  occ. eigenvalues --  -11.22327 -11.22192 -11.22044 -11.21992 -11.21608
 Alpha  occ. eigenvalues --   -1.59884  -1.39436  -1.19431  -1.09195  -1.08813
 Alpha  occ. eigenvalues --   -1.04832  -1.04272  -0.96718  -0.95651  -0.87733
 Alpha  occ. eigenvalues --   -0.86227  -0.82483  -0.80345  -0.79046  -0.77517
 Alpha  occ. eigenvalues --   -0.72080  -0.71207  -0.70550  -0.65835  -0.65076
 Alpha  occ. eigenvalues --   -0.64801  -0.62193  -0.61649  -0.60092  -0.58344
 Alpha  occ. eigenvalues --   -0.56039  -0.55320  -0.53409  -0.53211  -0.53105
 Alpha  occ. eigenvalues --   -0.52913  -0.50654  -0.48853  -0.48834  -0.48643
 Alpha  occ. eigenvalues --   -0.47365  -0.46554  -0.46458  -0.44837  -0.44517
 Alpha  occ. eigenvalues --   -0.37342  -0.36425
 Alpha virt. eigenvalues --    0.04962   0.11072   0.16295   0.19882   0.22658
 Alpha virt. eigenvalues --    0.22923   0.25869   0.26120   0.26559   0.27796
 Alpha virt. eigenvalues --    0.29419   0.30283   0.30983   0.31139   0.31592

 Mulliken charges:
               1
     1  C   -0.307269
     2  C   -0.299413
     3  C   -0.475970
     4  H    0.149932
     5  H    0.147301
     6  H    0.155299
     7  H    0.155206
     8  H    0.155857
     9  H    0.146075
    10  H    0.164769
    11  C   -0.297206
    12  C   -0.304612
    13  C   -0.475999
    14  H    0.153477
    15  H    0.152109
    16  H    0.149185
    17  H    0.150397
    18  H    0.157201
    19  H    0.158590
    20  H    0.160684
    21  C   -0.171919
    22  C   -0.219301
    23  C   -0.171768
    24  C    0.158664
    25  C   -0.170470
    26  C   -0.221140
    27  H    0.230032
    28  H    0.226691
    29  H    0.276034
    30  H    0.275952
    31  H    0.223977
    32  N    0.488070
    33  O   -0.460255
    34  O   -0.460179
 Sum of Mulliken charges =  -0.00000

 Dipole moment (field-independent basis, Debye):
    X=             -4.4678    Y=             -1.8414    Z=              1.9820  Tot=              5.2231
 Quadrupole moment (field-independent basis, Debye-Ang):
   XX=           -118.7868   YY=            -91.3338   ZZ=            -94.1193
   XY=             -5.8696   XZ=              4.9844   YZ=              1.9670

 Normal termination of Gaussian 16 at Thu May  6 15:18:48 2021.
