 Gaussian 16, Revision A.03,
 Gaussian 16:  EM64L-G16RevA.03 25-Dec-2016

 -------------
 #p 6-31g* mp2
 -------------

 ------------------------------------------------------
 Input file generated by CHIRIPA (05-May-2021 14:53:12)
 ------------------------------------------------------
 Symbolic Z-matrix:
 Charge =  0 Multiplicity = 1

                         Standard orientation:
 ---------------------------------------------------------------------
 Center     Atomic      Atomic             Coordinates (Angstroms)
 Number     Number       Type             X           Y           Z
 ---------------------------------------------------------------------
      1          6           0       -5.091174    0.095150    0.235992
      2          6           0       -5.931610   -0.002726   -1.037614
      3          6           0       -7.401345    0.348432   -0.804458
      4          1           0       -5.513029   -0.573978    0.998389
      5          1           0       -5.166071    1.114671    0.638936
      6          1           0       -5.854041   -1.021378   -1.438796
      7          1           0       -5.507592    0.666570   -1.797132
      8          1           0       -7.497718    1.371290   -0.426205
      9          1           0       -7.846136   -0.326249   -0.065833
     10          1           0       -7.983769    0.271931   -1.727924
     11          6           0       -3.619621   -0.252949    0.019002
     12          6           0       -2.779184   -0.155073    1.292608
     13          6           0       -1.309450   -0.506232    1.059452
     14          1           0       -3.544724   -1.272470   -0.383942
     15          1           0       -3.197765    0.416179   -0.743396
     16          1           0       -3.203203   -0.824369    2.052126
     17          1           0       -2.856753    0.863579    1.693790
     18          1           0       -0.864659    0.168450    0.320826
     19          1           0       -1.213077   -1.529089    0.681198
     20          1           0       -0.727025   -0.429730    1.982918
     21          6           0        3.467291   -2.457465   -0.225511
     22          6           0        4.520623   -1.702993   -0.752561
     23          6           0        4.495425   -0.306644   -0.688368
     24          6           0        3.396405    0.305179   -0.087434
     25          6           0        2.331663   -0.418894    0.446732
     26          6           0        2.378092   -1.814142    0.371401
     27          1           0        3.495112   -3.541756   -0.279703
     28          1           0        5.367787   -2.199911   -1.216706
     29          1           0        5.297396    0.301822   -1.088405
     30          1           0        1.500640    0.104856    0.903356
     31          1           0        1.558648   -2.397520    0.781553
     32          7           0        3.358491    1.782848   -0.013582
     33          8           0        2.378879    2.297889    0.520956
     34          8           0        4.309102    2.398024   -0.491631
 ---------------------------------------------------------------------

 SCF Done:  E(RHF) =  -669.535251863     A.U. after   15 cycles
 E2 =    -0.2091741816D+01 EUMP2 =    -0.67162699367815D+03

 The electronic state is 1-A.
 Alpha  occ. eigenvalues --  -20.60697 -20.60691 -15.85745 -11.31051 -11.27648
 Alpha  occ. eigenvalues --  -11.27537 -11.27387 -11.26660 -11.26608 -11.22017
 Alpha  occ. eigenvalues --  -11.21838 -11.21728 -11.21660 -11.21542 -11.21157
 Alpha  occ. eigenvalues --   -1.59771  -1.39326  -1.19235  -1.08695  -1.08646
 Alpha  occ. eigenvalues --   -1.04635  -1.03850  -0.96350  -0.95482  -0.87393
 Alpha  occ. eigenvalues --   -0.86031  -0.82317  -0.79947  -0.78480  -0.77349
 Alpha  occ. eigenvalues --   -0.71966  -0.71093  -0.70357  -0.65325  -0.64887
 Alpha  occ. eigenvalues --   -0.64645  -0.62024  -0.61228  -0.59704  -0.57921
 Alpha  occ. eigenvalues --   -0.55646  -0.55152  -0.53129  -0.53001  -0.52727
 Alpha  occ. eigenvalues --   -0.52630  -0.50235  -0.48722  -0.48720  -0.48236
 Alpha  occ. eigenvalues --   -0.46914  -0.46030  -0.45925  -0.44742  -0.44097
 Alpha  occ. eigenvalues --   -0.37231  -0.36221
 Alpha virt. eigenvalues --    0.05140   0.11385   0.16630   0.20675   0.22718
 Alpha virt. eigenvalues --    0.23976   0.25766   0.26328   0.27288   0.28041
 Alpha virt. eigenvalues --    0.29451   0.29705   0.31102   0.31571   0.32190

 Mulliken charges:
               1
     1  C   -0.298940
     2  C   -0.299960
     3  C   -0.475932
     4  H    0.149348
     5  H    0.151810
     6  H    0.151159
     7  H    0.153385
     8  H    0.156294
     9  H    0.154917
    10  H    0.160751
    11  C   -0.299661
    12  C   -0.299247
    13  C   -0.487342
    14  H    0.147862
    15  H    0.153254
    16  H    0.152346
    17  H    0.158525
    18  H    0.164367
    19  H    0.150787
    20  H    0.158257
    21  C   -0.170833
    22  C   -0.219013
    23  C   -0.170700
    24  C    0.159065
    25  C   -0.177389
    26  C   -0.222542
    27  H    0.224941
    28  H    0.222854
    29  H    0.275007
    30  H    0.285559
    31  H    0.225194
    32  N    0.488030
    33  O   -0.461372
    34  O   -0.460781
 Sum of Mulliken charges =  -0.00000

 Dipole moment (field-independent basis, Debye):
    X=             -0.0726    Y=             -5.1339    Z=             -0.2641  Tot=              5.1412
 Quadrupole moment (field-independent basis, Debye-Ang):
   XX=            -90.9736   YY=            -97.7618   ZZ=            -94.3307
   XY=            -17.3611   XZ=             -3.3583   YZ=              0.1078

 Normal termination of Gaussian 16 at Thu May  6 11:57:46 2021.
