 Gaussian 16, Revision A.03,
 Gaussian 16:  EM64L-G16RevA.03 25-Dec-2016

 -------------
 #p 6-31g* mp2
 -------------

 ------------------------------------------------------
 Input file generated by CHIRIPA (05-May-2021 14:57:26)
 ------------------------------------------------------
 Symbolic Z-matrix:
 Charge =  0 Multiplicity = 1

                         Standard orientation:
 ---------------------------------------------------------------------
 Center     Atomic      Atomic             Coordinates (Angstroms)
 Number     Number       Type             X           Y           Z
 ---------------------------------------------------------------------
      1          6           0        0.705068   -2.108118   -0.818232
      2          6           0        0.574640   -0.826077   -1.362181
      3          6           0        1.510878    0.169231   -1.066598
      4          6           0        2.569934   -0.153596   -0.219561
      5          6           0        2.727223   -1.421544    0.337985
      6          6           0        1.779050   -2.401243    0.028621
      7          1           0       -0.026859   -2.875234   -1.053201
      8          1           0       -0.258413   -0.595585   -2.020163
      9          1           0        1.434028    1.170022   -1.473942
     10          1           0        3.568351   -1.621313    0.990683
     11          1           0        1.882872   -3.396025    0.452501
     12          7           0        3.567405    0.891830    0.100654
     13          8           0        4.491401    0.582095    0.849607
     14          8           0        3.406338    2.001175   -0.403378
     15          6           0       -2.702649   -2.172261    0.464341
     16          6           0       -1.926528   -1.485387    1.403682
     17          6           0       -1.755030   -0.101257    1.307131
     18          6           0       -2.376816    0.567407    0.253774
     19          6           0       -3.156159   -0.088712   -0.697762
     20          6           0       -3.313909   -1.472965   -0.581538
     21          1           0       -2.830533   -3.247534    0.546985
     22          1           0       -1.450634   -2.025875    2.216974
     23          1           0       -1.159545    0.455408    2.020530
     24          1           0       -3.618108    0.477421   -1.497459
     25          1           0       -3.917217   -2.003790   -1.312491
     26          7           0       -2.202535    2.032787    0.141146
     27          8           0       -2.760836    2.598793   -0.796177
     28          8           0       -1.510933    2.587602    0.992325
 ---------------------------------------------------------------------

 SCF Done:  E(RHF) =  -868.335027114     A.U. after   16 cycles
 E2 =    -0.2605824304D+01 EUMP2 =    -0.87094085141838D+03

 The electronic state is 1-A.
 Alpha  occ. eigenvalues --  -20.61343 -20.61304 -20.60653 -20.60614 -15.86378
 Alpha  occ. eigenvalues --  -15.85697 -11.31923 -11.31196 -11.28558 -11.28408
 Alpha  occ. eigenvalues --  -11.28321 -11.27854 -11.27733 -11.27661 -11.27586
 Alpha  occ. eigenvalues --  -11.27510 -11.26900 -11.26739  -1.60404  -1.59711
 Alpha  occ. eigenvalues --   -1.39948  -1.39259  -1.20152  -1.19400  -1.09521
 Alpha  occ. eigenvalues --   -1.08775  -1.05548  -1.04833  -0.96308  -0.95584
 Alpha  occ. eigenvalues --   -0.86943  -0.86222  -0.83114  -0.82416  -0.78121
 Alpha  occ. eigenvalues --   -0.77431  -0.72584  -0.71911  -0.71752  -0.71255
 Alpha  occ. eigenvalues --   -0.71040  -0.70532  -0.65776  -0.65543  -0.65051
 Alpha  occ. eigenvalues --   -0.64856  -0.62869  -0.62176  -0.56078  -0.55384
 Alpha  occ. eigenvalues --   -0.54473  -0.53625  -0.52963  -0.52543  -0.49364
 Alpha  occ. eigenvalues --   -0.49334  -0.48687  -0.48655  -0.45305  -0.44635
 Alpha  occ. eigenvalues --   -0.38439  -0.37760  -0.36587  -0.36264
 Alpha virt. eigenvalues --    0.04347   0.05075   0.10430   0.11191   0.15749
 Alpha virt. eigenvalues --    0.16607   0.20374   0.21472   0.26462   0.27008
 Alpha virt. eigenvalues --    0.27193   0.28648   0.30154   0.30998   0.31942

 Mulliken charges:
               1
     1  C   -0.164977
     2  C   -0.218325
     3  C   -0.172927
     4  C    0.157699
     5  C   -0.172319
     6  C   -0.224311
     7  H    0.219059
     8  H    0.224110
     9  H    0.281758
    10  H    0.275058
    11  H    0.218968
    12  N    0.488079
    13  O   -0.462493
    14  O   -0.455055
    15  C   -0.179698
    16  C   -0.211755
    17  C   -0.165039
    18  C    0.160282
    19  C   -0.179481
    20  C   -0.222112
    21  H    0.224636
    22  H    0.225068
    23  H    0.280084
    24  H    0.277137
    25  H    0.224713
    26  N    0.485973
    27  O   -0.460553
    28  O   -0.453577
 Sum of Mulliken charges =  -0.00000

 Dipole moment (field-independent basis, Debye):
    X=             -4.1802    Y=             -8.5569    Z=             -0.6033  Tot=              9.5425
 Quadrupole moment (field-independent basis, Debye-Ang):
   XX=           -118.4923   YY=           -108.7151   ZZ=            -99.8048
   XY=              1.3568   XZ=              0.7788   YZ=             -2.3474

 Normal termination of Gaussian 16 at Wed May  5 22:50:14 2021.
