 Gaussian 16, Revision A.03,
 Gaussian 16:  EM64L-G16RevA.03 25-Dec-2016

 -------------
 #p 6-31g* mp2
 -------------

 ------------------------------------------------------
 Input file generated by CHIRIPA (05-May-2021 14:53:14)
 ------------------------------------------------------
 Symbolic Z-matrix:
 Charge =  0 Multiplicity = 1

                         Standard orientation:
 ---------------------------------------------------------------------
 Center     Atomic      Atomic             Coordinates (Angstroms)
 Number     Number       Type             X           Y           Z
 ---------------------------------------------------------------------
      1          6           0        2.988200   -0.616605   -0.192072
      2          6           0        3.934233   -1.193486    0.861596
      3          6           0        3.799674   -2.709253    1.010389
      4          1           0        1.953226   -0.869743    0.075687
      5          1           0        3.188233   -1.100012   -1.158353
      6          1           0        3.733413   -0.708143    1.825302
      7          1           0        4.967062   -0.938782    0.591399
      8          1           0        4.020401   -3.210498    0.062426
      9          1           0        2.779743   -2.978549    1.303339
     10          1           0        4.484982   -3.100616    1.768708
     11          6           0        3.110961    0.897647   -0.352377
     12          6           0        2.164929    1.474528   -1.406045
     13          6           0        2.299487    2.990295   -1.554838
     14          1           0        2.910928    1.381054    0.613904
     15          1           0        4.145935    1.150785   -0.620136
     16          1           0        1.132100    1.219824   -1.135848
     17          1           0        2.365749    0.989185   -2.369751
     18          1           0        3.319419    3.259591   -1.847789
     19          1           0        2.078761    3.491540   -0.606875
     20          1           0        1.614180    3.381658   -2.313158
     21          6           0       -1.621575    1.662368    1.839459
     22          6           0       -2.952097    1.632218    1.408967
     23          6           0       -3.384799    0.654870    0.507798
     24          6           0       -2.456047   -0.281107    0.055404
     25          6           0       -1.123781   -0.277303    0.465701
     26          6           0       -0.713265    0.709191    1.367284
     27          1           0       -1.294058    2.425148    2.539669
     28          1           0       -3.659702    2.371201    1.773995
     29          1           0       -4.408991    0.608378    0.158102
     30          1           0       -0.441581   -1.027307    0.084237
     31          1           0        0.320650    0.730180    1.699888
     32          7           0       -2.902386   -1.320624   -0.898842
     33          8           0       -2.064589   -2.133950   -1.282553
     34          8           0       -4.081571   -1.302387   -1.245002
 ---------------------------------------------------------------------

 SCF Done:  E(RHF) =  -669.534927552     A.U. after   15 cycles
 E2 =    -0.2093558191D+01 EUMP2 =    -0.67162848574251D+03

 The electronic state is 1-A.
 Alpha  occ. eigenvalues --  -20.60788 -20.60782 -15.85841 -11.31229 -11.27803
 Alpha  occ. eigenvalues --  -11.27789 -11.27549 -11.26825 -11.26815 -11.22182
 Alpha  occ. eigenvalues --  -11.22100 -11.22035 -11.21964 -11.21475 -11.21458
 Alpha  occ. eigenvalues --   -1.59862  -1.39414  -1.19413  -1.09039  -1.08796
 Alpha  occ. eigenvalues --   -1.04824  -1.04012  -0.96480  -0.95630  -0.87486
 Alpha  occ. eigenvalues --   -0.86211  -0.82470  -0.80077  -0.78870  -0.77501
 Alpha  occ. eigenvalues --   -0.72059  -0.71185  -0.70525  -0.65781  -0.65044
 Alpha  occ. eigenvalues --   -0.64801  -0.62137  -0.61422  -0.59835  -0.58077
 Alpha  occ. eigenvalues --   -0.55798  -0.55294  -0.53191  -0.53092  -0.52936
 Alpha  occ. eigenvalues --   -0.52856  -0.50424  -0.48820  -0.48813  -0.48383
 Alpha  occ. eigenvalues --   -0.47129  -0.46358  -0.46327  -0.44814  -0.44311
 Alpha  occ. eigenvalues --   -0.37388  -0.36374
 Alpha virt. eigenvalues --    0.04995   0.11198   0.16361   0.18834   0.23009
 Alpha virt. eigenvalues --    0.23657   0.24945   0.25634   0.27223   0.28479
 Alpha virt. eigenvalues --    0.30217   0.31030   0.31296   0.31588   0.31825

 Mulliken charges:
               1
     1  C   -0.303546
     2  C   -0.299531
     3  C   -0.475929
     4  H    0.141755
     5  H    0.157778
     6  H    0.147408
     7  H    0.155207
     8  H    0.159278
     9  H    0.154767
    10  H    0.161978
    11  C   -0.299330
    12  C   -0.305737
    13  C   -0.474857
    14  H    0.141227
    15  H    0.153954
    16  H    0.155246
    17  H    0.156547
    18  H    0.156329
    19  H    0.150807
    20  H    0.163341
    21  C   -0.171486
    22  C   -0.218563
    23  C   -0.170582
    24  C    0.160529
    25  C   -0.179111
    26  C   -0.221302
    27  H    0.225973
    28  H    0.223821
    29  H    0.275874
    30  H    0.282632
    31  H    0.227553
    32  N    0.488322
    33  O   -0.459982
    34  O   -0.460370
 Sum of Mulliken charges =  -0.00000

 Dipole moment (field-independent basis, Debye):
    X=              1.6400    Y=              3.6101    Z=              3.2599  Tot=              5.1332
 Quadrupole moment (field-independent basis, Debye-Ang):
   XX=            -97.1644   YY=            -97.7208   ZZ=            -94.5294
   XY=            -11.9804   XZ=             -9.2022   YZ=             -0.3242

 Normal termination of Gaussian 16 at Thu May  6 10:32:28 2021.
