 Gaussian 16, Revision A.03,
 Gaussian 16:  EM64L-G16RevA.03 25-Dec-2016

 -------------
 #p 6-31g* mp2
 -------------

 ------------------------------------------------------
 Input file generated by CHIRIPA (05-May-2021 14:51:07)
 ------------------------------------------------------
 Symbolic Z-matrix:
 Charge =  0 Multiplicity = 1

                         Standard orientation:
 ---------------------------------------------------------------------
 Center     Atomic      Atomic             Coordinates (Angstroms)
 Number     Number       Type             X           Y           Z
 ---------------------------------------------------------------------
      1          6           0        1.915350   -0.114880    1.032771
      2          6           0        1.641097   -1.586267    1.345488
      3          6           0        0.625640   -1.771586    2.473449
      4          1           0        2.278873    0.384860    1.941097
      5          1           0        0.971061    0.377359    0.761820
      6          1           0        2.585840   -2.075910    1.614427
      7          1           0        1.278367   -2.082607    0.436263
      8          1           0       -0.331033   -1.308768    2.210434
      9          1           0        0.983869   -1.302033    3.395292
     10          1           0        0.444480   -2.830909    2.680514
     11          6           0        2.928480    0.086637   -0.092700
     12          6           0        3.202732    1.558023   -0.405417
     13          6           0        4.218189    1.743342   -1.533379
     14          1           0        3.872768   -0.405603    0.178251
     15          1           0        2.564956   -0.413104   -1.001026
     16          1           0        3.565463    2.054363    0.503808
     17          1           0        2.257990    2.047666   -0.674356
     18          1           0        3.859960    1.273789   -2.455221
     19          1           0        5.174862    1.280524   -1.270363
     20          1           0        4.399349    2.802665   -1.740444
     21          6           0       -2.929675    0.584328   -0.448200
     22          6           0       -2.670607    1.584110    0.679322
     23          6           0       -3.694738    2.719015    0.709974
     24          1           0       -2.919633    1.115268   -1.409942
     25          1           0       -3.939016    0.165620   -0.332839
     26          1           0       -1.661536    1.999779    0.562660
     27          1           0       -2.681077    1.050697    1.638476
     28          1           0       -4.705456    2.322176    0.849867
     29          1           0       -3.680122    3.276651   -0.232061
     30          1           0       -3.490676    3.422053    1.523580
     31          6           0       -1.914155   -0.556084   -0.491872
     32          6           0       -2.173222   -1.555866   -1.619393
     33          6           0       -1.149091   -2.690772   -1.650044
     34          1           0       -0.904813   -0.137376   -0.607232
     35          1           0       -1.924196   -1.087024    0.469871
     36          1           0       -2.162753   -1.022453   -2.578547
     37          1           0       -3.182294   -1.971535   -1.502731
     38          1           0       -1.163707   -3.248407   -0.708010
     39          1           0       -0.138373   -2.293932   -1.789938
     40          1           0       -1.353153   -3.393810   -2.463651
 ---------------------------------------------------------------------

 SCF Done:  E(RHF) =  -470.732182810     A.U. after   11 cycles
 E2 =    -0.1585555310D+01 EUMP2 =    -0.47231773812023D+03

 The electronic state is 1-A.
 Alpha  occ. eigenvalues --  -11.21686 -11.21677 -11.21614 -11.21476 -11.21469
 Alpha  occ. eigenvalues --  -11.21416 -11.21377 -11.21266 -11.21160 -11.21119
 Alpha  occ. eigenvalues --  -11.21082 -11.20951  -1.08546  -1.08363  -1.03621
 Alpha  occ. eigenvalues --   -1.03469  -0.96062  -0.95938  -0.87081  -0.86953
 Alpha  occ. eigenvalues --   -0.79681  -0.79550  -0.78435  -0.78133  -0.65253
 Alpha  occ. eigenvalues --   -0.64947  -0.61006  -0.60913  -0.59409  -0.59304
 Alpha  occ. eigenvalues --   -0.57713  -0.57519  -0.55474  -0.55135  -0.52748
 Alpha  occ. eigenvalues --   -0.52640  -0.52505  -0.52368  -0.50100  -0.49823
 Alpha  occ. eigenvalues --   -0.48101  -0.47806  -0.46735  -0.46585  -0.46284
 Alpha  occ. eigenvalues --   -0.45700  -0.45647  -0.45163  -0.43858  -0.43735
 Alpha virt. eigenvalues --    0.19891   0.22769   0.23085   0.24050   0.24903
 Alpha virt. eigenvalues --    0.25923   0.26159   0.28403   0.28962   0.30454
 Alpha virt. eigenvalues --    0.31093   0.31334   0.31529   0.31731   0.32224

 Mulliken charges:
               1
     1  C   -0.304410
     2  C   -0.304310
     3  C   -0.480623
     4  H    0.149572
     5  H    0.155371
     6  H    0.151354
     7  H    0.158342
     8  H    0.160240
     9  H    0.154561
    10  H    0.158841
    11  C   -0.299116
    12  C   -0.299263
    13  C   -0.475640
    14  H    0.149972
    15  H    0.148513
    16  H    0.152327
    17  H    0.150609
    18  H    0.154948
    19  H    0.155402
    20  H    0.160214
    21  C   -0.297603
    22  C   -0.301851
    23  C   -0.475694
    24  H    0.149630
    25  H    0.149832
    26  H    0.152754
    27  H    0.152392
    28  H    0.155466
    29  H    0.155322
    30  H    0.160745
    31  C   -0.308662
    32  C   -0.298898
    33  C   -0.478858
    34  H    0.154843
    35  H    0.155125
    36  H    0.151945
    37  H    0.152322
    38  H    0.157000
    39  H    0.156357
    40  H    0.160925
 Sum of Mulliken charges =  -0.00000

 Dipole moment (field-independent basis, Debye):
    X=             -0.0639    Y=             -0.0035    Z=             -0.0228  Tot=              0.0679
 Quadrupole moment (field-independent basis, Debye-Ang):
   XX=            -84.7642   YY=            -85.3202   ZZ=            -84.6793
   XY=              0.7377   XZ=              0.7836   YZ=             -0.1524

 Normal termination of Gaussian 16 at Wed May  5 21:16:32 2021.
