 Gaussian 16, Revision A.03,
 Gaussian 16:  EM64L-G16RevA.03 25-Dec-2016

 -------------
 #p 6-31g* mp2
 -------------

 ------------------------------------------------------
 Input file generated by CHIRIPA (05-May-2021 14:55:21)
 ------------------------------------------------------
 Symbolic Z-matrix:
 Charge =  0 Multiplicity = 1

                         Standard orientation:
 ---------------------------------------------------------------------
 Center     Atomic      Atomic             Coordinates (Angstroms)
 Number     Number       Type             X           Y           Z
 ---------------------------------------------------------------------
      1          6           0       -2.742478   -2.478639   -1.006934
      2          6           0       -2.421848   -2.446829    0.354207
      3          6           0       -2.263458   -1.226655    1.018012
      4          6           0       -2.433739   -0.052188    0.286629
      5          6           0       -2.753312   -0.051047   -1.070265
      6          6           0       -2.906897   -1.282755   -1.713580
      7          1           0       -2.863652   -3.430980   -1.514635
      8          1           0       -2.293560   -3.373994    0.905526
      9          1           0       -2.015345   -1.173056    2.071096
     10          1           0       -2.874894    0.889786   -1.593208
     11          1           0       -3.155913   -1.304423   -2.770730
     12          7           0       -2.268602    1.245660    0.978524
     13          8           0       -2.423940    2.266361    0.311683
     14          8           0       -1.986956    1.217638    2.174570
     15          6           0        2.474471    0.622692   -0.438831
     16          6           0        2.484116    2.139664   -0.630378
     17          6           0        1.125496    2.689111   -1.066329
     18          1           0        2.167597    0.142827   -1.378247
     19          1           0        1.714186    0.359435    0.309539
     20          1           0        3.245113    2.400102   -1.377151
     21          1           0        2.791187    2.615965    0.309548
     22          1           0        0.358920    2.458099   -0.319605
     23          1           0        0.815425    2.241008   -2.015887
     24          1           0        1.155018    3.775302   -1.197394
     25          6           0        3.825574    0.058497   -0.003015
     26          6           0        3.815930   -1.458474    0.188532
     27          6           0        5.174550   -2.007922    0.624482
     28          1           0        4.585859    0.321754   -0.751385
     29          1           0        4.132448    0.538363    0.936401
     30          1           0        3.508858   -1.934776   -0.751394
     31          1           0        3.054933   -1.718912    0.935305
     32          1           0        5.484620   -1.559819    1.574041
     33          1           0        5.941125   -1.776910   -0.122242
     34          1           0        5.145028   -3.094112    0.755548
 ---------------------------------------------------------------------

 SCF Done:  E(RHF) =  -669.536053643     A.U. after   15 cycles
 E2 =    -0.2091617495D+01 EUMP2 =    -0.67162767113722D+03

 The electronic state is 1-A.
 Alpha  occ. eigenvalues --  -20.60916 -20.60896 -15.85928 -11.31242 -11.27811
 Alpha  occ. eigenvalues --  -11.27796 -11.27543 -11.26810 -11.26800 -11.21537
 Alpha  occ. eigenvalues --  -11.21184 -11.21108 -11.21050 -11.21033 -11.20303
 Alpha  occ. eigenvalues --   -1.59973  -1.39526  -1.19409  -1.08818  -1.08158
 Alpha  occ. eigenvalues --   -1.04804  -1.03208  -0.95670  -0.95632  -0.86656
 Alpha  occ. eigenvalues --   -0.86205  -0.82495  -0.79288  -0.77968  -0.77548
 Alpha  occ. eigenvalues --   -0.72152  -0.71299  -0.70520  -0.65065  -0.64810
 Alpha  occ. eigenvalues --   -0.64786  -0.62152  -0.60598  -0.59046  -0.57258
 Alpha  occ. eigenvalues --   -0.55312  -0.54923  -0.53133  -0.52898  -0.52323
 Alpha  occ. eigenvalues --   -0.52073  -0.49597  -0.48920  -0.48907  -0.47611
 Alpha  occ. eigenvalues --   -0.46349  -0.45529  -0.45440  -0.44805  -0.43469
 Alpha  occ. eigenvalues --   -0.37385  -0.36400
 Alpha virt. eigenvalues --    0.04962   0.11239   0.16445   0.21362   0.23085
 Alpha virt. eigenvalues --    0.24559   0.26802   0.27249   0.27598   0.28045
 Alpha virt. eigenvalues --    0.28592   0.30893   0.31637   0.32003   0.32388

 Mulliken charges:
               1
     1  C   -0.170372
     2  C   -0.218321
     3  C   -0.171060
     4  C    0.158449
     5  C   -0.170181
     6  C   -0.218657
     7  H    0.225823
     8  H    0.223640
     9  H    0.275439
    10  H    0.276364
    11  H    0.223641
    12  N    0.486493
    13  O   -0.457143
    14  O   -0.459674
    15  C   -0.297779
    16  C   -0.299953
    17  C   -0.478974
    18  H    0.146039
    19  H    0.149019
    20  H    0.148692
    21  H    0.154256
    22  H    0.168405
    23  H    0.146718
    24  H    0.161727
    25  C   -0.298008
    26  C   -0.298905
    27  C   -0.475471
    28  H    0.148880
    29  H    0.151315
    30  H    0.149549
    31  H    0.150472
    32  H    0.156168
    33  H    0.155185
    34  H    0.158224
 Sum of Mulliken charges =  -0.00000

 Dipole moment (field-independent basis, Debye):
    X=             -0.7215    Y=             -4.5138    Z=             -2.3781  Tot=              5.1527
 Quadrupole moment (field-independent basis, Debye-Ang):
   XX=            -93.5488   YY=            -93.7245   ZZ=            -91.9435
   XY=             11.2966   XZ=              6.5149   YZ=             -3.0603

 Normal termination of Gaussian 16 at Wed May  5 22:13:56 2021.
