 Gaussian 16, Revision A.03,
 Gaussian 16:  EM64L-G16RevA.03 25-Dec-2016

 -------------
 #p 6-31g* mp2
 -------------

 ------------------------------------------------------
 Input file generated by CHIRIPA (05-May-2021 14:55:22)
 ------------------------------------------------------
 Symbolic Z-matrix:
 Charge =  0 Multiplicity = 1

                         Standard orientation:
 ---------------------------------------------------------------------
 Center     Atomic      Atomic             Coordinates (Angstroms)
 Number     Number       Type             X           Y           Z
 ---------------------------------------------------------------------
      1          6           0       -2.871828    2.167035   -0.814963
      2          6           0       -1.614177    1.686854   -0.435146
      3          6           0       -1.461812    0.370782    0.011269
      4          6           0       -2.593543   -0.441333    0.065526
      5          6           0       -3.859841    0.007845   -0.305983
      6          6           0       -3.988677    1.327478   -0.749286
      7          1           0       -2.981051    3.190775   -1.160541
      8          1           0       -0.745062    2.336613   -0.485118
      9          1           0       -0.499889   -0.026757    0.311410
     10          1           0       -4.707714   -0.663604   -0.245273
     11          1           0       -4.966613    1.697689   -1.043618
     12          7           0       -2.444695   -1.836484    0.536478
     13          8           0       -3.457374   -2.531918    0.575080
     14          8           0       -1.318167   -2.208153    0.858091
     15          6           0        3.108850    0.973222   -0.160680
     16          6           0        2.824081    1.841551    1.065246
     17          6           0        2.340205    3.244315    0.696581
     18          1           0        3.862658    1.469901   -0.786803
     19          1           0        2.196726    0.899398   -0.768935
     20          1           0        3.736089    1.912578    1.671722
     21          1           0        2.071006    1.342656    1.688620
     22          1           0        1.416808    3.191735    0.110769
     23          1           0        3.091353    3.764895    0.093776
     24          1           0        2.142624    3.847992    1.587870
     25          6           0        3.593421   -0.432051    0.191637
     26          6           0        3.878190   -1.300381   -1.034289
     27          6           0        4.362066   -2.703144   -0.665625
     28          1           0        4.505545   -0.358227    0.799892
     29          1           0        2.839614   -0.928730    0.817760
     30          1           0        4.631267   -0.801485   -1.657663
     31          1           0        2.966182   -1.371407   -1.640765
     32          1           0        3.610919   -3.223723   -0.062819
     33          1           0        5.285463   -2.650564   -0.079813
     34          1           0        4.559647   -3.306821   -1.556913
 ---------------------------------------------------------------------

 SCF Done:  E(RHF) =  -669.535546718     A.U. after   15 cycles
 E2 =    -0.2091826961D+01 EUMP2 =    -0.67162737367836D+03

 The electronic state is 1-A.
 Alpha  occ. eigenvalues --  -20.60797 -20.60790 -15.85849 -11.31200 -11.27768
 Alpha  occ. eigenvalues --  -11.27764 -11.27501 -11.26780 -11.26756 -11.22219
 Alpha  occ. eigenvalues --  -11.21942 -11.21895 -11.21619 -11.21527 -11.20892
 Alpha  occ. eigenvalues --   -1.59871  -1.39425  -1.19370  -1.08789  -1.08764
 Alpha  occ. eigenvalues --   -1.04773  -1.03856  -0.96320  -0.95605  -0.87336
 Alpha  occ. eigenvalues --   -0.86171  -0.82441  -0.79951  -0.78529  -0.77491
 Alpha  occ. eigenvalues --   -0.72068  -0.71193  -0.70481  -0.65460  -0.65017
 Alpha  occ. eigenvalues --   -0.64797  -0.62171  -0.61199  -0.59717  -0.57901
 Alpha  occ. eigenvalues --   -0.55655  -0.55264  -0.53101  -0.53011  -0.52943
 Alpha  occ. eigenvalues --   -0.52645  -0.50253  -0.48824  -0.48823  -0.48243
 Alpha  occ. eigenvalues --   -0.46997  -0.46077  -0.45964  -0.44834  -0.44101
 Alpha  occ. eigenvalues --   -0.37348  -0.36372
 Alpha virt. eigenvalues --    0.05038   0.11277   0.16523   0.17959   0.22632
 Alpha virt. eigenvalues --    0.23706   0.25454   0.25581   0.27387   0.28517
 Alpha virt. eigenvalues --    0.29467   0.30933   0.31325   0.31795   0.32541

 Mulliken charges:
               1
     1  C   -0.172534
     2  C   -0.225647
     3  C   -0.177052
     4  C    0.159098
     5  C   -0.170772
     6  C   -0.218549
     7  H    0.226514
     8  H    0.234354
     9  H    0.277854
    10  H    0.275587
    11  H    0.223504
    12  N    0.488159
    13  O   -0.460224
    14  O   -0.461228
    15  C   -0.299565
    16  C   -0.302489
    17  C   -0.478322
    18  H    0.151925
    19  H    0.142006
    20  H    0.157277
    21  H    0.152459
    22  H    0.144193
    23  H    0.159581
    24  H    0.164158
    25  C   -0.301349
    26  C   -0.299436
    27  C   -0.477226
    28  H    0.150942
    29  H    0.156355
    30  H    0.150391
    31  H    0.152957
    32  H    0.162220
    33  H    0.154133
    34  H    0.160724
 Sum of Mulliken charges =  -0.00000

 Dipole moment (field-independent basis, Debye):
    X=             -0.3859    Y=              4.8402    Z=             -1.5983  Tot=              5.1119
 Quadrupole moment (field-independent basis, Debye-Ang):
   XX=            -85.7044   YY=           -100.4200   ZZ=            -95.7295
   XY=            -11.1939   XZ=              5.2936   YZ=              1.3146

 Normal termination of Gaussian 16 at Thu May  6 03:03:49 2021.
