 Gaussian 16, Revision A.03,
 Gaussian 16:  EM64L-G16RevA.03 25-Dec-2016

 -------------
 #p 6-31g* mp2
 -------------

 ------------------------------------------------------
 Input file generated by CHIRIPA (05-May-2021 14:55:21)
 ------------------------------------------------------
 Symbolic Z-matrix:
 Charge =  0 Multiplicity = 1

                         Standard orientation:
 ---------------------------------------------------------------------
 Center     Atomic      Atomic             Coordinates (Angstroms)
 Number     Number       Type             X           Y           Z
 ---------------------------------------------------------------------
      1          6           0       -1.858079    2.714285    0.366155
      2          6           0       -1.273640    2.264854   -0.822526
      3          6           0       -1.438882    0.940384   -1.238489
      4          6           0       -2.198285    0.088609   -0.437818
      5          6           0       -2.793180    0.506496    0.751620
      6          6           0       -2.614650    1.835222    1.148056
      7          1           0       -1.724554    3.744818    0.681700
      8          1           0       -0.685558    2.945321   -1.431763
      9          1           0       -0.997549    0.566072   -2.154204
     10          1           0       -3.373938   -0.195273    1.337843
     11          1           0       -3.069698    2.181492    2.071675
     12          7           0       -2.380253   -1.315801   -0.867842
     13          8           0       -3.053907   -2.046422   -0.144641
     14          8           0       -1.845780   -1.659363   -1.919955
     15          6           0        3.283825   -0.433015   -0.099881
     16          6           0        4.444711    0.545166    0.083122
     17          6           0        5.453448    0.486765   -1.064411
     18          1           0        3.682508   -1.452936   -0.187959
     19          1           0        2.774573   -0.213475   -1.048491
     20          1           0        4.950768    0.324733    1.031769
     21          1           0        4.043206    1.562856    0.170967
     22          1           0        4.968792    0.727940   -2.016012
     23          1           0        5.881512   -0.517218   -1.150319
     24          1           0        6.274904    1.194020   -0.913222
     25          6           0        2.267009   -0.386371    1.039258
     26          6           0        1.106123   -1.364552    0.856255
     27          6           0        0.097386   -1.306151    2.003789
     28          1           0        2.776261   -0.605911    1.987868
     29          1           0        1.868326    0.633550    1.127336
     30          1           0        1.507628   -2.382242    0.768411
     31          1           0        0.600065   -1.144119   -0.092392
     32          1           0       -0.330678   -0.302168    2.089697
     33          1           0        0.582041   -1.547326    2.955390
     34          1           0       -0.724071   -2.013405    1.852599
 ---------------------------------------------------------------------

 SCF Done:  E(RHF) =  -669.534820274     A.U. after   15 cycles
 E2 =    -0.2095673886D+01 EUMP2 =    -0.67163049416073D+03

 The electronic state is 1-A.
 Alpha  occ. eigenvalues --  -20.60941 -20.60935 -15.85942 -11.31236 -11.27865
 Alpha  occ. eigenvalues --  -11.27826 -11.27612 -11.26867 -11.26841 -11.21663
 Alpha  occ. eigenvalues --  -11.21350 -11.21306 -11.21245 -11.21136 -11.20699
 Alpha  occ. eigenvalues --   -1.59984  -1.39544  -1.19467  -1.08865  -1.08343
 Alpha  occ. eigenvalues --   -1.04867  -1.03428  -0.95894  -0.95695  -0.86914
 Alpha  occ. eigenvalues --   -0.86251  -0.82537  -0.79496  -0.78151  -0.77586
 Alpha  occ. eigenvalues --   -0.72179  -0.71332  -0.70575  -0.65118  -0.64995
 Alpha  occ. eigenvalues --   -0.64858  -0.62209  -0.60882  -0.59234  -0.57472
 Alpha  occ. eigenvalues --   -0.55391  -0.55309  -0.53083  -0.52949  -0.52547
 Alpha  occ. eigenvalues --   -0.52263  -0.49835  -0.48950  -0.48935  -0.47805
 Alpha  occ. eigenvalues --   -0.46594  -0.45739  -0.45648  -0.44827  -0.43635
 Alpha  occ. eigenvalues --   -0.37398  -0.36391
 Alpha virt. eigenvalues --    0.04905   0.11121   0.16389   0.21213   0.22875
 Alpha virt. eigenvalues --    0.24323   0.26398   0.27085   0.27357   0.28252
 Alpha virt. eigenvalues --    0.28427   0.30664   0.31220   0.31720   0.32174

 Mulliken charges:
               1
     1  C   -0.170707
     2  C   -0.218871
     3  C   -0.173134
     4  C    0.163130
     5  C   -0.169957
     6  C   -0.219382
     7  H    0.226253
     8  H    0.223848
     9  H    0.275616
    10  H    0.276314
    11  H    0.224223
    12  N    0.490545
    13  O   -0.458933
    14  O   -0.458927
    15  C   -0.297417
    16  C   -0.299114
    17  C   -0.475369
    18  H    0.152317
    19  H    0.147219
    20  H    0.152355
    21  H    0.148052
    22  H    0.153928
    23  H    0.156919
    24  H    0.159420
    25  C   -0.297948
    26  C   -0.302057
    27  C   -0.490931
    28  H    0.148928
    29  H    0.145827
    30  H    0.156165
    31  H    0.152713
    32  H    0.154481
    33  H    0.153381
    34  H    0.171114
 Sum of Mulliken charges =  -0.00000

 Dipole moment (field-independent basis, Debye):
    X=              0.4990    Y=              4.8819    Z=              1.4735  Tot=              5.1238
 Quadrupole moment (field-independent basis, Debye-Ang):
   XX=            -96.9368   YY=            -93.6417   ZZ=            -93.5253
   XY=            -10.9521   XZ=             -5.4828   YZ=             -3.1173

 Normal termination of Gaussian 16 at Thu May  6 14:10:34 2021.
