 Gaussian 16, Revision A.03,
 Gaussian 16:  EM64L-G16RevA.03 25-Dec-2016

 -------------
 #p 6-31g* mp2
 -------------

 ------------------------------------------------------
 Input file generated by CHIRIPA (05-May-2021 14:57:24)
 ------------------------------------------------------
 Symbolic Z-matrix:
 Charge =  0 Multiplicity = 1

                         Standard orientation:
 ---------------------------------------------------------------------
 Center     Atomic      Atomic             Coordinates (Angstroms)
 Number     Number       Type             X           Y           Z
 ---------------------------------------------------------------------
      1          6           0        5.246725    0.982867    0.011022
      2          6           0        4.035583    1.620512   -0.277187
      3          6           0        2.851316    0.884071   -0.375743
      4          6           0        2.914941   -0.494575   -0.179337
      5          6           0        4.106115   -1.158796    0.109119
      6          6           0        5.278070   -0.402310    0.202917
      7          1           0        6.161910    1.562738    0.085735
      8          1           0        4.008244    2.696126   -0.426698
      9          1           0        1.899999    1.352198   -0.597713
     10          1           0        4.101796   -2.232423    0.253074
     11          1           0        6.217223   -0.900188    0.426865
     12          7           0        1.667727   -1.284823   -0.281155
     13          8           0        1.750436   -2.498228   -0.103829
     14          8           0        0.631069   -0.675850   -0.536358
     15          6           0       -4.771943   -1.499162   -0.244919
     16          6           0       -4.870561   -0.305885   -0.968028
     17          6           0       -3.961036    0.733351   -0.750538
     18          6           0       -2.960841    0.544489    0.201949
     19          6           0       -2.836415   -0.632594    0.938350
     20          6           0       -3.756974   -1.658427    0.704289
     21          1           0       -5.482769   -2.301260   -0.420307
     22          1           0       -5.657777   -0.179406   -1.705821
     23          1           0       -4.014291    1.667566   -1.296271
     24          1           0       -2.040916   -0.729258    1.667223
     25          1           0       -3.677966   -2.584049    1.267339
     26          7           0       -1.992127    1.637587    0.440968
     27          8           0       -1.120040    1.446366    1.285678
     28          8           0       -2.123280    2.664882   -0.220926
 ---------------------------------------------------------------------

 SCF Done:  E(RHF) =  -868.340041824     A.U. after   16 cycles
 E2 =    -0.2599568245D+01 EUMP2 =    -0.87093961006827D+03

 The electronic state is 1-A.
 Alpha  occ. eigenvalues --  -20.60472 -20.60412 -20.60023 -20.59959 -15.85478
 Alpha  occ. eigenvalues --  -15.85023 -11.30640 -11.30163 -11.27273 -11.27096
 Alpha  occ. eigenvalues --  -11.26976 -11.26814 -11.26688 -11.26540 -11.26254
 Alpha  occ. eigenvalues --  -11.26138 -11.25808 -11.25705  -1.59512  -1.59045
 Alpha  occ. eigenvalues --   -1.39068  -1.38606  -1.18817  -1.18346  -1.08264
 Alpha  occ. eigenvalues --   -1.07799  -1.04187  -1.03740  -0.95126  -0.94670
 Alpha  occ. eigenvalues --   -0.85599  -0.85156  -0.81968  -0.81523  -0.77020
 Alpha  occ. eigenvalues --   -0.76570  -0.71776  -0.71290  -0.70826  -0.70245
 Alpha  occ. eigenvalues --   -0.69934  -0.69515  -0.64479  -0.64201  -0.64032
 Alpha  occ. eigenvalues --   -0.63784  -0.61520  -0.61105  -0.54736  -0.54312
 Alpha  occ. eigenvalues --   -0.52539  -0.52281  -0.52052  -0.51863  -0.48478
 Alpha  occ. eigenvalues --   -0.48465  -0.48032  -0.48021  -0.44665  -0.43880
 Alpha  occ. eigenvalues --   -0.36817  -0.36326  -0.35778  -0.35304
 Alpha virt. eigenvalues --    0.05449   0.06033   0.11875   0.12346   0.16993
 Alpha virt. eigenvalues --    0.17499   0.21980   0.22332   0.27924   0.28238
 Alpha virt. eigenvalues --    0.28846   0.29235   0.31465   0.31849   0.33154

 Mulliken charges:
               1
     1  C   -0.170465
     2  C   -0.219800
     3  C   -0.167203
     4  C    0.156540
     5  C   -0.171609
     6  C   -0.219445
     7  H    0.224128
     8  H    0.225624
     9  H    0.286403
    10  H    0.272595
    11  H    0.220953
    12  N    0.489008
    13  O   -0.466606
    14  O   -0.460436
    15  C   -0.170222
    16  C   -0.219406
    17  C   -0.171285
    18  C    0.162286
    19  C   -0.155597
    20  C   -0.218668
    21  H    0.222349
    22  H    0.219229
    23  H    0.271388
    24  H    0.276724
    25  H    0.222436
    26  N    0.491033
    27  O   -0.460811
    28  O   -0.469143
 Sum of Mulliken charges =  -0.00000

 Dipole moment (field-independent basis, Debye):
    X=              1.0713    Y=             -1.0355    Z=             -0.4262  Tot=              1.5497
 Quadrupole moment (field-independent basis, Debye-Ang):
   XX=            -59.1332   YY=           -107.8548   ZZ=           -104.1119
   XY=             12.6246   XZ=              4.3936   YZ=             -5.2122

 Normal termination of Gaussian 16 at Fri May  7 09:34:11 2021.
