 Gaussian 16, Revision A.03,
 Gaussian 16:  EM64L-G16RevA.03 25-Dec-2016

 -------------
 #p 6-31g* mp2
 -------------

 ------------------------------------------------------
 Input file generated by CHIRIPA (05-May-2021 14:55:21)
 ------------------------------------------------------
 Symbolic Z-matrix:
 Charge =  0 Multiplicity = 1

                         Standard orientation:
 ---------------------------------------------------------------------
 Center     Atomic      Atomic             Coordinates (Angstroms)
 Number     Number       Type             X           Y           Z
 ---------------------------------------------------------------------
      1          6           0       -1.311599    1.724844    0.790706
      2          6           0       -1.923114    0.923444    1.760411
      3          6           0       -2.844159   -0.061003    1.390157
      4          6           0       -3.131619   -0.217549    0.035111
      5          6           0       -2.538998    0.565162   -0.954563
      6          6           0       -1.620947    1.543465   -0.561302
      7          1           0       -0.597272    2.487200    1.087264
      8          1           0       -1.684789    1.062070    2.811139
      9          1           0       -3.332261   -0.695313    2.120106
     10          1           0       -2.796794    0.403420   -1.994177
     11          1           0       -1.147576    2.164387   -1.316565
     12          7           0       -4.105103   -1.256487   -0.369038
     13          8           0       -4.341283   -1.374520   -1.569423
     14          8           0       -4.613508   -1.933102    0.522228
     15          6           0        4.157050   -0.451564    0.313854
     16          6           0        4.954648   -1.490907   -0.474554
     17          6           0        5.657034   -2.505990    0.427696
     18          1           0        4.832213    0.073816    1.003113
     19          1           0        3.412741   -0.966310    0.937100
     20          1           0        5.696305   -0.974272   -1.097170
     21          1           0        4.277544   -2.013743   -1.162153
     22          1           0        4.927854   -3.047415    1.039050
     23          1           0        6.354675   -2.002040    1.104402
     24          1           0        6.221268   -3.239583   -0.156549
     25          6           0        3.449163    0.570141   -0.574257
     26          6           0        2.651567    1.609485    0.214152
     27          6           0        1.949180    2.624568   -0.688098
     28          1           0        4.193474    1.084888   -1.197502
     29          1           0        2.774002    0.044762   -1.263515
     30          1           0        3.328670    2.132320    0.901750
     31          1           0        1.909910    1.092850    0.836768
     32          1           0        1.251540    2.120616   -1.364804
     33          1           0        2.678361    3.165993   -1.299452
     34          1           0        1.384946    3.358160   -0.103853
 ---------------------------------------------------------------------

 SCF Done:  E(RHF) =  -669.534606051     A.U. after   15 cycles
 E2 =    -0.2092724417D+01 EUMP2 =    -0.67162733046766D+03

 The electronic state is 1-A.
 Alpha  occ. eigenvalues --  -20.60760 -20.60755 -15.85813 -11.31175 -11.27746
 Alpha  occ. eigenvalues --  -11.27733 -11.27441 -11.26755 -11.26703 -11.22514
 Alpha  occ. eigenvalues --  -11.22296 -11.22046 -11.21980 -11.21870 -11.21369
 Alpha  occ. eigenvalues --   -1.59836  -1.39389  -1.19347  -1.09074  -1.08733
 Alpha  occ. eigenvalues --   -1.04753  -1.04217  -0.96702  -0.95565  -0.87726
 Alpha  occ. eigenvalues --   -0.86135  -0.82409  -0.80300  -0.78827  -0.77458
 Alpha  occ. eigenvalues --   -0.72031  -0.71159  -0.70478  -0.65723  -0.64993
 Alpha  occ. eigenvalues --   -0.64765  -0.62166  -0.61528  -0.60135  -0.58306
 Alpha  occ. eigenvalues --   -0.55969  -0.55222  -0.53413  -0.53133  -0.53044
 Alpha  occ. eigenvalues --   -0.52782  -0.50587  -0.48797  -0.48786  -0.48595
 Alpha  occ. eigenvalues --   -0.47292  -0.46381  -0.46263  -0.44796  -0.44457
 Alpha  occ. eigenvalues --   -0.37294  -0.36348
 Alpha virt. eigenvalues --    0.05049   0.11205   0.16460   0.20081   0.22600
 Alpha virt. eigenvalues --    0.24038   0.25608   0.26134   0.26259   0.27547
 Alpha virt. eigenvalues --    0.29206   0.29714   0.31190   0.31540   0.32314

 Mulliken charges:
               1
     1  C   -0.170480
     2  C   -0.220587
     3  C   -0.170816
     4  C    0.158426
     5  C   -0.172093
     6  C   -0.221257
     7  H    0.230295
     8  H    0.223601
     9  H    0.275464
    10  H    0.275454
    11  H    0.226465
    12  N    0.488047
    13  O   -0.460499
    14  O   -0.460513
    15  C   -0.299062
    16  C   -0.300365
    17  C   -0.476141
    18  H    0.149794
    19  H    0.150727
    20  H    0.152361
    21  H    0.153707
    22  H    0.156132
    23  H    0.155132
    24  H    0.161943
    25  C   -0.298863
    26  C   -0.302437
    27  C   -0.481882
    28  H    0.151012
    29  H    0.152233
    30  H    0.153903
    31  H    0.152520
    32  H    0.155300
    33  H    0.162069
    34  H    0.150410
 Sum of Mulliken charges =  -0.00000

 Dipole moment (field-independent basis, Debye):
    X=              3.5944    Y=              3.5916    Z=              1.3994  Tot=              5.2705
 Quadrupole moment (field-independent basis, Debye-Ang):
   XX=           -116.1260   YY=            -97.1359   ZZ=            -90.3454
   XY=            -11.2822   XZ=             -5.4205   YZ=             -1.1859

 Normal termination of Gaussian 16 at Wed May  5 20:36:11 2021.
