 Gaussian 16, Revision A.03,
 Gaussian 16:  EM64L-G16RevA.03 25-Dec-2016

 -------------
 #p 6-31g* mp2
 -------------

 ------------------------------------------------------
 Input file generated by CHIRIPA (05-May-2021 14:51:13)
 ------------------------------------------------------
 Symbolic Z-matrix:
 Charge =  0 Multiplicity = 1

                         Standard orientation:
 ---------------------------------------------------------------------
 Center     Atomic      Atomic             Coordinates (Angstroms)
 Number     Number       Type             X           Y           Z
 ---------------------------------------------------------------------
      1          6           0        2.973152   -0.243974   -0.263073
      2          6           0        4.423006   -0.066805    0.189167
      3          6           0        5.038542    1.244793   -0.299319
      4          1           0        2.930365   -0.203368   -1.360099
      5          1           0        2.375756    0.601818    0.104553
      6          1           0        5.017209   -0.913388   -0.178032
      7          1           0        4.462372   -0.108028    1.285236
      8          1           0        4.470597    2.101125    0.078484
      9          1           0        5.028587    1.291189   -1.393097
     10          1           0        6.075174    1.350938    0.035327
     11          6           0        2.344014   -1.550496    0.217461
     12          6           0        0.894160   -1.727664   -0.234779
     13          6           0        0.278624   -3.039263    0.253708
     14          1           0        2.941410   -2.396288   -0.150165
     15          1           0        2.386801   -1.591101    1.314487
     16          1           0        0.854794   -1.686441   -1.330848
     17          1           0        0.299957   -0.881081    0.132420
     18          1           0        0.288579   -3.085658    1.347485
     19          1           0        0.846569   -3.895594   -0.124096
     20          1           0       -0.758008   -3.145407   -0.080939
     21          6           0       -2.822544    0.170178    0.189948
     22          6           0       -4.151758   -0.302639   -0.399645
     23          6           0       -4.465846   -1.759162   -0.056596
     24          1           0       -2.014646   -0.477077   -0.177893
     25          1           0       -2.849160    0.047134    1.281528
     26          1           0       -4.123160   -0.177449   -1.489657
     27          1           0       -4.956560    0.345934   -0.030509
     28          1           0       -4.521509   -1.896065    1.028190
     29          1           0       -3.683374   -2.422423   -0.439249
     30          1           0       -5.420376   -2.076370   -0.488001
     31          6           0       -2.494622    1.624292   -0.144336
     32          6           0       -1.165408    2.097108    0.445257
     33          6           0       -0.851320    3.553632    0.102208
     34          1           0       -2.468006    1.747335   -1.235916
     35          1           0       -3.302520    2.271547    0.223504
     36          1           0       -0.360606    1.448534    0.076121
     37          1           0       -1.194007    1.971918    1.535269
     38          1           0       -1.633792    4.216892    0.484861
     39          1           0       -0.795657    3.690534   -0.982578
     40          1           0        0.103210    3.870840    0.533614
 ---------------------------------------------------------------------

 SCF Done:  E(RHF) =  -470.732599303     A.U. after   11 cycles
 E2 =    -0.1584562450D+01 EUMP2 =    -0.47231716175255D+03

 The electronic state is 1-A.
 Alpha  occ. eigenvalues --  -11.21617 -11.21614 -11.21598 -11.21579 -11.21420
 Alpha  occ. eigenvalues --  -11.21395 -11.21359 -11.21321 -11.21093 -11.21086
 Alpha  occ. eigenvalues --  -11.21084 -11.21079  -1.08483  -1.08403  -1.03547
 Alpha  occ. eigenvalues --   -1.03541  -0.96010  -0.95972  -0.87008  -0.87004
 Alpha  occ. eigenvalues --   -0.79652  -0.79596  -0.78445  -0.78080  -0.65254
 Alpha  occ. eigenvalues --   -0.64918  -0.60970  -0.60922  -0.59396  -0.59334
 Alpha  occ. eigenvalues --   -0.57682  -0.57537  -0.55331  -0.55220  -0.52722
 Alpha  occ. eigenvalues --   -0.52664  -0.52426  -0.52403  -0.49952  -0.49917
 Alpha  occ. eigenvalues --   -0.48051  -0.47874  -0.46899  -0.46648  -0.46164
 Alpha  occ. eigenvalues --   -0.45779  -0.45738  -0.44939  -0.43800  -0.43776
 Alpha virt. eigenvalues --    0.20937   0.21979   0.23469   0.24185   0.25673
 Alpha virt. eigenvalues --    0.26545   0.26891   0.27164   0.27240   0.29546
 Alpha virt. eigenvalues --    0.30717   0.31407   0.31755   0.31806   0.32543

 Mulliken charges:
               1
     1  C   -0.301703
     2  C   -0.299593
     3  C   -0.475704
     4  H    0.149330
     5  H    0.152428
     6  H    0.152100
     7  H    0.152058
     8  H    0.155207
     9  H    0.155167
    10  H    0.160317
    11  C   -0.297123
    12  C   -0.310652
    13  C   -0.477640
    14  H    0.149472
    15  H    0.149701
    16  H    0.150543
    17  H    0.162943
    18  H    0.155781
    19  H    0.155359
    20  H    0.161523
    21  C   -0.306904
    22  C   -0.299201
    23  C   -0.477172
    24  H    0.159805
    25  H    0.148770
    26  H    0.151807
    27  H    0.151935
    28  H    0.155481
    29  H    0.155940
    30  H    0.160398
    31  C   -0.297613
    32  C   -0.308698
    33  C   -0.475061
    34  H    0.149414
    35  H    0.149672
    36  H    0.160066
    37  H    0.151205
    38  H    0.155345
    39  H    0.155556
    40  H    0.159737
 Sum of Mulliken charges =  -0.00000

 Dipole moment (field-independent basis, Debye):
    X=              0.0035    Y=              0.0007    Z=              0.0035  Tot=              0.0050
 Quadrupole moment (field-independent basis, Debye-Ang):
   XX=            -84.9691   YY=            -86.4429   ZZ=            -83.4314
   XY=             -1.1930   XZ=             -0.4411   YZ=              1.0406

 Normal termination of Gaussian 16 at Wed May  5 20:00:03 2021.
