 Gaussian 16, Revision A.03,
 Gaussian 16:  EM64L-G16RevA.03 25-Dec-2016

 -------------
 #p 6-31g* mp2
 -------------

 ------------------------------------------------------
 Input file generated by CHIRIPA (05-May-2021 14:57:24)
 ------------------------------------------------------
 Symbolic Z-matrix:
 Charge =  0 Multiplicity = 1

                         Standard orientation:
 ---------------------------------------------------------------------
 Center     Atomic      Atomic             Coordinates (Angstroms)
 Number     Number       Type             X           Y           Z
 ---------------------------------------------------------------------
      1          6           0        2.177186   -1.293934    1.471167
      2          6           0        1.788666   -0.296129    0.571190
      3          6           0        2.744026    0.387746   -0.186536
      4          6           0        4.085177    0.046712   -0.018306
      5          6           0        4.503707   -0.942600    0.870168
      6          6           0        3.531080   -1.613421    1.617525
      7          1           0        1.428333   -1.820114    2.055760
      8          1           0        0.737932   -0.045909    0.455454
      9          1           0        2.470986    1.164471   -0.890499
     10          1           0        5.558699   -1.169888    0.963700
     11          1           0        3.835718   -2.387883    2.315701
     12          7           0        5.105714    0.763790   -0.814988
     13          8           0        6.280878    0.444644   -0.648340
     14          8           0        4.711123    1.631404   -1.590992
     15          6           0       -3.810218   -2.264903   -1.059507
     16          6           0       -5.049708   -1.660266   -0.825841
     17          6           0       -5.120853   -0.366148   -0.301681
     18          6           0       -3.927301    0.297343   -0.021491
     19          6           0       -2.677134   -0.278156   -0.243242
     20          6           0       -2.629968   -1.573137   -0.767976
     21          1           0       -3.764264   -3.270539   -1.466911
     22          1           0       -5.967937   -2.195121   -1.051299
     23          1           0       -6.066983    0.125691   -0.111027
     24          1           0       -1.778987    0.280091   -0.008485
     25          1           0       -1.665954   -2.040216   -0.948422
     26          7           0       -3.989926    1.667825    0.533717
     27          8           0       -2.923894    2.231190    0.772113
     28          8           0       -5.103859    2.152695    0.719981
 ---------------------------------------------------------------------

 SCF Done:  E(RHF) =  -868.336894959     A.U. after   16 cycles
 E2 =    -0.2599580413D+01 EUMP2 =    -0.87093647537205D+03

 The electronic state is 1-A.
 Alpha  occ. eigenvalues --  -20.61392 -20.61375 -20.60933 -20.60927 -15.86442
 Alpha  occ. eigenvalues --  -15.85992 -11.31900 -11.31449 -11.28582 -11.28406
 Alpha  occ. eigenvalues --  -11.28171 -11.28056 -11.28035 -11.27845 -11.27532
 Alpha  occ. eigenvalues --  -11.27427 -11.27173 -11.27060  -1.60457  -1.60007
 Alpha  occ. eigenvalues --   -1.40011  -1.39557  -1.20064  -1.19650  -1.09427
 Alpha  occ. eigenvalues --   -1.09034  -1.05494  -1.05074  -0.96259  -0.95844
 Alpha  occ. eigenvalues --   -0.86878  -0.86476  -0.83098  -0.82679  -0.78153
 Alpha  occ. eigenvalues --   -0.77700  -0.72656  -0.72208  -0.71781  -0.71332
 Alpha  occ. eigenvalues --   -0.71174  -0.70759  -0.65721  -0.65509  -0.65308
 Alpha  occ. eigenvalues --   -0.65104  -0.62899  -0.62368  -0.55955  -0.55583
 Alpha  occ. eigenvalues --   -0.53794  -0.53616  -0.53390  -0.53148  -0.49424
 Alpha  occ. eigenvalues --   -0.49407  -0.48977  -0.48955  -0.45396  -0.44942
 Alpha  occ. eigenvalues --   -0.38015  -0.37646  -0.37096  -0.36676
 Alpha virt. eigenvalues --    0.04409   0.04848   0.10563   0.10947   0.15898
 Alpha virt. eigenvalues --    0.16298   0.18025   0.21916   0.24314   0.27121
 Alpha virt. eigenvalues --    0.28020   0.29039   0.29846   0.30931   0.32006

 Mulliken charges:
               1
     1  C   -0.173013
     2  C   -0.223320
     3  C   -0.171464
     4  C    0.158803
     5  C   -0.170155
     6  C   -0.218535
     7  H    0.225700
     8  H    0.222654
     9  H    0.278692
    10  H    0.276770
    11  H    0.224339
    12  N    0.488036
    13  O   -0.459887
    14  O   -0.458771
    15  C   -0.170448
    16  C   -0.218084
    17  C   -0.169541
    18  C    0.161788
    19  C   -0.180114
    20  C   -0.220614
    21  H    0.227956
    22  H    0.226246
    23  H    0.277979
    24  H    0.274062
    25  H    0.222145
    26  N    0.487508
    27  O   -0.461705
    28  O   -0.457029
 Sum of Mulliken charges =  -0.00000

 Dipole moment (field-independent basis, Debye):
    X=             -3.4766    Y=             -7.3747    Z=              0.8253  Tot=              8.1947
 Quadrupole moment (field-independent basis, Debye-Ang):
   XX=           -126.7721   YY=           -107.4185   ZZ=           -105.2761
   XY=              6.8037   XZ=             21.4620   YZ=             -1.6158

 Normal termination of Gaussian 16 at Thu May  6 18:01:57 2021.
