 Gaussian 16, Revision A.03,
 Gaussian 16:  EM64L-G16RevA.03 25-Dec-2016

 -------------
 #p 6-31g* mp2
 -------------

 ------------------------------------------------------
 Input file generated by CHIRIPA (05-May-2021 14:57:21)
 ------------------------------------------------------
 Symbolic Z-matrix:
 Charge =  0 Multiplicity = 1

                         Standard orientation:
 ---------------------------------------------------------------------
 Center     Atomic      Atomic             Coordinates (Angstroms)
 Number     Number       Type             X           Y           Z
 ---------------------------------------------------------------------
      1          6           0        1.694258    1.755849    0.570006
      2          6           0        2.564828    2.131400   -0.458386
      3          6           0        3.679460    1.346090   -0.767306
      4          6           0        3.894243    0.186367   -0.024203
      5          6           0        3.045209   -0.214423    1.006233
      6          6           0        1.936799    0.586198    1.297751
      7          1           0        0.830802    2.371843    0.803223
      8          1           0        2.378952    3.039245   -1.025230
      9          1           0        4.369606    1.613341   -1.558314
     10          1           0        3.256683   -1.124895    1.553717
     11          1           0        1.262399    0.292078    2.096952
     12          7           0        5.070960   -0.653110   -0.342031
     13          8           0        5.238077   -1.670195    0.327480
     14          8           0        5.803873   -0.278110   -1.254638
     15          6           0       -5.692006    1.191506   -0.344565
     16          6           0       -5.754990   -0.142709   -0.759806
     17          6           0       -4.657518   -0.991881   -0.589486
     18          6           0       -3.507755   -0.471307    0.002408
     19          6           0       -3.414201    0.853332    0.426522
     20          6           0       -4.523873    1.684399    0.246233
     21          1           0       -6.549288    1.844132   -0.480745
     22          1           0       -6.660876   -0.528224   -1.218928
     23          1           0       -4.679097   -2.028909   -0.901776
     24          1           0       -2.497449    1.208888    0.881012
     25          1           0       -4.472110    2.720135    0.569676
     26          7           0       -2.339453   -1.360704    0.187995
     27          8           0       -1.338094   -0.877810    0.712144
     28          8           0       -2.447218   -2.523867   -0.194204
 ---------------------------------------------------------------------

 SCF Done:  E(RHF) =  -868.338222156     A.U. after   16 cycles
 E2 =    -0.2599390977D+01 EUMP2 =    -0.87093761313351D+03

 The electronic state is 1-A.
 Alpha  occ. eigenvalues --  -20.61506 -20.61461 -20.60072 -20.60056 -15.86535
 Alpha  occ. eigenvalues --  -15.85113 -11.31849 -11.30376 -11.28478 -11.28359
 Alpha  occ. eigenvalues --  -11.28107 -11.27432 -11.27360 -11.26961 -11.26823
 Alpha  occ. eigenvalues --  -11.26700 -11.26035 -11.25806  -1.60547  -1.59142
 Alpha  occ. eigenvalues --   -1.40109  -1.38699  -1.20007  -1.18524  -1.09403
 Alpha  occ. eigenvalues --   -1.07958  -1.05408  -1.03896  -0.96254  -0.94816
 Alpha  occ. eigenvalues --   -0.86806  -0.85315  -0.83096  -0.81639  -0.78160
 Alpha  occ. eigenvalues --   -0.76686  -0.72767  -0.71860  -0.71339  -0.71114
 Alpha  occ. eigenvalues --   -0.70459  -0.69698  -0.65666  -0.65408  -0.64187
 Alpha  occ. eigenvalues --   -0.63896  -0.62768  -0.61243  -0.55890  -0.54489
 Alpha  occ. eigenvalues --   -0.53728  -0.53501  -0.52235  -0.51993  -0.49528
 Alpha  occ. eigenvalues --   -0.49485  -0.48097  -0.48086  -0.45523  -0.44127
 Alpha  occ. eigenvalues --   -0.37966  -0.37007  -0.36516  -0.35454
 Alpha virt. eigenvalues --    0.04386   0.05821   0.10649   0.12169   0.15902
 Alpha virt. eigenvalues --    0.17335   0.20194   0.22035   0.25961   0.27161
 Alpha virt. eigenvalues --    0.28305   0.28955   0.30782   0.31338   0.32953

 Mulliken charges:
               1
     1  C   -0.170097
     2  C   -0.218670
     3  C   -0.172784
     4  C    0.158478
     5  C   -0.170930
     6  C   -0.204606
     7  H    0.215714
     8  H    0.218053
     9  H    0.272388
    10  H    0.276327
    11  H    0.231092
    12  N    0.488142
    13  O   -0.460222
    14  O   -0.463481
    15  C   -0.170350
    16  C   -0.218107
    17  C   -0.170185
    18  C    0.159377
    19  C   -0.170117
    20  C   -0.217995
    21  H    0.227581
    22  H    0.225946
    23  H    0.277788
    24  H    0.266956
    25  H    0.222999
    26  N    0.491478
    27  O   -0.469820
    28  O   -0.454956
 Sum of Mulliken charges =  -0.00000

 Dipole moment (field-independent basis, Debye):
    X=             -8.6289    Y=              5.8589    Z=              0.5097  Tot=             10.4424
 Quadrupole moment (field-independent basis, Debye-Ang):
   XX=           -107.5036   YY=           -102.7050   ZZ=           -102.4804
   XY=              4.5307   XZ=              7.5406   YZ=             -0.3671

 Normal termination of Gaussian 16 at Wed May  5 22:34:04 2021.
