 Gaussian 16, Revision A.03,
 Gaussian 16:  EM64L-G16RevA.03 25-Dec-2016

 -------------
 #p 6-31g* mp2
 -------------

 ------------------------------------------------------
 Input file generated by CHIRIPA (05-May-2021 14:53:13)
 ------------------------------------------------------
 Symbolic Z-matrix:
 Charge =  0 Multiplicity = 1

                         Standard orientation:
 ---------------------------------------------------------------------
 Center     Atomic      Atomic             Coordinates (Angstroms)
 Number     Number       Type             X           Y           Z
 ---------------------------------------------------------------------
      1          6           0       -2.355428   -0.933526   -0.982727
      2          6           0       -1.110255   -1.770034   -0.686443
      3          6           0       -0.498782   -2.386205   -1.945104
      4          1           0       -3.102351   -1.564244   -1.483971
      5          1           0       -2.092873   -0.136372   -1.691956
      6          1           0       -1.374768   -2.564528    0.023084
      7          1           0       -0.366282   -1.137301   -0.185674
      8          1           0       -0.207227   -1.604573   -2.654081
      9          1           0       -1.221443   -3.039909   -2.444137
     10          1           0        0.390129   -2.979966   -1.710276
     11          6           0       -2.978130   -0.310930    0.265609
     12          6           0       -4.223303    0.525577   -0.030675
     13          6           0       -4.834775    1.141748    1.227986
     14          1           0       -3.240685   -1.108085    0.974837
     15          1           0       -2.231206    0.319787    0.766853
     16          1           0       -4.967275   -0.107156   -0.531444
     17          1           0       -3.958790    1.320071   -0.740202
     18          1           0       -4.112115    1.795453    1.727019
     19          1           0       -5.126330    0.360116    1.936963
     20          1           0       -5.723687    1.735509    0.993158
     21          6           0        2.564620   -1.551124    1.688679
     22          6           0        3.271321   -1.338853    0.500388
     23          6           0        3.013022   -0.213546   -0.287974
     24          6           0        2.036900    0.683069    0.143950
     25          6           0        1.315961    0.499327    1.322838
     26          6           0        1.590912   -0.632975    2.095395
     27          1           0        2.771740   -2.428006    2.294958
     28          1           0        4.028069   -2.050220    0.182058
     29          1           0        3.545271   -0.024730   -1.212352
     30          1           0        0.567437    1.226149    1.614141
     31          1           0        1.040521   -0.795261    3.017771
     32          7           0        1.754636    1.878083   -0.682287
     33          8           0        0.889742    2.653061   -0.279789
     34          8           0        2.403637    2.017129   -1.716744
 ---------------------------------------------------------------------

 SCF Done:  E(RHF) =  -669.534836854     A.U. after   15 cycles
 E2 =    -0.2094184813D+01 EUMP2 =    -0.67162902166740D+03

 The electronic state is 1-A.
 Alpha  occ. eigenvalues --  -20.60875 -20.60869 -15.85927 -11.31287 -11.27870
 Alpha  occ. eigenvalues --  -11.27840 -11.27604 -11.26889 -11.26856 -11.21449
 Alpha  occ. eigenvalues --  -11.21425 -11.21352 -11.21214 -11.21025 -11.20970
 Alpha  occ. eigenvalues --   -1.59951  -1.39504  -1.19486  -1.08864  -1.08327
 Alpha  occ. eigenvalues --   -1.04881  -1.03424  -0.95891  -0.95700  -0.86909
 Alpha  occ. eigenvalues --   -0.86270  -0.82527  -0.79497  -0.78162  -0.77575
 Alpha  occ. eigenvalues --   -0.72144  -0.71283  -0.70574  -0.65123  -0.64984
 Alpha  occ. eigenvalues --   -0.64849  -0.62219  -0.60853  -0.59280  -0.57517
 Alpha  occ. eigenvalues --   -0.55370  -0.55195  -0.53280  -0.52958  -0.52555
 Alpha  occ. eigenvalues --   -0.52317  -0.49820  -0.48904  -0.48899  -0.47796
 Alpha  occ. eigenvalues --   -0.46493  -0.45689  -0.45599  -0.44897  -0.43687
 Alpha  occ. eigenvalues --   -0.37444  -0.36390
 Alpha virt. eigenvalues --    0.04926   0.11100   0.16428   0.20963   0.22923
 Alpha virt. eigenvalues --    0.24237   0.25745   0.27067   0.27771   0.27979
 Alpha virt. eigenvalues --    0.28966   0.30917   0.31406   0.31890   0.31912

 Mulliken charges:
               1
     1  C   -0.298931
     2  C   -0.307891
     3  C   -0.475250
     4  H    0.148764
     5  H    0.155443
     6  H    0.146135
     7  H    0.161971
     8  H    0.158163
     9  H    0.154416
    10  H    0.155401
    11  C   -0.297519
    12  C   -0.300154
    13  C   -0.475890
    14  H    0.145694
    15  H    0.146001
    16  H    0.151372
    17  H    0.157961
    18  H    0.155358
    19  H    0.152426
    20  H    0.161343
    21  C   -0.170600
    22  C   -0.217453
    23  C   -0.170929
    24  C    0.163148
    25  C   -0.180759
    26  C   -0.212964
    27  H    0.226340
    28  H    0.224186
    29  H    0.276233
    30  H    0.276326
    31  H    0.224749
    32  N    0.487971
    33  O   -0.461045
    34  O   -0.460018
 Sum of Mulliken charges =  -0.00000

 Dipole moment (field-independent basis, Debye):
    X=              1.0970    Y=             -4.1236    Z=              2.8968  Tot=              5.1574
 Quadrupole moment (field-independent basis, Debye-Ang):
   XX=            -88.5632   YY=           -100.5867   ZZ=            -92.7483
   XY=             -8.7738   XZ=              4.1382   YZ=              1.7405

 Normal termination of Gaussian 16 at Thu May  6 15:22:13 2021.
