 Gaussian 16, Revision A.03,
 Gaussian 16:  EM64L-G16RevA.03 25-Dec-2016

 -------------
 #p 6-31g* mp2
 -------------

 ------------------------------------------------------
 Input file generated by CHIRIPA (05-May-2021 14:53:12)
 ------------------------------------------------------
 Symbolic Z-matrix:
 Charge =  0 Multiplicity = 1

                         Standard orientation:
 ---------------------------------------------------------------------
 Center     Atomic      Atomic             Coordinates (Angstroms)
 Number     Number       Type             X           Y           Z
 ---------------------------------------------------------------------
      1          6           0        3.411260    0.177653    0.550321
      2          6           0        3.411213    1.246527    1.643707
      3          6           0        2.013276    1.527584    2.195588
      4          1           0        2.750491    0.498026   -0.266802
      5          1           0        2.982086   -0.749858    0.953965
      6          1           0        3.841534    2.171333    1.238522
      7          1           0        4.072209    0.923660    2.458236
      8          1           0        1.579020    0.619187    2.625516
      9          1           0        1.347035    1.873949    1.398873
     10          1           0        2.036453    2.294687    2.975892
     11          6           0        4.801579   -0.114373   -0.011339
     12          6           0        4.801627   -1.183248   -1.104725
     13          6           0        6.199564   -1.464304   -1.656606
     14          1           0        5.230754    0.813137   -0.414983
     15          1           0        5.462349   -0.434747    0.805784
     16          1           0        4.140631   -0.860380   -1.919254
     17          1           0        4.371306   -2.108053   -0.699540
     18          1           0        6.865805   -1.810670   -0.859891
     19          1           0        6.633819   -0.555907   -2.086534
     20          1           0        6.176387   -2.231408   -2.436910
     21          6           0       -2.198751    1.951797   -1.410724
     22          6           0       -3.480045    1.505832   -1.751195
     23          6           0       -4.049255    0.411688   -1.092864
     24          6           0       -3.305725   -0.215801   -0.094511
     25          6           0       -2.026910    0.204866    0.267380
     26          6           0       -1.477545    1.301038   -0.404297
     27          1           0       -1.764283    2.802542   -1.927314
     28          1           0       -4.042454    2.009289   -2.532395
     29          1           0       -5.039223    0.045560   -1.336442
     30          1           0       -1.490614   -0.317353    1.050381
     31          1           0       -0.482269    1.645193   -0.137786
     32          7           0       -3.897818   -1.375196    0.609500
     33          8           0       -3.222218   -1.910836    1.485451
     34          8           0       -5.026288   -1.726335    0.272020
 ---------------------------------------------------------------------

 SCF Done:  E(RHF) =  -669.535533823     A.U. after   15 cycles
 E2 =    -0.2091010828D+01 EUMP2 =    -0.67162654465034D+03

 The electronic state is 1-A.
 Alpha  occ. eigenvalues --  -20.60720 -20.60715 -15.85773 -11.31128 -11.27703
 Alpha  occ. eigenvalues --  -11.27683 -11.27446 -11.26720 -11.26685 -11.22285
 Alpha  occ. eigenvalues --  -11.22014 -11.22001 -11.21963 -11.21832 -11.21360
 Alpha  occ. eigenvalues --   -1.59795  -1.39349  -1.19301  -1.08982  -1.08701
 Alpha  occ. eigenvalues --   -1.04702  -1.04088  -0.96555  -0.95536  -0.87574
 Alpha  occ. eigenvalues --   -0.86105  -0.82369  -0.80157  -0.78775  -0.77414
 Alpha  occ. eigenvalues --   -0.71992  -0.71118  -0.70414  -0.65624  -0.64954
 Alpha  occ. eigenvalues --   -0.64722  -0.62094  -0.61459  -0.59918  -0.58148
 Alpha  occ. eigenvalues --   -0.55871  -0.55210  -0.53233  -0.53069  -0.53025
 Alpha  occ. eigenvalues --   -0.52728  -0.50493  -0.48756  -0.48747  -0.48459
 Alpha  occ. eigenvalues --   -0.47179  -0.46322  -0.46222  -0.44757  -0.44328
 Alpha  occ. eigenvalues --   -0.37288  -0.36302
 Alpha virt. eigenvalues --    0.05118   0.11340   0.16601   0.19401   0.22638
 Alpha virt. eigenvalues --    0.23719   0.25131   0.26137   0.27235   0.28064
 Alpha virt. eigenvalues --    0.29298   0.29544   0.31313   0.31521   0.32351

 Mulliken charges:
               1
     1  C   -0.298937
     2  C   -0.299814
     3  C   -0.480653
     4  H    0.143932
     5  H    0.152552
     6  H    0.152637
     7  H    0.156497
     8  H    0.158957
     9  H    0.145444
    10  H    0.165943
    11  C   -0.298641
    12  C   -0.300166
    13  C   -0.476067
    14  H    0.149481
    15  H    0.151888
    16  H    0.151117
    17  H    0.154138
    18  H    0.156272
    19  H    0.154942
    20  H    0.161739
    21  C   -0.172259
    22  C   -0.218529
    23  C   -0.171104
    24  C    0.158605
    25  C   -0.173411
    26  C   -0.224638
    27  H    0.225706
    28  H    0.223099
    29  H    0.275378
    30  H    0.276315
    31  H    0.232664
    32  N    0.488164
    33  O   -0.460515
    34  O   -0.460737
 Sum of Mulliken charges =  -0.00000

 Dipole moment (field-independent basis, Debye):
    X=              2.2793    Y=              4.0409    Z=             -2.4143  Tot=              5.2300
 Quadrupole moment (field-independent basis, Debye-Ang):
   XX=           -105.5852   YY=            -96.8031   ZZ=            -92.7670
   XY=            -14.3665   XZ=             11.5496   YZ=             -0.8082

 Normal termination of Gaussian 16 at Thu May  6 05:41:59 2021.
