 Gaussian 16, Revision A.03,
 Gaussian 16:  EM64L-G16RevA.03 25-Dec-2016

 -------------
 #p 6-31g* mp2
 -------------

 ------------------------------------------------------
 Input file generated by CHIRIPA (05-May-2021 14:55:25)
 ------------------------------------------------------
 Symbolic Z-matrix:
 Charge =  0 Multiplicity = 1

                         Standard orientation:
 ---------------------------------------------------------------------
 Center     Atomic      Atomic             Coordinates (Angstroms)
 Number     Number       Type             X           Y           Z
 ---------------------------------------------------------------------
      1          6           0        0.529079    0.664366    2.015602
      2          6           0        0.589667   -0.702458    1.724667
      3          6           0        1.506609   -1.189080    0.788204
      4          6           0        2.351798   -0.276646    0.158593
      5          6           0        2.315600    1.090820    0.426950
      6          6           0        1.390720    1.555072    1.366958
      7          1           0       -0.186307    1.033697    2.744445
      8          1           0       -0.078266   -1.396505    2.226872
      9          1           0        1.574838   -2.242230    0.543994
     10          1           0        2.994376    1.758315   -0.089898
     11          1           0        1.345902    2.617089    1.590913
     12          7           0        3.326726   -0.779970   -0.834675
     13          8           0        4.060407    0.044456   -1.375664
     14          8           0        3.338732   -1.989372   -1.053401
     15          6           0       -2.360558    0.822511   -0.175720
     16          6           0       -2.393759    2.036926   -1.104203
     17          6           0       -1.500354    3.178112   -0.617052
     18          1           0       -2.673058    1.130365    0.831511
     19          1           0       -1.324970    0.466167   -0.086433
     20          1           0       -3.429174    2.390029   -1.192808
     21          1           0       -2.081328    1.726105   -2.109386
     22          1           0       -0.458769    2.848491   -0.545983
     23          1           0       -1.814273    3.516186    0.375803
     24          1           0       -1.539161    4.036019   -1.295542
     25          6           0       -3.248705   -0.326659   -0.649357
     26          6           0       -3.215504   -1.541072    0.279125
     27          6           0       -4.108908   -2.682259   -0.208025
     28          1           0       -4.284293    0.029685   -0.738643
     29          1           0       -2.936205   -0.634512   -1.656588
     30          1           0       -3.527935   -1.230253    1.284309
     31          1           0       -2.180089   -1.894176    0.367731
     32          1           0       -3.794990   -3.020333   -1.200881
     33          1           0       -5.150494   -2.352638   -0.279094
     34          1           0       -4.070101   -3.540166    0.470465
 ---------------------------------------------------------------------

 SCF Done:  E(RHF) =  -669.533511483     A.U. after   15 cycles
 E2 =    -0.2095640936D+01 EUMP2 =    -0.67162915241927D+03

 The electronic state is 1-A.
 Alpha  occ. eigenvalues --  -20.60844 -20.60839 -15.85900 -11.31296 -11.27879
 Alpha  occ. eigenvalues --  -11.27868 -11.27541 -11.26835 -11.26816 -11.22187
 Alpha  occ. eigenvalues --  -11.21958 -11.21779 -11.21646 -11.21523 -11.21510
 Alpha  occ. eigenvalues --   -1.59920  -1.39473  -1.19484  -1.08951  -1.08761
 Alpha  occ. eigenvalues --   -1.04886  -1.03982  -0.96422  -0.95682  -0.87450
 Alpha  occ. eigenvalues --   -0.86258  -0.82511  -0.80071  -0.78713  -0.77555
 Alpha  occ. eigenvalues --   -0.72115  -0.71247  -0.70549  -0.65507  -0.65112
 Alpha  occ. eigenvalues --   -0.64853  -0.62232  -0.61381  -0.59797  -0.58055
 Alpha  occ. eigenvalues --   -0.55714  -0.55345  -0.53425  -0.53086  -0.52960
 Alpha  occ. eigenvalues --   -0.52827  -0.50377  -0.48876  -0.48870  -0.48374
 Alpha  occ. eigenvalues --   -0.47099  -0.46233  -0.46042  -0.44873  -0.44209
 Alpha  occ. eigenvalues --   -0.37263  -0.36439
 Alpha virt. eigenvalues --    0.04924   0.11063   0.16242   0.20514   0.22885
 Alpha virt. eigenvalues --    0.23472   0.25658   0.26192   0.27440   0.28245
 Alpha virt. eigenvalues --    0.28839   0.30347   0.31075   0.31485   0.31783

 Mulliken charges:
               1
     1  C   -0.168586
     2  C   -0.219230
     3  C   -0.172327
     4  C    0.158738
     5  C   -0.172826
     6  C   -0.216754
     7  H    0.227083
     8  H    0.226097
     9  H    0.276086
    10  H    0.276447
    11  H    0.226021
    12  N    0.488133
    13  O   -0.460116
    14  O   -0.460225
    15  C   -0.306448
    16  C   -0.298257
    17  C   -0.480573
    18  H    0.138980
    19  H    0.165294
    20  H    0.151792
    21  H    0.155204
    22  H    0.157465
    23  H    0.147945
    24  H    0.162100
    25  C   -0.297443
    26  C   -0.301445
    27  C   -0.475735
    28  H    0.149913
    29  H    0.152929
    30  H    0.147149
    31  H    0.147935
    32  H    0.158422
    33  H    0.156838
    34  H    0.159393
 Sum of Mulliken charges =  -0.00000

 Dipole moment (field-independent basis, Debye):
    X=             -3.3554    Y=              1.7309    Z=              3.4664  Tot=              5.1255
 Quadrupole moment (field-independent basis, Debye-Ang):
   XX=           -111.0586   YY=            -92.4208   ZZ=            -93.8498
   XY=              6.3397   XZ=              7.1934   YZ=             -1.3930

 Normal termination of Gaussian 16 at Thu May  6 12:44:48 2021.
