 Gaussian 16, Revision A.03,
 Gaussian 16:  EM64L-G16RevA.03 25-Dec-2016

 -------------
 #p 6-31g* mp2
 -------------

 ------------------------------------------------------
 Input file generated by CHIRIPA (05-May-2021 14:55:19)
 ------------------------------------------------------
 Symbolic Z-matrix:
 Charge =  0 Multiplicity = 1

                         Standard orientation:
 ---------------------------------------------------------------------
 Center     Atomic      Atomic             Coordinates (Angstroms)
 Number     Number       Type             X           Y           Z
 ---------------------------------------------------------------------
      1          6           0        2.727619    1.436400    1.000761
      2          6           0        2.975415    1.059060   -0.323147
      3          6           0        2.462463   -0.139650   -0.827652
      4          6           0        1.702410   -0.940546    0.023332
      5          6           0        1.438103   -0.592055    1.346959
      6          6           0        1.961105    0.611093    1.830126
      7          1           0        3.129996    2.369310    1.384385
      8          1           0        3.570362    1.698026   -0.969525
      9          1           0        2.638925   -0.456006   -1.848533
     10          1           0        0.841479   -1.249842    1.967260
     11          1           0        1.767053    0.901601    2.858715
     12          7           0        1.154051   -2.211915   -0.499470
     13          8           0        0.487441   -2.899916    0.270545
     14          8           0        1.401240   -2.496339   -1.669358
     15          6           0       -1.740214    1.417556    0.068915
     16          6           0       -1.333861    2.391256   -1.037778
     17          6           0       -0.223459    3.348816   -0.604330
     18          1           0       -2.068796    1.988289    0.948258
     19          1           0       -0.858920    0.840794    0.382061
     20          1           0       -2.215956    2.965039   -1.349705
     21          1           0       -1.006390    1.818138   -1.914656
     22          1           0        0.672952    2.792255   -0.312290
     23          1           0       -0.543485    3.945672    0.255871
     24          1           0        0.051508    4.035967   -1.410604
     25          6           0       -2.849318    0.453826   -0.349227
     26          6           0       -3.255671   -0.519874    0.757467
     27          6           0       -4.366074   -1.477434    0.324019
     28          1           0       -3.730612    1.030588   -0.662373
     29          1           0       -2.520737   -0.116907   -1.228569
     30          1           0       -3.583142    0.053244    1.634344
     31          1           0       -2.373577   -1.093657    1.069394
     32          1           0       -4.046047   -2.074290   -0.536182
     33          1           0       -5.262485   -0.920873    0.031978
     34          1           0       -4.641040   -2.164586    1.130293
 ---------------------------------------------------------------------

 SCF Done:  E(RHF) =  -669.534145606     A.U. after   15 cycles
 E2 =    -0.2096149403D+01 EUMP2 =    -0.67163029500977D+03

 The electronic state is 1-A.
 Alpha  occ. eigenvalues --  -20.60971 -20.60966 -15.86012 -11.31389 -11.27957
 Alpha  occ. eigenvalues --  -11.27940 -11.27661 -11.26950 -11.26935 -11.21567
 Alpha  occ. eigenvalues --  -11.21242 -11.21196 -11.21081 -11.21077 -11.20596
 Alpha  occ. eigenvalues --   -1.60037  -1.39590  -1.19585  -1.08968  -1.08230
 Alpha  occ. eigenvalues --   -1.04972  -1.03324  -0.95851  -0.95728  -0.86812
 Alpha  occ. eigenvalues --   -0.86359  -0.82612  -0.79421  -0.78055  -0.77658
 Alpha  occ. eigenvalues --   -0.72227  -0.71363  -0.70659  -0.65214  -0.64953
 Alpha  occ. eigenvalues --   -0.64886  -0.62302  -0.60759  -0.59178  -0.57411
 Alpha  occ. eigenvalues --   -0.55450  -0.55128  -0.53410  -0.53040  -0.52486
 Alpha  occ. eigenvalues --   -0.52224  -0.49765  -0.48989  -0.48986  -0.47694
 Alpha  occ. eigenvalues --   -0.46393  -0.45568  -0.45475  -0.44930  -0.43580
 Alpha  occ. eigenvalues --   -0.37448  -0.36501
 Alpha virt. eigenvalues --    0.04822   0.10981   0.16295   0.21090   0.23003
 Alpha virt. eigenvalues --    0.24372   0.26350   0.27021   0.27757   0.28034
 Alpha virt. eigenvalues --    0.28582   0.30759   0.31575   0.31700   0.32317

 Mulliken charges:
               1
     1  C   -0.173781
     2  C   -0.217727
     3  C   -0.170769
     4  C    0.162303
     5  C   -0.177271
     6  C   -0.211891
     7  H    0.228167
     8  H    0.225619
     9  H    0.276537
    10  H    0.277120
    11  H    0.225367
    12  N    0.488100
    13  O   -0.460437
    14  O   -0.459373
    15  C   -0.305818
    16  C   -0.297048
    17  C   -0.485401
    18  H    0.145198
    19  H    0.155322
    20  H    0.151689
    21  H    0.151851
    22  H    0.162286
    23  H    0.150862
    24  H    0.156211
    25  C   -0.298817
    26  C   -0.301918
    27  C   -0.475434
    28  H    0.148230
    29  H    0.153310
    30  H    0.147185
    31  H    0.156727
    32  H    0.161180
    33  H    0.152257
    34  H    0.160164
 Sum of Mulliken charges =  -0.00000

 Dipole moment (field-independent basis, Debye):
    X=              2.1276    Y=              4.2723    Z=              1.8595  Tot=              5.1222
 Quadrupole moment (field-independent basis, Debye-Ang):
   XX=            -87.9565   YY=           -104.3831   ZZ=            -90.7153
   XY=              5.7567   XZ=              0.9245   YZ=             -2.2962

 Normal termination of Gaussian 16 at Thu May  6 17:23:47 2021.
