 Gaussian 16, Revision A.03,
 Gaussian 16:  EM64L-G16RevA.03 25-Dec-2016

 -------------
 #p 6-31g* mp2
 -------------

 ------------------------------------------------------
 Input file generated by CHIRIPA (05-May-2021 14:57:20)
 ------------------------------------------------------
 Symbolic Z-matrix:
 Charge =  0 Multiplicity = 1

                         Standard orientation:
 ---------------------------------------------------------------------
 Center     Atomic      Atomic             Coordinates (Angstroms)
 Number     Number       Type             X           Y           Z
 ---------------------------------------------------------------------
      1          6           0        3.063191   -2.073453   -0.671537
      2          6           0        1.932660   -1.522268   -1.283595
      3          6           0        1.606945   -0.176201   -1.092385
      4          6           0        2.437587    0.593179   -0.279133
      5          6           0        3.570743    0.073092    0.344370
      6          6           0        3.877189   -1.275421    0.139063
      7          1           0        3.308730   -3.120061   -0.825550
      8          1           0        1.298682   -2.139651   -1.913639
      9          1           0        0.737709    0.276162   -1.554136
     10          1           0        4.183588    0.713595    0.966941
     11          1           0        4.755802   -1.700791    0.615661
     12          7           0        2.102966    2.019494   -0.069245
     13          8           0        2.850918    2.676157    0.651865
     14          8           0        1.099075    2.453771   -0.629819
     15          6           0       -0.753529   -1.551876    1.697918
     16          6           0       -1.391307   -0.414570    2.204174
     17          6           0       -2.356514    0.254868    1.446035
     18          6           0       -2.660876   -0.242695    0.179906
     19          6           0       -2.042929   -1.373322   -0.352180
     20          6           0       -1.080799   -2.026786    0.423603
     21          1           0       -0.004928   -2.065708    2.293712
     22          1           0       -1.139152   -0.043493    3.193500
     23          1           0       -2.865689    1.137538    1.813530
     24          1           0       -2.315442   -1.719450   -1.341800
     25          1           0       -0.587110   -2.909801    0.027877
     26          7           0       -3.681069    0.457554   -0.632041
     27          8           0       -3.931354   -0.000877   -1.744621
     28          8           0       -4.211093    1.451581   -0.140490
 ---------------------------------------------------------------------

 SCF Done:  E(RHF) =  -868.335836682     A.U. after   16 cycles
 E2 =    -0.2603530558D+01 EUMP2 =    -0.87093936723927D+03

 The electronic state is 1-A.
 Alpha  occ. eigenvalues --  -20.61099 -20.61080 -20.60770 -20.60737 -15.86150
 Alpha  occ. eigenvalues --  -15.85816 -11.31625 -11.31320 -11.28243 -11.28198
 Alpha  occ. eigenvalues --  -11.28052 -11.27942 -11.27802 -11.27623 -11.27299
 Alpha  occ. eigenvalues --  -11.27286 -11.27015 -11.26867  -1.60168  -1.59825
 Alpha  occ. eigenvalues --   -1.39716  -1.39377  -1.19853  -1.19488  -1.09232
 Alpha  occ. eigenvalues --   -1.08857  -1.05295  -1.04901  -0.96031  -0.95671
 Alpha  occ. eigenvalues --   -0.86681  -0.86298  -0.82873  -0.82503  -0.77890
 Alpha  occ. eigenvalues --   -0.77531  -0.72363  -0.72033  -0.71498  -0.71147
 Alpha  occ. eigenvalues --   -0.70957  -0.70584  -0.65499  -0.65364  -0.65142
 Alpha  occ. eigenvalues --   -0.64885  -0.62644  -0.62236  -0.55794  -0.55399
 Alpha  occ. eigenvalues --   -0.53986  -0.53410  -0.52990  -0.52849  -0.49138
 Alpha  occ. eigenvalues --   -0.49109  -0.48805  -0.48776  -0.45094  -0.44755
 Alpha  occ. eigenvalues --   -0.37914  -0.37809  -0.37061  -0.35865
 Alpha virt. eigenvalues --    0.04608   0.05035   0.10464   0.11325   0.15902
 Alpha virt. eigenvalues --    0.16703   0.19981   0.21739   0.25594   0.27598
 Alpha virt. eigenvalues --    0.28129   0.28325   0.30054   0.31106   0.32307

 Mulliken charges:
               1
     1  C   -0.175570
     2  C   -0.221428
     3  C   -0.161433
     4  C    0.156787
     5  C   -0.172416
     6  C   -0.220406
     7  H    0.224585
     8  H    0.219275
     9  H    0.279524
    10  H    0.276277
    11  H    0.223795
    12  N    0.487613
    13  O   -0.461140
    14  O   -0.456383
    15  C   -0.169565
    16  C   -0.218951
    17  C   -0.165729
    18  C    0.161648
    19  C   -0.181433
    20  C   -0.213108
    21  H    0.224767
    22  H    0.226285
    23  H    0.279641
    24  H    0.271944
    25  H    0.215364
    26  N    0.488687
    27  O   -0.462970
    28  O   -0.455659
 Sum of Mulliken charges =  -0.00000

 Dipole moment (field-independent basis, Debye):
    X=              4.6691    Y=             -7.2001    Z=              2.2422  Tot=              8.8696
 Quadrupole moment (field-independent basis, Debye-Ang):
   XX=           -115.9377   YY=           -108.7303   ZZ=            -99.6640
   XY=             -6.2095   XZ=             -7.2235   YZ=              2.9051

 Normal termination of Gaussian 16 at Wed May  5 17:43:20 2021.
