 Gaussian 16, Revision A.03,
 Gaussian 16:  EM64L-G16RevA.03 25-Dec-2016

 -------------
 #p 6-31g* mp2
 -------------

 ------------------------------------------------------
 Input file generated by CHIRIPA (05-May-2021 14:53:15)
 ------------------------------------------------------
 Symbolic Z-matrix:
 Charge =  0 Multiplicity = 1

                         Standard orientation:
 ---------------------------------------------------------------------
 Center     Atomic      Atomic             Coordinates (Angstroms)
 Number     Number       Type             X           Y           Z
 ---------------------------------------------------------------------
      1          6           0        1.650567    1.215643   -0.420184
      2          6           0        1.262198    2.678935   -0.205865
      3          6           0       -0.108851    3.018505   -0.791279
      4          1           0        1.645051    0.995292   -1.496455
      5          1           0        0.886484    0.570307    0.034912
      6          1           0        2.027497    3.321330   -0.660027
      7          1           0        1.268827    2.895879    0.870010
      8          1           0       -0.887721    2.402069   -0.330877
      9          1           0       -0.124740    2.829937   -1.869607
     10          1           0       -0.366504    4.069422   -0.626812
     11          6           0        3.018687    0.860810    0.159533
     12          6           0        3.407056   -0.602482   -0.054786
     13          6           0        4.778106   -0.942052    0.530628
     14          1           0        3.782770    1.506146   -0.295564
     15          1           0        3.024204    1.081161    1.235804
     16          1           0        3.400427   -0.819426   -1.130661
     17          1           0        2.641757   -1.244877    0.399375
     18          1           0        4.793994   -0.753484    1.608956
     19          1           0        5.556975   -0.325616    0.070226
     20          1           0        5.035758   -1.992968    0.366161
     21          6           0       -3.446180    1.019726    0.720075
     22          6           0       -3.447135    0.491595   -0.575146
     23          6           0       -2.552739   -0.523047   -0.928848
     24          6           0       -1.667094   -0.988113    0.042046
     25          6           0       -1.641737   -0.482277    1.340805
     26          6           0       -2.545072    0.531965    1.672238
     27          1           0       -4.144440    1.807769    0.986190
     28          1           0       -4.145824    0.868463   -1.316664
     29          1           0       -2.531946   -0.949868   -1.924242
     30          1           0       -0.933408   -0.878329    2.058322
     31          1           0       -2.542072    0.940236    2.678891
     32          7           0       -0.715505   -2.062057   -0.320615
     33          8           0        0.054752   -2.454584    0.553035
     34          8           0       -0.757926   -2.490954   -1.471652
 ---------------------------------------------------------------------

 SCF Done:  E(RHF) =  -669.535364095     A.U. after   15 cycles
 E2 =    -0.2095996802D+01 EUMP2 =    -0.67163136089633D+03

 The electronic state is 1-A.
 Alpha  occ. eigenvalues --  -20.61009 -20.61003 -15.86014 -11.31346 -11.27920
 Alpha  occ. eigenvalues --  -11.27901 -11.27655 -11.26939 -11.26916 -11.21438
 Alpha  occ. eigenvalues --  -11.21007 -11.20956 -11.20815 -11.20540 -11.20275
 Alpha  occ. eigenvalues --   -1.60049  -1.39610  -1.19542  -1.08937  -1.07949
 Alpha  occ. eigenvalues --   -1.04929  -1.03011  -0.95769  -0.95519  -0.86545
 Alpha  occ. eigenvalues --   -0.86324  -0.82603  -0.79118  -0.77757  -0.77621
 Alpha  occ. eigenvalues --   -0.72249  -0.71359  -0.70633  -0.65191  -0.64923
 Alpha  occ. eigenvalues --   -0.64590  -0.62269  -0.60435  -0.58921  -0.57109
 Alpha  occ. eigenvalues --   -0.55426  -0.54873  -0.53328  -0.53012  -0.52215
 Alpha  occ. eigenvalues --   -0.51917  -0.49490  -0.49017  -0.49006  -0.47372
 Alpha  occ. eigenvalues --   -0.46103  -0.45586  -0.45237  -0.44493  -0.43283
 Alpha  occ. eigenvalues --   -0.37453  -0.36514
 Alpha virt. eigenvalues --    0.04825   0.11052   0.16289   0.21232   0.23276
 Alpha virt. eigenvalues --    0.24772   0.26810   0.27363   0.27658   0.28179
 Alpha virt. eigenvalues --    0.28539   0.30996   0.31819   0.32069   0.32525

 Mulliken charges:
               1
     1  C   -0.302967
     2  C   -0.297169
     3  C   -0.483085
     4  H    0.151433
     5  H    0.148068
     6  H    0.151897
     7  H    0.147635
     8  H    0.161184
     9  H    0.153647
    10  H    0.155266
    11  C   -0.296636
    12  C   -0.310836
    13  C   -0.475147
    14  H    0.146797
    15  H    0.145014
    16  H    0.152438
    17  H    0.175033
    18  H    0.151481
    19  H    0.150711
    20  H    0.162528
    21  C   -0.171688
    22  C   -0.216801
    23  C   -0.170068
    24  C    0.160012
    25  C   -0.174130
    26  C   -0.217427
    27  H    0.227015
    28  H    0.224786
    29  H    0.276307
    30  H    0.275630
    31  H    0.224626
    32  N    0.491683
    33  O   -0.459827
    34  O   -0.457411
 Sum of Mulliken charges =  -0.00000

 Dipole moment (field-independent basis, Debye):
    X=             -3.5878    Y=              3.5182    Z=              1.2530  Tot=              5.1788
 Quadrupole moment (field-independent basis, Debye-Ang):
   XX=            -84.4226   YY=           -103.5074   ZZ=            -89.7365
   XY=             -2.9871   XZ=             -1.1595   YZ=             -0.9451

 Normal termination of Gaussian 16 at Thu May  6 02:43:08 2021.
