 Gaussian 16, Revision A.03,
 Gaussian 16:  EM64L-G16RevA.03 25-Dec-2016

 -------------
 #p 6-31g* mp2
 -------------

 ------------------------------------------------------
 Input file generated by CHIRIPA (05-May-2021 14:57:27)
 ------------------------------------------------------
 Symbolic Z-matrix:
 Charge =  0 Multiplicity = 1

                         Standard orientation:
 ---------------------------------------------------------------------
 Center     Atomic      Atomic             Coordinates (Angstroms)
 Number     Number       Type             X           Y           Z
 ---------------------------------------------------------------------
      1          6           0        3.377346   -1.555912   -1.017717
      2          6           0        2.295661   -1.112960   -1.786009
      3          6           0        1.578096    0.026862   -1.411237
      4          6           0        1.971339    0.702606   -0.257105
      5          6           0        3.044466    0.286229    0.529228
      6          6           0        3.747643   -0.856137    0.135416
      7          1           0        3.929180   -2.442341   -1.316244
      8          1           0        2.005836   -1.654429   -2.682032
      9          1           0        0.736648    0.391794   -1.987612
     10          1           0        3.309690    0.846906    1.417325
     11          1           0        4.587270   -1.197833    0.734012
     12          7           0        1.219301    1.910631    0.149727
     13          8           0        1.585748    2.488306    1.170827
     14          8           0        0.277645    2.256933   -0.560201
     15          6           0       -0.686803   -1.635238    2.085205
     16          6           0       -1.071635   -2.337841    0.938569
     17          6           0       -1.851995   -1.720840   -0.043722
     18          6           0       -2.231451   -0.394097    0.153904
     19          6           0       -1.863983    0.332484    1.285424
     20          6           0       -1.083505   -0.304663    2.254673
     21          1           0       -0.080555   -2.122364    2.843207
     22          1           0       -0.765011   -3.371280    0.804295
     23          1           0       -2.163993   -2.241335   -0.941029
     24          1           0       -2.185028    1.361637    1.391225
     25          1           0       -0.786114    0.243444    3.144157
     26          7           0       -3.057645    0.269758   -0.879100
     27          8           0       -3.378955    1.439491   -0.681311
     28          8           0       -3.368262   -0.392216   -1.867001
 ---------------------------------------------------------------------

 SCF Done:  E(RHF) =  -868.338316854     A.U. after   16 cycles
 E2 =    -0.2603871216D+01 EUMP2 =    -0.87094218807004D+03

 The electronic state is 1-A.
 Alpha  occ. eigenvalues --  -20.61102 -20.61059 -20.60317 -20.60218 -15.86091
 Alpha  occ. eigenvalues --  -15.85324 -11.31433 -11.30793 -11.28046 -11.27964
 Alpha  occ. eigenvalues --  -11.27774 -11.27505 -11.27267 -11.27229 -11.27061
 Alpha  occ. eigenvalues --  -11.26995 -11.26524 -11.26356  -1.60142  -1.59338
 Alpha  occ. eigenvalues --   -1.39699  -1.38886  -1.19613  -1.19014  -1.09021
 Alpha  occ. eigenvalues --   -1.08388  -1.05018  -1.04425  -0.95859  -0.95199
 Alpha  occ. eigenvalues --   -0.86420  -0.85808  -0.82693  -0.82022  -0.77744
 Alpha  occ. eigenvalues --   -0.77035  -0.72329  -0.71566  -0.71489  -0.70740
 Alpha  occ. eigenvalues --   -0.70623  -0.70113  -0.65274  -0.65029  -0.64656
 Alpha  occ. eigenvalues --   -0.64412  -0.62366  -0.61737  -0.55540  -0.54950
 Alpha  occ. eigenvalues --   -0.53520  -0.53116  -0.52591  -0.52495  -0.49107
 Alpha  occ. eigenvalues --   -0.49078  -0.48330  -0.48276  -0.45147  -0.44244
 Alpha  occ. eigenvalues --   -0.37633  -0.37048  -0.36658  -0.35891
 Alpha virt. eigenvalues --    0.04775   0.05488   0.11016   0.11621   0.16225
 Alpha virt. eigenvalues --    0.16986   0.21126   0.21756   0.27005   0.27696
 Alpha virt. eigenvalues --    0.28004   0.28670   0.30646   0.31184   0.32229

 Mulliken charges:
               1
     1  C   -0.171998
     2  C   -0.220114
     3  C   -0.168793
     4  C    0.161709
     5  C   -0.173032
     6  C   -0.220108
     7  H    0.225101
     8  H    0.225020
     9  H    0.279681
    10  H    0.273394
    11  H    0.222164
    12  N    0.487908
    13  O   -0.465103
    14  O   -0.454907
    15  C   -0.170420
    16  C   -0.217586
    17  C   -0.175623
    18  C    0.158171
    19  C   -0.166433
    20  C   -0.226501
    21  H    0.222455
    22  H    0.218572
    23  H    0.271396
    24  H    0.286529
    25  H    0.228762
    26  N    0.488492
    27  O   -0.449912
    28  O   -0.468825
 Sum of Mulliken charges =  -0.00000

 Dipole moment (field-independent basis, Debye):
    X=              5.4580    Y=             -6.2633    Z=              2.1845  Tot=              8.5902
 Quadrupole moment (field-independent basis, Debye-Ang):
   XX=           -107.0383   YY=           -106.4677   ZZ=            -99.1003
   XY=             -2.9154   XZ=             -8.9115   YZ=              1.4442

 Normal termination of Gaussian 16 at Fri May  7 09:44:50 2021.
