 Gaussian 16, Revision A.03,
 Gaussian 16:  EM64L-G16RevA.03 25-Dec-2016

 -------------
 #p 6-31g* mp2
 -------------

 ------------------------------------------------------
 Input file generated by CHIRIPA (05-May-2021 14:51:13)
 ------------------------------------------------------
 Symbolic Z-matrix:
 Charge =  0 Multiplicity = 1

                         Standard orientation:
 ---------------------------------------------------------------------
 Center     Atomic      Atomic             Coordinates (Angstroms)
 Number     Number       Type             X           Y           Z
 ---------------------------------------------------------------------
      1          6           0        3.805029    0.850782   -0.412338
      2          6           0        3.913658    1.947706    0.647350
      3          6           0        4.339978    3.294541    0.062473
      4          1           0        4.773758    0.742005   -0.918971
      5          1           0        3.083879    1.162797   -1.180443
      6          1           0        4.633356    1.633114    1.413955
      7          1           0        2.944611    2.053752    1.151650
      8          1           0        3.618816    3.634280   -0.687929
      9          1           0        5.317156    3.211252   -0.424135
     10          1           0        4.411334    4.064201    0.837322
     11          6           0        3.379762   -0.501542    0.156958
     12          6           0        3.271132   -1.598466   -0.902731
     13          6           0        2.844812   -2.945301   -0.317853
     14          1           0        4.100911   -0.813557    0.925063
     15          1           0        2.411033   -0.392765    0.663591
     16          1           0        4.240179   -1.704512   -1.407031
     17          1           0        2.551434   -1.283874   -1.669335
     18          1           0        1.867634   -2.862012    0.168754
     19          1           0        3.565975   -3.285040    0.432549
     20          1           0        2.773456   -3.714961   -1.092702
     21          6           0       -3.050710   -0.423557    0.605225
     22          6           0       -2.170950   -1.520806    0.005182
     23          6           0       -1.091988   -2.008507    0.972542
     24          1           0       -2.417088    0.421840    0.906510
     25          1           0       -3.523110   -0.802446    1.522110
     26          1           0       -1.701436   -1.140419   -0.911049
     27          1           0       -2.806761   -2.363611   -0.294884
     28          1           0       -1.545436   -2.413506    1.883015
     29          1           0       -0.433831   -1.183363    1.263350
     30          1           0       -0.474681   -2.792666    0.523225
     31          6           0       -4.134080    0.074317   -0.349845
     32          6           0       -5.013840    1.171566    0.250198
     33          6           0       -6.092802    1.659266   -0.717161
     34          1           0       -3.661680    0.453206   -1.266729
     35          1           0       -4.767701   -0.771080   -0.651129
     36          1           0       -4.378030    2.014371    0.550264
     37          1           0       -5.483354    0.791179    1.166429
     38          1           0       -6.750959    0.834124   -1.007970
     39          1           0       -5.639354    2.064266   -1.627634
     40          1           0       -6.710109    2.443426   -0.267844
 ---------------------------------------------------------------------

 SCF Done:  E(RHF) =  -470.733198097     A.U. after   11 cycles
 E2 =    -0.1582694788D+01 EUMP2 =    -0.47231589288514D+03

 The electronic state is 1-A.
 Alpha  occ. eigenvalues --  -11.21666 -11.21633 -11.21606 -11.21565 -11.21452
 Alpha  occ. eigenvalues --  -11.21393 -11.21391 -11.21331 -11.21149 -11.21096
 Alpha  occ. eigenvalues --  -11.21077 -11.20974  -1.08479  -1.08412  -1.03588
 Alpha  occ. eigenvalues --   -1.03500  -0.96049  -0.95943  -0.87078  -0.86951
 Alpha  occ. eigenvalues --   -0.79672  -0.79546  -0.78292  -0.78222  -0.65131
 Alpha  occ. eigenvalues --   -0.65028  -0.61043  -0.60873  -0.59428  -0.59311
 Alpha  occ. eigenvalues --   -0.57697  -0.57524  -0.55342  -0.55233  -0.52810
 Alpha  occ. eigenvalues --   -0.52647  -0.52484  -0.52282  -0.49990  -0.49867
 Alpha  occ. eigenvalues --   -0.47971  -0.47864  -0.46728  -0.46558  -0.45850
 Alpha  occ. eigenvalues --   -0.45779  -0.45742  -0.45652  -0.43799  -0.43764
 Alpha virt. eigenvalues --    0.21020   0.23132   0.23629   0.25089   0.25809
 Alpha virt. eigenvalues --    0.26697   0.26910   0.27161   0.27797   0.29189
 Alpha virt. eigenvalues --    0.30222   0.30997   0.31676   0.31773   0.31998

 Mulliken charges:
               1
     1  C   -0.298240
     2  C   -0.299546
     3  C   -0.475676
     4  H    0.149746
     5  H    0.149175
     6  H    0.152085
     7  H    0.151489
     8  H    0.155014
     9  H    0.155266
    10  H    0.160243
    11  C   -0.300474
    12  C   -0.298689
    13  C   -0.483478
    14  H    0.149640
    15  H    0.151453
    16  H    0.151731
    17  H    0.151353
    18  H    0.163400
    19  H    0.154919
    20  H    0.159376
    21  C   -0.298618
    22  C   -0.299320
    23  C   -0.482773
    24  H    0.149452
    25  H    0.149802
    26  H    0.151906
    27  H    0.152404
    28  H    0.156100
    29  H    0.156121
    30  H    0.165736
    31  C   -0.298310
    32  C   -0.299679
    33  C   -0.475731
    34  H    0.149500
    35  H    0.149824
    36  H    0.151935
    37  H    0.152034
    38  H    0.155256
    39  H    0.155200
    40  H    0.160371
 Sum of Mulliken charges =  -0.00000

 Dipole moment (field-independent basis, Debye):
    X=             -0.0417    Y=             -0.0108    Z=              0.0156  Tot=              0.0458
 Quadrupole moment (field-independent basis, Debye-Ang):
   XX=            -84.1811   YY=            -85.5099   ZZ=            -85.0742
   XY=              0.3735   XZ=             -0.4581   YZ=              0.2058

 Normal termination of Gaussian 16 at Thu May  6 00:46:23 2021.
