 Gaussian 16, Revision A.03,
 Gaussian 16:  EM64L-G16RevA.03 25-Dec-2016

 -------------
 #p 6-31g* mp2
 -------------

 ------------------------------------------------------
 Input file generated by CHIRIPA (05-May-2021 14:51:09)
 ------------------------------------------------------
 Symbolic Z-matrix:
 Charge =  0 Multiplicity = 1

                         Standard orientation:
 ---------------------------------------------------------------------
 Center     Atomic      Atomic             Coordinates (Angstroms)
 Number     Number       Type             X           Y           Z
 ---------------------------------------------------------------------
      1          6           0       -2.682196    0.019794    0.178544
      2          6           0       -1.595592   -0.932896    0.678200
      3          6           0       -0.217899   -0.273487    0.748456
      4          1           0       -2.402831    0.395505   -0.815308
      5          1           0       -2.726711    0.894430    0.842190
      6          1           0       -1.554082   -1.806130    0.014607
      7          1           0       -1.877669   -1.306532    1.670895
      8          1           0       -0.236459    0.586368    1.425881
      9          1           0        0.088968    0.083932   -0.239818
     10          1           0        0.543798   -0.972317    1.108061
     11          6           0       -4.065089   -0.624879    0.102827
     12          6           0       -5.151694    0.327811   -0.396829
     13          6           0       -6.529386   -0.331598   -0.467085
     14          1           0       -4.020574   -1.499515   -0.560819
     15          1           0       -4.344454   -1.000590    1.096678
     16          1           0       -4.869616    0.701447   -1.389525
     17          1           0       -5.193203    1.201045    0.266764
     18          1           0       -6.836253   -0.689017    0.521189
     19          1           0       -6.510826   -1.191453   -1.144511
     20          1           0       -7.291083    0.367232   -0.826690
     21          6           0        3.651278   -0.319656    0.204599
     22          6           0        4.064381   -1.421520   -0.771732
     23          6           0        4.617835   -2.659777   -0.065900
     24          1           0        4.518418   -0.037370    0.817238
     25          1           0        2.895718   -0.716842    0.896531
     26          1           0        4.817924   -1.021974   -1.462494
     27          1           0        3.196204   -1.701080   -1.382250
     28          1           0        3.868857   -3.084936    0.610024
     29          1           0        5.499791   -2.401971    0.529324
     30          1           0        4.906923   -3.434808   -0.782570
     31          6           0        3.096007    0.924740   -0.485970
     32          6           0        2.682904    2.026605    0.490362
     33          6           0        2.129450    3.264863   -0.215471
     34          1           0        3.851566    1.321926   -1.177901
     35          1           0        2.228867    0.642455   -1.098609
     36          1           0        3.551081    2.306166    1.100879
     37          1           0        1.929361    1.627059    1.181124
     38          1           0        1.247494    3.007056   -0.810695
     39          1           0        2.878428    3.690021   -0.891395
     40          1           0        1.840361    4.039892    0.501199
 ---------------------------------------------------------------------

 SCF Done:  E(RHF) =  -470.731289023     A.U. after   11 cycles
 E2 =    -0.1584840212D+01 EUMP2 =    -0.47231612923489D+03

 The electronic state is 1-A.
 Alpha  occ. eigenvalues --  -11.21669 -11.21636 -11.21538 -11.21463 -11.21402
 Alpha  occ. eigenvalues --  -11.21400 -11.21271 -11.21211 -11.21168 -11.21098
 Alpha  occ. eigenvalues --  -11.21038 -11.20977  -1.08503  -1.08316  -1.03613
 Alpha  occ. eigenvalues --   -1.03424  -0.96077  -0.95880  -0.87116  -0.86892
 Alpha  occ. eigenvalues --   -0.79700  -0.79494  -0.78308  -0.78141  -0.65160
 Alpha  occ. eigenvalues --   -0.64956  -0.61003  -0.60895  -0.59437  -0.59259
 Alpha  occ. eigenvalues --   -0.57697  -0.57462  -0.55508  -0.55065  -0.52776
 Alpha  occ. eigenvalues --   -0.52573  -0.52501  -0.52305  -0.50046  -0.49827
 Alpha  occ. eigenvalues --   -0.48097  -0.47686  -0.46859  -0.46396  -0.45905
 Alpha  occ. eigenvalues --   -0.45810  -0.45583  -0.45455  -0.43773  -0.43664
 Alpha virt. eigenvalues --    0.20996   0.22996   0.23853   0.24639   0.25734
 Alpha virt. eigenvalues --    0.26164   0.27021   0.27634   0.28016   0.29449
 Alpha virt. eigenvalues --    0.30207   0.30848   0.31853   0.31906   0.32554

 Mulliken charges:
               1
     1  C   -0.298792
     2  C   -0.300208
     3  C   -0.482034
     4  H    0.149448
     5  H    0.149804
     6  H    0.151876
     7  H    0.152091
     8  H    0.156484
     9  H    0.159181
    10  H    0.163329
    11  C   -0.298278
    12  C   -0.299673
    13  C   -0.475741
    14  H    0.149610
    15  H    0.149795
    16  H    0.152009
    17  H    0.152051
    18  H    0.155232
    19  H    0.155227
    20  H    0.160408
    21  C   -0.302330
    22  C   -0.299630
    23  C   -0.475431
    24  H    0.149232
    25  H    0.153877
    26  H    0.151771
    27  H    0.151481
    28  H    0.154352
    29  H    0.155194
    30  H    0.160016
    31  C   -0.299393
    32  C   -0.305203
    33  C   -0.475780
    34  H    0.149092
    35  H    0.150860
    36  H    0.150978
    37  H    0.160357
    38  H    0.154552
    39  H    0.154753
    40  H    0.159436
 Sum of Mulliken charges =  -0.00000

 Dipole moment (field-independent basis, Debye):
    X=             -0.0630    Y=             -0.0150    Z=              0.0266  Tot=              0.0700
 Quadrupole moment (field-independent basis, Debye-Ang):
   XX=            -85.4104   YY=            -85.7648   ZZ=            -83.9844
   XY=              0.3056   XZ=             -0.4493   YZ=              0.6047

 Normal termination of Gaussian 16 at Thu May  6 06:54:25 2021.
