 Gaussian 16, Revision A.03,
 Gaussian 16:  EM64L-G16RevA.03 25-Dec-2016

 -------------
 #p 6-31g* mp2
 -------------

 ------------------------------------------------------
 Input file generated by CHIRIPA (05-May-2021 14:57:26)
 ------------------------------------------------------
 Symbolic Z-matrix:
 Charge =  0 Multiplicity = 1

                         Standard orientation:
 ---------------------------------------------------------------------
 Center     Atomic      Atomic             Coordinates (Angstroms)
 Number     Number       Type             X           Y           Z
 ---------------------------------------------------------------------
      1          6           0        2.851103    2.691852   -0.141338
      2          6           0        4.141400    2.181188    0.034381
      3          6           0        4.367209    0.801582    0.018760
      4          6           0        3.274834   -0.042293   -0.175874
      5          6           0        1.977561    0.435946   -0.353807
      6          6           0        1.775198    1.819140   -0.334530
      7          1           0        2.684796    3.764957   -0.127783
      8          1           0        4.978851    2.856578    0.184615
      9          1           0        5.355774    0.379287    0.152271
     10          1           0        1.162654   -0.262294   -0.501472
     11          1           0        0.772053    2.212903   -0.471260
     12          7           0        3.501477   -1.504719   -0.194346
     13          8           0        2.522287   -2.227085   -0.367588
     14          8           0        4.654018   -1.900912   -0.035233
     15          6           0       -1.106688   -1.333008    0.907042
     16          6           0       -2.055847   -2.040952    0.162438
     17          6           0       -3.240035   -1.422600   -0.249739
     18          6           0       -3.443477   -0.089075    0.101848
     19          6           0       -2.516951    0.642937    0.842791
     20          6           0       -1.339859    0.004319    1.244247
     21          1           0       -0.189538   -1.821231    1.223066
     22          1           0       -1.877435   -3.079641   -0.100885
     23          1           0       -3.991735   -1.947132   -0.827001
     24          1           0       -2.722938    1.677270    1.090061
     25          1           0       -0.604500    0.556584    1.822431
     26          7           0       -4.693368    0.576273   -0.328830
     27          8           0       -4.848847    1.752025   -0.006229
     28          8           0       -5.493887   -0.090576   -0.980841
 ---------------------------------------------------------------------

 SCF Done:  E(RHF) =  -868.339048857     A.U. after   16 cycles
 E2 =    -0.2601646490D+01 EUMP2 =    -0.87094069534706D+03

 The electronic state is 1-A.
 Alpha  occ. eigenvalues --  -20.61692 -20.61629 -20.61046 -20.61030 -15.86694
 Alpha  occ. eigenvalues --  -15.86095 -11.31884 -11.31487 -11.28428 -11.28373
 Alpha  occ. eigenvalues --  -11.28135 -11.28113 -11.27990 -11.27608 -11.27400
 Alpha  occ. eigenvalues --  -11.27391 -11.27079 -11.26924  -1.60725  -1.60117
 Alpha  occ. eigenvalues --   -1.40288  -1.39670  -1.20052  -1.19653  -1.09472
 Alpha  occ. eigenvalues --   -1.09020  -1.05430  -1.05044  -0.96339  -0.95840
 Alpha  occ. eigenvalues --   -0.86831  -0.86422  -0.83171  -0.82668  -0.78259
 Alpha  occ. eigenvalues --   -0.77735  -0.72925  -0.72308  -0.72045  -0.71444
 Alpha  occ. eigenvalues --   -0.71175  -0.70611  -0.65700  -0.65448  -0.65235
 Alpha  occ. eigenvalues --   -0.65012  -0.62792  -0.62350  -0.55929  -0.55407
 Alpha  occ. eigenvalues --   -0.53813  -0.53611  -0.53217  -0.53075  -0.49683
 Alpha  occ. eigenvalues --   -0.49647  -0.49069  -0.49062  -0.45723  -0.45070
 Alpha  occ. eigenvalues --   -0.38029  -0.37666  -0.37046  -0.36577
 Alpha virt. eigenvalues --    0.04211   0.04738   0.10527   0.10980   0.15671
 Alpha virt. eigenvalues --    0.16191   0.20664   0.21693   0.26449   0.27549
 Alpha virt. eigenvalues --    0.27733   0.28362   0.30386   0.31147   0.32278

 Mulliken charges:
               1
     1  C   -0.170037
     2  C   -0.218723
     3  C   -0.169950
     4  C    0.156593
     5  C   -0.180817
     6  C   -0.225717
     7  H    0.228703
     8  H    0.226045
     9  H    0.277010
    10  H    0.282755
    11  H    0.226680
    12  N    0.488778
    13  O   -0.468894
    14  O   -0.455285
    15  C   -0.184234
    16  C   -0.218957
    17  C   -0.170814
    18  C    0.158915
    19  C   -0.175261
    20  C   -0.227625
    21  H    0.245179
    22  H    0.231904
    23  H    0.277480
    24  H    0.273373
    25  H    0.225036
    26  N    0.488091
    27  O   -0.461835
    28  O   -0.458395
 Sum of Mulliken charges =  -0.00000

 Dipole moment (field-independent basis, Debye):
    X=              3.6999    Y=              2.6807    Z=              1.5549  Tot=              4.8263
 Quadrupole moment (field-independent basis, Debye-Ang):
   XX=           -134.9860   YY=           -101.2730   ZZ=           -104.8834
   XY=             27.7164   XZ=             -2.8022   YZ=              0.8505

 Normal termination of Gaussian 16 at Fri May  7 02:00:42 2021.
