 Gaussian 16, Revision A.03,
 Gaussian 16:  EM64L-G16RevA.03 25-Dec-2016

 -------------
 #p 6-31g* mp2
 -------------

 ------------------------------------------------------
 Input file generated by CHIRIPA (05-May-2021 14:53:12)
 ------------------------------------------------------
 Symbolic Z-matrix:
 Charge =  0 Multiplicity = 1

                         Standard orientation:
 ---------------------------------------------------------------------
 Center     Atomic      Atomic             Coordinates (Angstroms)
 Number     Number       Type             X           Y           Z
 ---------------------------------------------------------------------
      1          6           0        4.519062   -0.315457    0.310906
      2          6           0        4.978541   -1.633086   -0.314167
      3          6           0        6.017442   -2.361531    0.538973
      4          1           0        5.391480    0.334629    0.463283
      5          1           0        4.101144   -0.516334    1.307093
      6          1           0        5.394202   -1.429955   -1.309446
      7          1           0        4.104902   -2.280036   -0.465250
      8          1           0        5.609710   -2.592929    1.528321
      9          1           0        6.906336   -1.738017    0.679329
     10          1           0        6.331955   -3.300817    0.073479
     11          6           0        3.480449    0.424428   -0.530273
     12          6           0        3.020969    1.742057    0.094800
     13          6           0        1.982069    2.470501   -0.758339
     14          1           0        3.898367    0.625305   -1.526460
     15          1           0        2.608031   -0.225659   -0.682650
     16          1           0        3.894609    2.389006    0.245883
     17          1           0        2.605309    1.538925    1.090079
     18          1           0        1.093175    1.846988   -0.898696
     19          1           0        2.389801    2.701899   -1.747688
     20          1           0        1.667556    3.409787   -0.292846
     21          6           0       -1.555423    1.856600    0.629856
     22          6           0       -1.750059    1.468460   -0.699800
     23          6           0       -2.617248    0.417536   -1.012994
     24          6           0       -3.276531   -0.226171    0.033082
     25          6           0       -3.103563    0.137259    1.367732
     26          6           0       -2.231603    1.190934    1.657567
     27          1           0       -0.879916    2.674051    0.864079
     28          1           0       -1.226261    1.983621   -1.499982
     29          1           0       -2.786417    0.096507   -2.033651
     30          1           0       -3.639755   -0.395295    2.143813
     31          1           0       -2.082384    1.490215    2.691109
     32          7           0       -4.197110   -1.340193   -0.286117
     33          8           0       -4.766082   -1.891245    0.653696
     34          8           0       -4.332256   -1.641219   -1.470076
 ---------------------------------------------------------------------

 SCF Done:  E(RHF) =  -669.534888732     A.U. after   15 cycles
 E2 =    -0.2092125263D+01 EUMP2 =    -0.67162701399519D+03

 The electronic state is 1-A.
 Alpha  occ. eigenvalues --  -20.60771 -20.60766 -15.85825 -11.31194 -11.27773
 Alpha  occ. eigenvalues --  -11.27762 -11.27473 -11.26769 -11.26733 -11.22403
 Alpha  occ. eigenvalues --  -11.22114 -11.21961 -11.21928 -11.21810 -11.21332
 Alpha  occ. eigenvalues --   -1.59847  -1.39401  -1.19371  -1.08986  -1.08758
 Alpha  occ. eigenvalues --   -1.04778  -1.04125  -0.96605  -0.95588  -0.87638
 Alpha  occ. eigenvalues --   -0.86166  -0.82423  -0.80210  -0.78754  -0.77476
 Alpha  occ. eigenvalues --   -0.72044  -0.71171  -0.70469  -0.65633  -0.65018
 Alpha  occ. eigenvalues --   -0.64792  -0.62167  -0.61477  -0.60004  -0.58188
 Alpha  occ. eigenvalues --   -0.55905  -0.55239  -0.53334  -0.53190  -0.52999
 Alpha  occ. eigenvalues --   -0.52764  -0.50507  -0.48809  -0.48798  -0.48499
 Alpha  occ. eigenvalues --   -0.47210  -0.46306  -0.46199  -0.44806  -0.44367
 Alpha  occ. eigenvalues --   -0.37314  -0.36368
 Alpha virt. eigenvalues --    0.05052   0.11113   0.16514   0.20500   0.22522
 Alpha virt. eigenvalues --    0.23861   0.26036   0.26321   0.26580   0.27600
 Alpha virt. eigenvalues --    0.29367   0.29763   0.31092   0.31523   0.32183

 Mulliken charges:
               1
     1  C   -0.298743
     2  C   -0.300348
     3  C   -0.476034
     4  H    0.150089
     5  H    0.149902
     6  H    0.152444
     7  H    0.153651
     8  H    0.155641
     9  H    0.155221
    10  H    0.161882
    11  C   -0.299585
    12  C   -0.298224
    13  C   -0.486703
    14  H    0.150632
    15  H    0.152188
    16  H    0.154602
    17  H    0.150620
    18  H    0.157027
    19  H    0.159295
    20  H    0.154175
    21  C   -0.170199
    22  C   -0.221879
    23  C   -0.172292
    24  C    0.158122
    25  C   -0.170714
    26  C   -0.219543
    27  H    0.229783
    28  H    0.226879
    29  H    0.275789
    30  H    0.275607
    31  H    0.223451
    32  N    0.488111
    33  O   -0.460478
    34  O   -0.460371
 Sum of Mulliken charges =  -0.00000

 Dipole moment (field-independent basis, Debye):
    X=              3.3603    Y=              3.8569    Z=              1.1219  Tot=              5.2370
 Quadrupole moment (field-independent basis, Debye-Ang):
   XX=           -116.1606   YY=            -97.5285   ZZ=            -89.9456
   XY=            -12.8746   XZ=             -5.5203   YZ=             -0.6586

 Normal termination of Gaussian 16 at Thu May  6 07:15:35 2021.
