 Gaussian 16, Revision A.03,
 Gaussian 16:  EM64L-G16RevA.03 25-Dec-2016

 -------------
 #p 6-31g* mp2
 -------------

 ------------------------------------------------------
 Input file generated by CHIRIPA (05-May-2021 14:51:08)
 ------------------------------------------------------
 Symbolic Z-matrix:
 Charge =  0 Multiplicity = 1

                         Standard orientation:
 ---------------------------------------------------------------------
 Center     Atomic      Atomic             Coordinates (Angstroms)
 Number     Number       Type             X           Y           Z
 ---------------------------------------------------------------------
      1          6           0       -3.706916    0.763064    0.257280
      2          6           0       -2.833661    1.583617   -0.692512
      3          6           0       -2.199290    2.797244   -0.012455
      4          1           0       -4.495138    1.407753    0.669624
      5          1           0       -3.097717    0.430416    1.109112
      6          1           0       -3.443990    1.913454   -1.542995
      7          1           0       -2.047541    0.936852   -1.102790
      8          1           0       -1.567363    2.483225    0.824600
      9          1           0       -2.971746    3.465376    0.381894
     10          1           0       -1.579298    3.369564   -0.709535
     11          6           0       -4.348042   -0.453545   -0.407962
     12          6           0       -5.221297   -1.274097    0.541830
     13          6           0       -5.855668   -2.487724   -0.138227
     14          1           0       -4.957240   -0.120896   -1.259794
     15          1           0       -3.559819   -1.098233   -0.820306
     16          1           0       -6.007416   -0.627333    0.952108
     17          1           0       -4.610968   -1.603934    1.392313
     18          1           0       -5.083211   -3.155856   -0.532577
     19          1           0       -6.487594   -2.173706   -0.975283
     20          1           0       -6.475659   -3.060044    0.558852
     21          6           0        4.610438   -0.417737   -0.342311
     22          6           0        5.938223   -0.439329    0.415651
     23          6           0        7.094917   -0.967913   -0.433144
     24          1           0        4.377559   -1.433460   -0.690190
     25          1           0        4.719923    0.203402   -1.242084
     26          1           0        5.825867   -1.059121    1.314456
     27          1           0        6.167873    0.576529    0.761931
     28          1           0        7.235682   -0.345594   -1.322810
     29          1           0        6.891734   -1.990537   -0.767145
     30          1           0        8.034425   -0.974726    0.128228
     31          6           0        3.444519    0.108218    0.492993
     32          6           0        2.116735    0.129810   -0.264968
     33          6           0        0.960041    0.658393    0.583826
     34          1           0        3.335034   -0.512923    1.392767
     35          1           0        3.677399    1.123941    0.840872
     36          1           0        1.887085   -0.886048   -0.611249
     37          1           0        2.229091    0.749600   -1.163773
     38          1           0        1.163225    1.681017    0.917828
     39          1           0        0.819276    0.036074    1.473493
     40          1           0        0.020533    0.665206    0.022454
 ---------------------------------------------------------------------

 SCF Done:  E(RHF) =  -470.732605228     A.U. after   11 cycles
 E2 =    -0.1583204297D+01 EUMP2 =    -0.47231580952548D+03

 The electronic state is 1-A.
 Alpha  occ. eigenvalues --  -11.21615 -11.21608 -11.21590 -11.21588 -11.21413
 Alpha  occ. eigenvalues --  -11.21388 -11.21354 -11.21327 -11.21077 -11.21063
 Alpha  occ. eigenvalues --  -11.21047 -11.20969  -1.08448  -1.08408  -1.03581
 Alpha  occ. eigenvalues --   -1.03473  -0.96051  -0.95895  -0.87053  -0.86928
 Alpha  occ. eigenvalues --   -0.79619  -0.79565  -0.78255  -0.78227  -0.65091
 Alpha  occ. eigenvalues --   -0.65062  -0.61092  -0.60916  -0.59346  -0.59248
 Alpha  occ. eigenvalues --   -0.57637  -0.57516  -0.55394  -0.55149  -0.52661
 Alpha  occ. eigenvalues --   -0.52627  -0.52417  -0.52344  -0.50041  -0.49772
 Alpha  occ. eigenvalues --   -0.47962  -0.47857  -0.46679  -0.46553  -0.45806
 Alpha  occ. eigenvalues --   -0.45769  -0.45718  -0.45671  -0.43796  -0.43721
 Alpha virt. eigenvalues --    0.21344   0.23025   0.23736   0.25067   0.26414
 Alpha virt. eigenvalues --    0.26549   0.26784   0.27685   0.27833   0.29012
 Alpha virt. eigenvalues --    0.30526   0.30903   0.31412   0.31808   0.32232

 Mulliken charges:
               1
     1  C   -0.298910
     2  C   -0.303839
     3  C   -0.479037
     4  H    0.149884
     5  H    0.150412
     6  H    0.152749
     7  H    0.152758
     8  H    0.161189
     9  H    0.154734
    10  H    0.159630
    11  C   -0.298243
    12  C   -0.299654
    13  C   -0.475695
    14  H    0.149479
    15  H    0.149470
    16  H    0.151944
    17  H    0.151990
    18  H    0.155121
    19  H    0.155164
    20  H    0.160212
    21  C   -0.298245
    22  C   -0.299634
    23  C   -0.475705
    24  H    0.149578
    25  H    0.149560
    26  H    0.151902
    27  H    0.151987
    28  H    0.155206
    29  H    0.155161
    30  H    0.160278
    31  C   -0.298628
    32  C   -0.299445
    33  C   -0.484078
    34  H    0.149426
    35  H    0.149793
    36  H    0.151420
    37  H    0.152063
    38  H    0.155982
    39  H    0.154220
    40  H    0.169801
 Sum of Mulliken charges =  -0.00000

 Dipole moment (field-independent basis, Debye):
    X=              0.0028    Y=              0.0103    Z=              0.0111  Tot=              0.0154
 Quadrupole moment (field-independent basis, Debye-Ang):
   XX=            -85.3123   YY=            -84.5373   ZZ=            -85.0033
   XY=             -0.3907   XZ=              0.3687   YZ=             -0.9253

 Normal termination of Gaussian 16 at Thu May  6 06:53:11 2021.
