 Gaussian 16, Revision A.03,
 Gaussian 16:  EM64L-G16RevA.03 25-Dec-2016

 -------------
 #p 6-31g* mp2
 -------------

 ------------------------------------------------------
 Input file generated by CHIRIPA (05-May-2021 14:53:12)
 ------------------------------------------------------
 Symbolic Z-matrix:
 Charge =  0 Multiplicity = 1

                         Standard orientation:
 ---------------------------------------------------------------------
 Center     Atomic      Atomic             Coordinates (Angstroms)
 Number     Number       Type             X           Y           Z
 ---------------------------------------------------------------------
      1          6           0       -4.342284   -0.828580    0.460636
      2          6           0       -2.821604   -0.669222    0.449511
      3          6           0       -2.112536   -1.702230    1.325815
      4          1           0       -4.705675   -0.746126    1.494122
      5          1           0       -4.600470   -1.840283    0.118304
      6          1           0       -2.566422    0.342343    0.790444
      7          1           0       -2.461810   -0.751873   -0.584091
      8          1           0       -2.338018   -2.717457    0.983656
      9          1           0       -2.443224   -1.617024    2.366001
     10          1           0       -1.026318   -1.570015    1.303233
     11          6           0       -5.065272    0.196935   -0.410762
     12          6           0       -6.585952    0.037577   -0.399638
     13          6           0       -7.295020    1.070586   -1.275942
     14          1           0       -4.807086    1.208639   -0.068431
     15          1           0       -4.701880    0.114481   -1.444248
     16          1           0       -6.945745    0.120229    0.633964
     17          1           0       -6.841134   -0.973987   -0.740571
     18          1           0       -6.964332    0.985380   -2.316128
     19          1           0       -7.069538    2.085813   -0.933783
     20          1           0       -8.381238    0.938371   -1.253359
     21          6           0        1.952591    1.776813    1.009444
     22          6           0        3.138790    2.306438    0.490841
     23          6           0        4.100075    1.468099   -0.081582
     24          6           0        3.841326    0.098814   -0.118954
     25          6           0        2.669267   -0.459064    0.389316
     26          6           0        1.722021    0.398183    0.957120
     27          1           0        1.211294    2.435399    1.452322
     28          1           0        3.320538    3.376704    0.530113
     29          1           0        5.027022    1.851468   -0.490501
     30          1           0        2.516381   -1.530128    0.335785
     31          1           0        0.801707   -0.015923    1.359095
     32          7           0        4.851564   -0.798707   -0.722507
     33          8           0        4.599722   -2.001529   -0.743289
     34          8           0        5.876101   -0.282366   -1.163362
 ---------------------------------------------------------------------

 SCF Done:  E(RHF) =  -669.535459880     A.U. after   15 cycles
 E2 =    -0.2090806954D+01 EUMP2 =    -0.67162626683390D+03

 The electronic state is 1-A.
 Alpha  occ. eigenvalues --  -20.60737 -20.60732 -15.85790 -11.31154 -11.27725
 Alpha  occ. eigenvalues --  -11.27717 -11.27466 -11.26742 -11.26712 -11.22430
 Alpha  occ. eigenvalues --  -11.22058 -11.22029 -11.22013 -11.21888 -11.21431
 Alpha  occ. eigenvalues --   -1.59813  -1.39366  -1.19326  -1.09039  -1.08722
 Alpha  occ. eigenvalues --   -1.04732  -1.04167  -0.96621  -0.95557  -0.87638
 Alpha  occ. eigenvalues --   -0.86128  -0.82392  -0.80232  -0.78821  -0.77440
 Alpha  occ. eigenvalues --   -0.72009  -0.71136  -0.70437  -0.65663  -0.64979
 Alpha  occ. eigenvalues --   -0.64766  -0.62130  -0.61550  -0.60005  -0.58224
 Alpha  occ. eigenvalues --   -0.55884  -0.55234  -0.53418  -0.53106  -0.53055
 Alpha  occ. eigenvalues --   -0.52665  -0.50540  -0.48769  -0.48764  -0.48544
 Alpha  occ. eigenvalues --   -0.47254  -0.46368  -0.46273  -0.44772  -0.44418
 Alpha  occ. eigenvalues --   -0.37307  -0.36332
 Alpha virt. eigenvalues --    0.05097   0.11310   0.16577   0.19555   0.22519
 Alpha virt. eigenvalues --    0.23684   0.25821   0.26056   0.26899   0.28129
 Alpha virt. eigenvalues --    0.28612   0.30239   0.30853   0.31415   0.32227

 Mulliken charges:
               1
     1  C   -0.298832
     2  C   -0.300313
     3  C   -0.479361
     4  H    0.150408
     5  H    0.152293
     6  H    0.146894
     7  H    0.155655
     8  H    0.162142
     9  H    0.157870
    10  H    0.150992
    11  C   -0.298645
    12  C   -0.300163
    13  C   -0.476011
    14  H    0.148481
    15  H    0.151180
    16  H    0.152257
    17  H    0.153264
    18  H    0.156070
    19  H    0.154912
    20  H    0.161649
    21  C   -0.171961
    22  C   -0.218462
    23  C   -0.171148
    24  C    0.158589
    25  C   -0.173014
    26  C   -0.225119
    27  H    0.225892
    28  H    0.223223
    29  H    0.275497
    30  H    0.275260
    31  H    0.233420
    32  N    0.488117
    33  O   -0.460409
    34  O   -0.460629
 Sum of Mulliken charges =  -0.00000

 Dipole moment (field-independent basis, Debye):
    X=             -3.7691    Y=              3.1284    Z=              2.0905  Tot=              5.3257
 Quadrupole moment (field-independent basis, Debye-Ang):
   XX=           -120.5665   YY=            -91.1611   ZZ=            -95.6254
   XY=             15.1704   XZ=              7.6048   YZ=             -0.0951

 Normal termination of Gaussian 16 at Thu May  6 08:49:13 2021.
