 Gaussian 16, Revision A.03,
 Gaussian 16:  EM64L-G16RevA.03 25-Dec-2016

 -------------
 #p 6-31g* mp2
 -------------

 ------------------------------------------------------
 Input file generated by CHIRIPA (05-May-2021 14:57:21)
 ------------------------------------------------------
 Symbolic Z-matrix:
 Charge =  0 Multiplicity = 1

                         Standard orientation:
 ---------------------------------------------------------------------
 Center     Atomic      Atomic             Coordinates (Angstroms)
 Number     Number       Type             X           Y           Z
 ---------------------------------------------------------------------
      1          6           0       -1.495386    1.739167    1.697280
      2          6           0       -2.703150    2.055755    1.066725
      3          6           0       -3.387699    1.092729    0.319383
      4          6           0       -2.833236   -0.182654    0.223152
      5          6           0       -1.631846   -0.528727    0.839745
      6          6           0       -0.964525    0.450209    1.581981
      7          1           0       -0.970303    2.493448    2.275850
      8          1           0       -3.117787    3.055960    1.154543
      9          1           0       -4.324417    1.310776   -0.179047
     10          1           0       -1.243420   -1.534395    0.734033
     11          1           0       -0.026739    0.201507    2.070602
     12          7           0       -3.548818   -1.210588   -0.565322
     13          8           0       -3.039310   -2.326928   -0.634761
     14          8           0       -4.605651   -0.880478   -1.098960
     15          6           0        1.463366    1.838303   -1.564600
     16          6           0        2.746441    2.082903   -1.064191
     17          6           0        3.449391    1.079103   -0.391290
     18          6           0        2.836331   -0.163203   -0.235979
     19          6           0        1.559365   -0.437669   -0.723131
     20          6           0        0.874962    0.581013   -1.392776
     21          1           0        0.924501    2.623859   -2.086060
     22          1           0        3.205885    3.058372   -1.196162
     23          1           0        4.443935    1.241321    0.006185
     24          1           0        1.127505   -1.420164   -0.576098
     25          1           0       -0.121363    0.388206   -1.780345
     26          7           0        3.570696   -1.233758    0.474667
     27          8           0        3.008525   -2.319707    0.598429
     28          8           0        4.694557   -0.966641    0.894454
 ---------------------------------------------------------------------

 SCF Done:  E(RHF) =  -868.335752315     A.U. after   16 cycles
 E2 =    -0.2604255095D+01 EUMP2 =    -0.87094000740991D+03

 The electronic state is 1-A.
 Alpha  occ. eigenvalues --  -20.61355 -20.61349 -20.61264 -20.61254 -15.86407
 Alpha  occ. eigenvalues --  -15.86311 -11.31819 -11.31681 -11.28322 -11.28283
 Alpha  occ. eigenvalues --  -11.28180 -11.28166 -11.27983 -11.27861 -11.27366
 Alpha  occ. eigenvalues --  -11.27250 -11.27231 -11.27120  -1.60438  -1.60343
 Alpha  occ. eigenvalues --   -1.39986  -1.39894  -1.19986  -1.19799  -1.09331
 Alpha  occ. eigenvalues --   -1.09205  -1.05453  -1.05099  -0.96173  -0.96041
 Alpha  occ. eigenvalues --   -0.86729  -0.86600  -0.83013  -0.82839  -0.78088
 Alpha  occ. eigenvalues --   -0.77898  -0.72609  -0.72514  -0.71784  -0.71682
 Alpha  occ. eigenvalues --   -0.71079  -0.70841  -0.65591  -0.65449  -0.65313
 Alpha  occ. eigenvalues --   -0.65176  -0.62789  -0.62432  -0.55806  -0.55668
 Alpha  occ. eigenvalues --   -0.54231  -0.53415  -0.53325  -0.52957  -0.49375
 Alpha  occ. eigenvalues --   -0.49371  -0.49283  -0.49275  -0.45377  -0.45295
 Alpha  occ. eigenvalues --   -0.38118  -0.37747  -0.37706  -0.35809
 Alpha virt. eigenvalues --    0.04094   0.04927   0.10595   0.10763   0.15656
 Alpha virt. eigenvalues --    0.16454   0.20216   0.21429   0.25290   0.27118
 Alpha virt. eigenvalues --    0.27361   0.28624   0.30488   0.30675   0.31311

 Mulliken charges:
               1
     1  C   -0.172781
     2  C   -0.219532
     3  C   -0.174864
     4  C    0.156074
     5  C   -0.184366
     6  C   -0.208388
     7  H    0.227512
     8  H    0.224337
     9  H    0.276292
    10  H    0.278326
    11  H    0.229859
    12  N    0.486885
    13  O   -0.459114
    14  O   -0.458805
    15  C   -0.174059
    16  C   -0.219214
    17  C   -0.174012
    18  C    0.156469
    19  C   -0.180962
    20  C   -0.208846
    21  H    0.226512
    22  H    0.223837
    23  H    0.275831
    24  H    0.276235
    25  H    0.228913
    26  N    0.487195
    27  O   -0.460442
    28  O   -0.458891
 Sum of Mulliken charges =  -0.00000

 Dipole moment (field-independent basis, Debye):
    X=             -0.0946    Y=              7.4545    Z=              0.3095  Tot=              7.4615
 Quadrupole moment (field-independent basis, Debye-Ang):
   XX=           -129.1119   YY=           -103.9357   ZZ=           -103.2905
   XY=              0.4164   XZ=            -12.5084   YZ=             -0.4716

 Normal termination of Gaussian 16 at Thu May  6 06:30:36 2021.
