 Gaussian 16, Revision A.03,
 Gaussian 16:  EM64L-G16RevA.03 25-Dec-2016

 -------------
 #p 6-31g* mp2
 -------------

 ------------------------------------------------------
 Input file generated by CHIRIPA (05-May-2021 14:53:12)
 ------------------------------------------------------
 Symbolic Z-matrix:
 Charge =  0 Multiplicity = 1

                         Standard orientation:
 ---------------------------------------------------------------------
 Center     Atomic      Atomic             Coordinates (Angstroms)
 Number     Number       Type             X           Y           Z
 ---------------------------------------------------------------------
      1          6           0       -3.859162   -0.659748   -0.151969
      2          6           0       -4.986738   -1.427921    0.538297
      3          6           0       -4.855739   -2.942626    0.376120
      4          1           0       -3.849819   -0.916125   -1.220206
      5          1           0       -2.894872   -0.991247    0.257480
      6          1           0       -5.948690   -1.094078    0.128647
      7          1           0       -4.993519   -1.169538    1.604978
      8          1           0       -3.910720   -3.295332    0.801722
      9          1           0       -4.871318   -3.219443   -0.682998
     10          1           0       -5.672070   -3.472127    0.877213
     11          6           0       -3.976259    0.855686    0.001250
     12          6           0       -2.848683    1.623858   -0.689016
     13          6           0       -2.979681    3.138564   -0.526839
     14          1           0       -4.940549    1.187184   -0.408199
     15          1           0       -3.985602    1.112063    1.069487
     16          1           0       -2.841902    1.365476   -1.755697
     17          1           0       -1.886731    1.290016   -0.279366
     18          1           0       -2.964103    3.415381    0.532279
     19          1           0       -3.924701    3.491270   -0.952441
     20          1           0       -2.163351    3.668064   -1.027932
     21          6           0        5.473203   -0.765125   -0.208812
     22          6           0        5.116448    0.170014    0.768307
     23          6           0        3.782819    0.558924    0.925574
     24          6           0        2.827481   -0.009968    0.084754
     25          6           0        3.151497   -0.944020   -0.898022
     26          6           0        4.491320   -1.318183   -1.037397
     27          1           0        6.511604   -1.061510   -0.324030
     28          1           0        5.876869    0.601179    1.413211
     29          1           0        3.478901    1.280804    1.673866
     30          1           0        2.371119   -1.356415   -1.526002
     31          1           0        4.765474   -2.044642   -1.797096
     32          7           0        1.412348    0.393946    0.241774
     33          8           0        0.589565   -0.121948   -0.511563
     34          8           0        1.152747    1.218782    1.115211
 ---------------------------------------------------------------------

 SCF Done:  E(RHF) =  -669.536866172     A.U. after   15 cycles
 E2 =    -0.2091514894D+01 EUMP2 =    -0.67162838106648D+03

 The electronic state is 1-A.
 Alpha  occ. eigenvalues --  -20.61130 -20.61114 -15.86114 -11.31389 -11.27939
 Alpha  occ. eigenvalues --  -11.27935 -11.27667 -11.26932 -11.26923 -11.20583
 Alpha  occ. eigenvalues --  -11.20252 -11.20030 -11.19921 -11.19654 -11.19575
 Alpha  occ. eigenvalues --   -1.60159  -1.39716  -1.19547  -1.08963  -1.07046
 Alpha  occ. eigenvalues --   -1.04933  -1.02188  -0.95811  -0.94703  -0.86336
 Alpha  occ. eigenvalues --   -0.85730  -0.82646  -0.78267  -0.77708  -0.76784
 Alpha  occ. eigenvalues --   -0.72319  -0.71461  -0.70654  -0.65201  -0.64936
 Alpha  occ. eigenvalues --   -0.63680  -0.62279  -0.59586  -0.58097  -0.56285
 Alpha  occ. eigenvalues --   -0.55440  -0.54006  -0.53268  -0.53023  -0.51440
 Alpha  occ. eigenvalues --   -0.51123  -0.49206  -0.49090  -0.48641  -0.46566
 Alpha  occ. eigenvalues --   -0.45280  -0.45119  -0.44373  -0.44090  -0.42441
 Alpha  occ. eigenvalues --   -0.37523  -0.36530
 Alpha virt. eigenvalues --    0.04819   0.11126   0.16331   0.21267   0.24174
 Alpha virt. eigenvalues --    0.25596   0.27192   0.27983   0.28180   0.28931
 Alpha virt. eigenvalues --    0.29258   0.30847   0.32386   0.32643   0.33052

 Mulliken charges:
               1
     1  C   -0.298825
     2  C   -0.298700
     3  C   -0.474631
     4  H    0.146232
     5  H    0.159588
     6  H    0.148592
     7  H    0.150269
     8  H    0.154679
     9  H    0.153164
    10  H    0.156326
    11  C   -0.297165
    12  C   -0.311380
    13  C   -0.473592
    14  H    0.142163
    15  H    0.147360
    16  H    0.144604
    17  H    0.185671
    18  H    0.153758
    19  H    0.146941
    20  H    0.157202
    21  C   -0.170364
    22  C   -0.218621
    23  C   -0.170652
    24  C    0.158485
    25  C   -0.170666
    26  C   -0.218586
    27  H    0.226350
    28  H    0.224148
    29  H    0.276029
    30  H    0.276238
    31  H    0.224211
    32  N    0.488474
    33  O   -0.458071
    34  O   -0.459229
 Sum of Mulliken charges =  -0.00000

 Dipole moment (field-independent basis, Debye):
    X=              5.5077    Y=             -1.4864    Z=             -0.4994  Tot=              5.7266
 Quadrupole moment (field-independent basis, Debye-Ang):
   XX=            -68.1854   YY=            -95.4189   ZZ=            -91.8647
   XY=             -3.1770   XZ=              0.2421   YZ=              2.8058

 Normal termination of Gaussian 16 at Thu May  6 00:56:44 2021.
