 Gaussian 16, Revision A.03,
 Gaussian 16:  EM64L-G16RevA.03 25-Dec-2016

 -------------
 #p 6-31g* mp2
 -------------

 ------------------------------------------------------
 Input file generated by CHIRIPA (05-May-2021 14:55:22)
 ------------------------------------------------------
 Symbolic Z-matrix:
 Charge =  0 Multiplicity = 1

                         Standard orientation:
 ---------------------------------------------------------------------
 Center     Atomic      Atomic             Coordinates (Angstroms)
 Number     Number       Type             X           Y           Z
 ---------------------------------------------------------------------
      1          6           0       -3.858521    1.694593   -0.498081
      2          6           0       -3.177450    1.686510    0.723637
      3          6           0       -2.356804    0.609577    1.071924
      4          6           0       -2.239578   -0.447402    0.170624
      5          6           0       -2.905202   -0.468607   -1.054033
      6          6           0       -3.720467    0.618906   -1.381460
      7          1           0       -4.493929    2.535290   -0.760537
      8          1           0       -3.282785    2.520539    1.411639
      9          1           0       -1.818119    0.577503    2.011184
     10          1           0       -2.780395   -1.314387   -1.719237
     11          1           0       -4.248199    0.622477   -2.330950
     12          7           0       -1.373645   -1.593103    0.528298
     13          8           0       -1.287089   -2.512163   -0.283166
     14          8           0       -0.797880   -1.550349    1.613334
     15          6           0        2.756715    0.977778    0.138934
     16          6           0        3.452981    2.235678   -0.381532
     17          6           0        2.856342    3.521574    0.191434
     18          1           0        1.687481    1.029407   -0.108085
     19          1           0        2.823540    0.957249    1.235524
     20          1           0        3.386066    2.253124   -1.476901
     21          1           0        4.520716    2.180958   -0.133413
     22          1           0        2.936918    3.530540    1.283234
     23          1           0        1.795821    3.603116   -0.067888
     24          1           0        3.368981    4.408477   -0.193877
     25          6           0        3.341958   -0.315821   -0.424822
     26          6           0        2.645692   -1.573721    0.095645
     27          6           0        3.242331   -2.859616   -0.477321
     28          1           0        3.275134   -0.295292   -1.521411
     29          1           0        4.411192   -0.367450   -0.177802
     30          1           0        1.577957   -1.519001   -0.152475
     31          1           0        2.712607   -1.591167    1.191014
     32          1           0        4.302852   -2.941158   -0.217999
     33          1           0        3.161755   -2.868583   -1.569121
     34          1           0        2.729693   -3.746519   -0.092010
 ---------------------------------------------------------------------

 SCF Done:  E(RHF) =  -669.535943245     A.U. after   15 cycles
 E2 =    -0.2091998893D+01 EUMP2 =    -0.67162794213832D+03

 The electronic state is 1-A.
 Alpha  occ. eigenvalues --  -20.60924 -20.60913 -15.85936 -11.31292 -11.27854
 Alpha  occ. eigenvalues --  -11.27848 -11.27591 -11.26860 -11.26849 -11.21276
 Alpha  occ. eigenvalues --  -11.20930 -11.20866 -11.20592 -11.20320 -11.19900
 Alpha  occ. eigenvalues --   -1.59982  -1.39532  -1.19458  -1.08858  -1.07756
 Alpha  occ. eigenvalues --   -1.04854  -1.02795  -0.95696  -0.95295  -0.86325
 Alpha  occ. eigenvalues --   -0.86252  -0.82528  -0.78911  -0.77580  -0.77482
 Alpha  occ. eigenvalues --   -0.72157  -0.71313  -0.70562  -0.65109  -0.64854
 Alpha  occ. eigenvalues --   -0.64399  -0.62198  -0.60198  -0.58705  -0.56849
 Alpha  occ. eigenvalues --   -0.55356  -0.54616  -0.53186  -0.52943  -0.51983
 Alpha  occ. eigenvalues --   -0.51717  -0.49290  -0.48947  -0.48924  -0.47189
 Alpha  occ. eigenvalues --   -0.45964  -0.45146  -0.44904  -0.44797  -0.43062
 Alpha  occ. eigenvalues --   -0.37436  -0.36454
 Alpha virt. eigenvalues --    0.04920   0.11188   0.16408   0.21336   0.23394
 Alpha virt. eigenvalues --    0.25055   0.27103   0.27267   0.27876   0.28412
 Alpha virt. eigenvalues --    0.28640   0.30925   0.32025   0.32308   0.32476

 Mulliken charges:
               1
     1  C   -0.170591
     2  C   -0.218683
     3  C   -0.170741
     4  C    0.158382
     5  C   -0.171133
     6  C   -0.218635
     7  H    0.226073
     8  H    0.224092
     9  H    0.276377
    10  H    0.275827
    11  H    0.223822
    12  N    0.485926
    13  O   -0.460072
    14  O   -0.457060
    15  C   -0.295825
    16  C   -0.298776
    17  C   -0.475032
    18  H    0.144396
    19  H    0.150669
    20  H    0.150505
    21  H    0.152005
    22  H    0.154529
    23  H    0.151617
    24  H    0.158712
    25  C   -0.299203
    26  C   -0.298452
    27  C   -0.475369
    28  H    0.145931
    29  H    0.146745
    30  H    0.160702
    31  H    0.155769
    32  H    0.148674
    33  H    0.150812
    34  H    0.168007
 Sum of Mulliken charges =  -0.00000

 Dipole moment (field-independent basis, Debye):
    X=             -3.2439    Y=              3.9023    Z=             -1.1626  Tot=              5.2060
 Quadrupole moment (field-independent basis, Debye-Ang):
   XX=            -81.7523   YY=            -99.1234   ZZ=            -91.1020
   XY=             -7.2394   XZ=              4.4217   YZ=              3.0063

 Normal termination of Gaussian 16 at Thu May  6 01:30:38 2021.
