 Gaussian 16, Revision A.03,
 Gaussian 16:  EM64L-G16RevA.03 25-Dec-2016

 -------------
 #p 6-31g* mp2
 -------------

 ------------------------------------------------------
 Input file generated by CHIRIPA (05-May-2021 14:53:18)
 ------------------------------------------------------
 Symbolic Z-matrix:
 Charge =  0 Multiplicity = 1

                         Standard orientation:
 ---------------------------------------------------------------------
 Center     Atomic      Atomic             Coordinates (Angstroms)
 Number     Number       Type             X           Y           Z
 ---------------------------------------------------------------------
      1          6           0       -3.581503   -0.360594    0.057975
      2          6           0       -3.129161   -1.513045   -0.839369
      3          6           0       -1.774890   -2.088885   -0.424454
      4          1           0       -2.821859    0.432756    0.036001
      5          1           0       -3.634936   -0.713483    1.097210
      6          1           0       -3.077930   -1.158456   -1.876798
      7          1           0       -3.890060   -2.303662   -0.815407
      8          1           0       -1.815928   -2.469136    0.601376
      9          1           0       -0.999185   -1.317424   -0.466046
     10          1           0       -1.470768   -2.911440   -1.079262
     11          6           0       -4.933682    0.225586   -0.344184
     12          6           0       -5.386024    1.378038    0.553160
     13          6           0       -6.740295    1.953877    0.138245
     14          1           0       -4.880249    0.578476   -1.383419
     15          1           0       -5.693326   -0.567764   -0.322210
     16          1           0       -4.625125    2.168654    0.529198
     17          1           0       -5.437255    1.023449    1.590589
     18          1           0       -7.516000    1.182417    0.179837
     19          1           0       -6.699257    2.334129   -0.887584
     20          1           0       -7.044417    2.776432    0.793053
     21          6           0        4.875522    1.876963   -0.686864
     22          6           0        4.601214    1.739223    0.677799
     23          6           0        3.744324    0.732097    1.131653
     24          6           0        3.176465   -0.123622    0.189012
     25          6           0        3.430197   -0.011945   -1.177165
     26          6           0        4.290169    1.002481   -1.608365
     27          1           0        5.542372    2.662158   -1.030630
     28          1           0        5.054387    2.416919    1.395717
     29          1           0        3.514698    0.602912    2.182368
     30          1           0        2.963499   -0.702661   -1.868919
     31          1           0        4.501390    1.107088   -2.668784
     32          7           0        2.267682   -1.193686    0.657496
     33          8           0        1.780024   -1.934781   -0.193152
     34          8           0        2.060246   -1.271045    1.866473
 ---------------------------------------------------------------------

 SCF Done:  E(RHF) =  -669.535630274     A.U. after   15 cycles
 E2 =    -0.2090995278D+01 EUMP2 =    -0.67162662555211D+03

 The electronic state is 1-A.
 Alpha  occ. eigenvalues --  -20.60877 -20.60853 -15.85894 -11.31258 -11.27825
 Alpha  occ. eigenvalues --  -11.27821 -11.27568 -11.26840 -11.26831 -11.21156
 Alpha  occ. eigenvalues --  -11.20813 -11.20722 -11.20631 -11.20568 -11.19545
 Alpha  occ. eigenvalues --   -1.59927  -1.39483  -1.19430  -1.08827  -1.07734
 Alpha  occ. eigenvalues --   -1.04831  -1.02742  -0.95665  -0.95151  -0.86232
 Alpha  occ. eigenvalues --   -0.86152  -0.82494  -0.78825  -0.77550  -0.77506
 Alpha  occ. eigenvalues --   -0.72113  -0.71249  -0.70537  -0.65084  -0.64833
 Alpha  occ. eigenvalues --   -0.64378  -0.62178  -0.60149  -0.58593  -0.56767
 Alpha  occ. eigenvalues --   -0.55334  -0.54449  -0.53163  -0.52923  -0.51822
 Alpha  occ. eigenvalues --   -0.51575  -0.49140  -0.48875  -0.48842  -0.47120
 Alpha  occ. eigenvalues --   -0.45921  -0.45144  -0.44999  -0.44671  -0.42990
 Alpha  occ. eigenvalues --   -0.37410  -0.36435
 Alpha virt. eigenvalues --    0.04966   0.11219   0.16445   0.21353   0.23493
 Alpha virt. eigenvalues --    0.25110   0.27258   0.27311   0.28100   0.28209
 Alpha virt. eigenvalues --    0.28920   0.30894   0.32158   0.32373   0.32576

 Mulliken charges:
               1
     1  C   -0.296885
     2  C   -0.301937
     3  C   -0.468262
     4  H    0.146956
     5  H    0.150555
     6  H    0.146356
     7  H    0.148181
     8  H    0.157692
     9  H    0.159040
    10  H    0.159901
    11  C   -0.297374
    12  C   -0.298960
    13  C   -0.475237
    14  H    0.147272
    15  H    0.148894
    16  H    0.150311
    17  H    0.152109
    18  H    0.154910
    19  H    0.153928
    20  H    0.158623
    21  C   -0.170731
    22  C   -0.218553
    23  C   -0.170896
    24  C    0.158180
    25  C   -0.171172
    26  C   -0.218539
    27  H    0.225845
    28  H    0.223707
    29  H    0.275849
    30  H    0.275836
    31  H    0.223688
    32  N    0.487432
    33  O   -0.457459
    34  O   -0.459258
 Sum of Mulliken charges =  -0.00000

 Dipole moment (field-independent basis, Debye):
    X=              3.4792    Y=              3.6900    Z=             -1.5931  Tot=              5.3159
 Quadrupole moment (field-independent basis, Debye-Ang):
   XX=            -76.7798   YY=            -95.6711   ZZ=            -90.7035
   XY=             13.0571   XZ=             -4.7183   YZ=              2.1467

 Normal termination of Gaussian 16 at Thu May  6 09:10:20 2021.
