 Gaussian 16, Revision A.03,
 Gaussian 16:  EM64L-G16RevA.03 25-Dec-2016

 -------------
 #p 6-31g* mp2
 -------------

 ------------------------------------------------------
 Input file generated by CHIRIPA (05-May-2021 14:55:23)
 ------------------------------------------------------
 Symbolic Z-matrix:
 Charge =  0 Multiplicity = 1

                         Standard orientation:
 ---------------------------------------------------------------------
 Center     Atomic      Atomic             Coordinates (Angstroms)
 Number     Number       Type             X           Y           Z
 ---------------------------------------------------------------------
      1          6           0        2.628661    2.411512    0.606139
      2          6           0        1.885958    1.603793    1.473610
      3          6           0        1.669227    0.254887    1.176918
      4          6           0        2.212194   -0.255712   -0.001117
      5          6           0        2.956546    0.523441   -0.885509
      6          6           0        3.160646    1.869713   -0.568581
      7          1           0        2.792117    3.458351    0.844477
      8          1           0        1.471615    2.021860    2.386619
      9          1           0        1.098116   -0.393007    1.830740
     10          1           0        3.356976    0.078226   -1.788204
     11          1           0        3.737843    2.494630   -1.244130
     12          7           0        1.989436   -1.682345   -0.325924
     13          8           0        2.478434   -2.108150   -1.370053
     14          8           0        1.330057   -2.347720    0.469773
     15          6           0       -2.798250    0.751228    0.159907
     16          6           0       -3.327995    1.766258   -0.853537
     17          6           0       -3.160183    3.212023   -0.385135
     18          1           0       -3.320092    0.891162    1.116487
     19          1           0       -1.735475    0.954731    0.350934
     20          1           0       -4.389104    1.560042   -1.043639
     21          1           0       -2.804967    1.623766   -1.807871
     22          1           0       -2.103455    3.441239   -0.213711
     23          1           0       -3.696593    3.377153    0.554863
     24          1           0       -3.545467    3.920909   -1.124660
     25          6           0       -2.958951   -0.698527   -0.294088
     26          6           0       -2.429206   -1.713558    0.719355
     27          6           0       -2.597018   -3.159322    0.250954
     28          1           0       -4.021727   -0.902030   -0.485116
     29          1           0       -2.437110   -0.838461   -1.250669
     30          1           0       -2.952234   -1.571065    1.673689
     31          1           0       -1.368098   -1.507341    0.909457
     32          1           0       -2.060609   -3.324452   -0.689046
     33          1           0       -3.653746   -3.388539    0.079529
     34          1           0       -2.211735   -3.868209    0.990478
 ---------------------------------------------------------------------

 SCF Done:  E(RHF) =  -669.536359829     A.U. after   15 cycles
 E2 =    -0.2092508558D+01 EUMP2 =    -0.67162886838659D+03

 The electronic state is 1-A.
 Alpha  occ. eigenvalues --  -20.60985 -20.60979 -15.86005 -11.31336 -11.27901
 Alpha  occ. eigenvalues --  -11.27890 -11.27622 -11.26907 -11.26895 -11.21567
 Alpha  occ. eigenvalues --  -11.21255 -11.21196 -11.20974 -11.20874 -11.20148
 Alpha  occ. eigenvalues --   -1.60040  -1.39596  -1.19503  -1.08903  -1.08133
 Alpha  occ. eigenvalues --   -1.04897  -1.03150  -0.95746  -0.95611  -0.86634
 Alpha  occ. eigenvalues --   -0.86295  -0.82576  -0.79271  -0.77945  -0.77602
 Alpha  occ. eigenvalues --   -0.72229  -0.71355  -0.70603  -0.65160  -0.64907
 Alpha  occ. eigenvalues --   -0.64748  -0.62245  -0.60531  -0.59034  -0.57207
 Alpha  occ. eigenvalues --   -0.55396  -0.54909  -0.53224  -0.52985  -0.52290
 Alpha  occ. eigenvalues --   -0.52045  -0.49580  -0.49002  -0.48982  -0.47572
 Alpha  occ. eigenvalues --   -0.46321  -0.45547  -0.45416  -0.44770  -0.43420
 Alpha  occ. eigenvalues --   -0.37475  -0.36483
 Alpha virt. eigenvalues --    0.04842   0.11088   0.16322   0.21044   0.23072
 Alpha virt. eigenvalues --    0.24564   0.25897   0.27252   0.27681   0.28318
 Alpha virt. eigenvalues --    0.28805   0.30247   0.31522   0.31887   0.32614

 Mulliken charges:
               1
     1  C   -0.170711
     2  C   -0.219259
     3  C   -0.171472
     4  C    0.157787
     5  C   -0.170876
     6  C   -0.218335
     7  H    0.226451
     8  H    0.225044
     9  H    0.278031
    10  H    0.275935
    11  H    0.224112
    12  N    0.488265
    13  O   -0.458742
    14  O   -0.459424
    15  C   -0.299213
    16  C   -0.298832
    17  C   -0.475295
    18  H    0.147283
    19  H    0.145136
    20  H    0.152837
    21  H    0.152465
    22  H    0.151414
    23  H    0.154223
    24  H    0.159944
    25  C   -0.298302
    26  C   -0.307254
    27  C   -0.472057
    28  H    0.148365
    29  H    0.150858
    30  H    0.145397
    31  H    0.162206
    32  H    0.161741
    33  H    0.148555
    34  H    0.163726
 Sum of Mulliken charges =  -0.00000

 Dipole moment (field-independent basis, Debye):
    X=              1.0020    Y=              4.9121    Z=              1.1013  Tot=              5.1328
 Quadrupole moment (field-independent basis, Debye-Ang):
   XX=            -90.0534   YY=            -98.9194   ZZ=            -91.2683
   XY=             11.5148   XZ=             -0.3116   YZ=             -0.9646

 Normal termination of Gaussian 16 at Wed May  5 17:33:18 2021.
