 Gaussian 16, Revision A.03,
 Gaussian 16:  EM64L-G16RevA.03 25-Dec-2016

 -------------
 #p 6-31g* mp2
 -------------

 ------------------------------------------------------
 Input file generated by CHIRIPA (05-May-2021 14:57:25)
 ------------------------------------------------------
 Symbolic Z-matrix:
 Charge =  0 Multiplicity = 1

                         Standard orientation:
 ---------------------------------------------------------------------
 Center     Atomic      Atomic             Coordinates (Angstroms)
 Number     Number       Type             X           Y           Z
 ---------------------------------------------------------------------
      1          6           0        1.296283    2.432892    0.300815
      2          6           0        2.258288    2.212409   -0.690373
      3          6           0        3.031746    1.047828   -0.682596
      4          6           0        2.815826    0.120739    0.335822
      5          6           0        1.865122    0.311706    1.337312
      6          6           0        1.103111    1.483511    1.309716
      7          1           0        0.699889    3.340372    0.287076
      8          1           0        2.410478    2.947972   -1.475122
      9          1           0        3.783350    0.851809   -1.437636
     10          1           0        1.736273   -0.439865    2.106700
     11          1           0        0.356723    1.652086    2.080775
     12          7           0        3.628593   -1.115975    0.354546
     13          8           0        3.419066   -1.917269    1.262656
     14          8           0        4.459775   -1.260599   -0.539241
     15          6           0       -4.850850    0.157367    0.862757
     16          6           0       -4.102152    1.207139    0.320585
     17          6           0       -2.898898    0.951835   -0.343906
     18          6           0       -2.472184   -0.371156   -0.448312
     19          6           0       -3.195689   -1.438576    0.081257
     20          6           0       -4.396031   -1.159818    0.741577
     21          1           0       -5.784435    0.364802    1.377330
     22          1           0       -4.452925    2.231067    0.413185
     23          1           0       -2.299479    1.745557   -0.772999
     24          1           0       -2.820259   -2.448902   -0.026965
     25          1           0       -4.975404   -1.977074    1.161654
     26          7           0       -1.199894   -0.653849   -1.149570
     27          8           0       -0.845709   -1.828166   -1.228117
     28          8           0       -0.580951    0.304245   -1.607392
 ---------------------------------------------------------------------

 SCF Done:  E(RHF) =  -868.336887831     A.U. after   16 cycles
 E2 =    -0.2602347367D+01 EUMP2 =    -0.87093923519880D+03

 The electronic state is 1-A.
 Alpha  occ. eigenvalues --  -20.61056 -20.61038 -20.59797 -20.59786 -15.86081
 Alpha  occ. eigenvalues --  -15.84849 -11.31593 -11.30156 -11.28221 -11.28120
 Alpha  occ. eigenvalues --  -11.27910 -11.27238 -11.27161 -11.26812 -11.26711
 Alpha  occ. eigenvalues --  -11.26593 -11.25880 -11.25745  -1.60112  -1.58860
 Alpha  occ. eigenvalues --   -1.39665  -1.38421  -1.19770  -1.18329  -1.09133
 Alpha  occ. eigenvalues --   -1.07767  -1.05192  -1.03773  -0.95950  -0.94619
 Alpha  occ. eigenvalues --   -0.86577  -0.85202  -0.82783  -0.81478  -0.77817
 Alpha  occ. eigenvalues --   -0.76503  -0.72321  -0.71453  -0.71090  -0.70865
 Alpha  occ. eigenvalues --   -0.70152  -0.69567  -0.65417  -0.65187  -0.64047
 Alpha  occ. eigenvalues --   -0.63853  -0.62537  -0.61162  -0.55670  -0.54380
 Alpha  occ. eigenvalues --   -0.53521  -0.53278  -0.52048  -0.51931  -0.49096
 Alpha  occ. eigenvalues --   -0.49043  -0.47839  -0.47833  -0.45000  -0.43845
 Alpha  occ. eigenvalues --   -0.37751  -0.36818  -0.36236  -0.35321
 Alpha virt. eigenvalues --    0.04693   0.06088   0.10797   0.12331   0.16184
 Alpha virt. eigenvalues --    0.17523   0.20895   0.22120   0.26726   0.27661
 Alpha virt. eigenvalues --    0.28049   0.29076   0.30613   0.31494   0.32530

 Mulliken charges:
               1
     1  C   -0.161460
     2  C   -0.207673
     3  C   -0.162500
     4  C    0.165749
     5  C   -0.172569
     6  C   -0.222229
     7  H    0.215562
     8  H    0.219759
     9  H    0.274105
    10  H    0.271535
    11  H    0.215132
    12  N    0.489400
    13  O   -0.463751
    14  O   -0.461375
    15  C   -0.171256
    16  C   -0.219227
    17  C   -0.173450
    18  C    0.158687
    19  C   -0.171222
    20  C   -0.218469
    21  H    0.226575
    22  H    0.222168
    23  H    0.270517
    24  H    0.278803
    25  H    0.225556
    26  N    0.488847
    27  O   -0.456480
    28  O   -0.460734
 Sum of Mulliken charges =  -0.00000

 Dipole moment (field-independent basis, Debye):
    X=             -7.3612    Y=              5.1815    Z=              2.1650  Tot=              9.2586
 Quadrupole moment (field-independent basis, Debye-Ang):
   XX=            -98.7261   YY=           -100.1589   ZZ=           -104.8205
   XY=             12.9906   XZ=             -8.3045   YZ=             -2.5533

 Normal termination of Gaussian 16 at Thu May  6 05:09:47 2021.
