 Gaussian 16, Revision A.03,
 Gaussian 16:  EM64L-G16RevA.03 25-Dec-2016

 -------------
 #p 6-31g* mp2
 -------------

 ------------------------------------------------------
 Input file generated by CHIRIPA (05-May-2021 14:57:22)
 ------------------------------------------------------
 Symbolic Z-matrix:
 Charge =  0 Multiplicity = 1

                         Standard orientation:
 ---------------------------------------------------------------------
 Center     Atomic      Atomic             Coordinates (Angstroms)
 Number     Number       Type             X           Y           Z
 ---------------------------------------------------------------------
      1          6           0        2.528773    2.370017    0.296477
      2          6           0        2.359849    1.642805   -0.886379
      3          6           0        2.838848    0.333417   -0.989388
      4          6           0        3.484892   -0.220187    0.114895
      5          6           0        3.668599    0.478719    1.306982
      6          6           0        3.181458    1.786681    1.387459
      7          1           0        2.153512    3.386627    0.367745
      8          1           0        1.853357    2.093279   -1.735251
      9          1           0        2.721664   -0.252185   -1.893134
     10          1           0        4.177630    0.002777    2.136310
     11          1           0        3.314072    2.349073    2.307336
     12          7           0        3.996297   -1.605622    0.017771
     13          8           0        4.561972   -2.070648    1.004887
     14          8           0        3.821777   -2.200267   -1.043633
     15          6           0       -1.523729    1.315175   -1.175919
     16          6           0       -1.661564   -0.047649   -1.459173
     17          6           0       -2.697720   -0.790750   -0.885824
     18          6           0       -3.582056   -0.136084   -0.029874
     19          6           0       -3.471075    1.220347    0.271900
     20          6           0       -2.427331    1.943716   -0.312808
     21          1           0       -0.715870    1.884770   -1.625723
     22          1           0       -0.961290   -0.538411   -2.129108
     23          1           0       -2.827676   -1.847024   -1.087850
     24          1           0       -4.184684    1.681851    0.943610
     25          1           0       -2.322723    3.001975   -0.091020
     26          7           0       -4.683005   -0.912327    0.583119
     27          8           0       -5.448986   -0.312170    1.333931
     28          8           0       -4.759101   -2.106206    0.301161
 ---------------------------------------------------------------------

 SCF Done:  E(RHF) =  -868.336283022     A.U. after   16 cycles
 E2 =    -0.2600524606D+01 EUMP2 =    -0.87093680762849D+03

 The electronic state is 1-A.
 Alpha  occ. eigenvalues --  -20.61374 -20.61357 -20.60979 -20.60968 -15.86430
 Alpha  occ. eigenvalues --  -15.86034 -11.31943 -11.31498 -11.28617 -11.28489
 Alpha  occ. eigenvalues --  -11.28348 -11.28104 -11.28057 -11.27950 -11.27721
 Alpha  occ. eigenvalues --  -11.27521 -11.27187 -11.27133  -1.60440  -1.60049
 Alpha  occ. eigenvalues --   -1.39990  -1.39600  -1.20145  -1.19697  -1.09517
 Alpha  occ. eigenvalues --   -1.09095  -1.05587  -1.05113  -0.96321  -0.95910
 Alpha  occ. eigenvalues --   -0.86986  -0.86522  -0.83165  -0.82731  -0.78184
 Alpha  occ. eigenvalues --   -0.77741  -0.72646  -0.72252  -0.71764  -0.71373
 Alpha  occ. eigenvalues --   -0.71266  -0.70892  -0.65809  -0.65629  -0.65361
 Alpha  occ. eigenvalues --   -0.65135  -0.62942  -0.62455  -0.56114  -0.55716
 Alpha  occ. eigenvalues --   -0.53893  -0.53672  -0.53404  -0.53220  -0.49416
 Alpha  occ. eigenvalues --   -0.49390  -0.49020  -0.48998  -0.45364  -0.44983
 Alpha  occ. eigenvalues --   -0.38184  -0.37737  -0.37091  -0.36692
 Alpha virt. eigenvalues --    0.04372   0.04783   0.10371   0.10934   0.15755
 Alpha virt. eigenvalues --    0.16282   0.18575   0.22067   0.25022   0.26042
 Alpha virt. eigenvalues --    0.27983   0.28777   0.29743   0.31185   0.32486

 Mulliken charges:
               1
     1  C   -0.169778
     2  C   -0.220434
     3  C   -0.171180
     4  C    0.159960
     5  C   -0.168677
     6  C   -0.217512
     7  H    0.224551
     8  H    0.215477
     9  H    0.273739
    10  H    0.278895
    11  H    0.226553
    12  N    0.488127
    13  O   -0.456943
    14  O   -0.460609
    15  C   -0.166242
    16  C   -0.218195
    17  C   -0.169726
    18  C    0.158840
    19  C   -0.170311
    20  C   -0.219641
    21  H    0.215357
    22  H    0.223209
    23  H    0.278721
    24  H    0.276095
    25  H    0.220241
    26  N    0.487960
    27  O   -0.460262
    28  O   -0.458214
 Sum of Mulliken charges =  -0.00000

 Dipole moment (field-independent basis, Debye):
    X=              2.1768    Y=              7.4413    Z=             -1.6094  Tot=              7.9184
 Quadrupole moment (field-independent basis, Debye-Ang):
   XX=           -144.5647   YY=           -105.2811   ZZ=            -99.8104
   XY=              5.8761   XZ=             10.0649   YZ=              3.6192

 Normal termination of Gaussian 16 at Fri May  7 00:13:53 2021.
