 Gaussian 16, Revision A.03,
 Gaussian 16:  EM64L-G16RevA.03 25-Dec-2016

 -------------
 #p 6-31g* mp2
 -------------

 ------------------------------------------------------
 Input file generated by CHIRIPA (05-May-2021 14:51:09)
 ------------------------------------------------------
 Symbolic Z-matrix:
 Charge =  0 Multiplicity = 1

                         Standard orientation:
 ---------------------------------------------------------------------
 Center     Atomic      Atomic             Coordinates (Angstroms)
 Number     Number       Type             X           Y           Z
 ---------------------------------------------------------------------
      1          6           0        3.920383    0.117482   -0.096785
      2          6           0        4.775931   -1.131646   -0.310563
      3          6           0        6.057047   -0.843748   -1.093922
      4          1           0        3.665079    0.550852   -1.073491
      5          1           0        4.514362    0.873624    0.435037
      6          1           0        4.180071   -1.885719   -0.840602
      7          1           0        5.029068   -1.562200    0.666760
      8          1           0        6.674757   -0.110051   -0.565979
      9          1           0        5.820936   -0.435408   -2.081905
     10          1           0        6.653515   -1.750449   -1.235271
     11          6           0        2.636244   -0.154238    0.684805
     12          6           0        1.780696    1.094891    0.898583
     13          6           0        0.499580    0.806992    1.681942
     14          1           0        2.042265   -0.910379    0.152983
     15          1           0        2.891548   -0.587607    1.661511
     16          1           0        1.527559    1.525445   -0.078740
     17          1           0        2.376556    1.848963    1.428622
     18          1           0        0.735691    0.398652    2.669925
     19          1           0       -0.118130    0.073296    1.153999
     20          1           0       -0.096887    1.713693    1.823291
     21          6           0       -3.824761   -0.512718   -0.346584
     22          6           0       -3.375950   -1.893934    0.131740
     23          6           0       -4.480113   -2.945704    0.020389
     24          1           0       -4.697161   -0.194086    0.240218
     25          1           0       -4.159744   -0.584894   -1.390602
     26          1           0       -3.040613   -1.818901    1.174110
     27          1           0       -2.504399   -2.209232   -0.456141
     28          1           0       -4.809560   -3.049890   -1.018462
     29          1           0       -5.348819   -2.657342    0.621052
     30          1           0       -4.137719   -3.925533    0.367608
     31          6           0       -2.731866    0.549473   -0.241435
     32          6           0       -3.180677    1.930690   -0.719760
     33          6           0       -2.076515    2.982460   -0.608410
     34          1           0       -2.396883    0.621650    0.802582
     35          1           0       -1.859466    0.230841   -0.828238
     36          1           0       -4.052228    2.245987   -0.131879
     37          1           0       -3.516014    1.855657   -1.762131
     38          1           0       -1.207807    2.694098   -1.209072
     39          1           0       -1.747067    3.086646    0.430441
     40          1           0       -2.418908    3.962289   -0.955628
 ---------------------------------------------------------------------

 SCF Done:  E(RHF) =  -470.731868303     A.U. after   11 cycles
 E2 =    -0.1584071723D+01 EUMP2 =    -0.47231594002522D+03

 The electronic state is 1-A.
 Alpha  occ. eigenvalues --  -11.21614 -11.21591 -11.21586 -11.21530 -11.21374
 Alpha  occ. eigenvalues --  -11.21368 -11.21313 -11.21284 -11.21077 -11.21071
 Alpha  occ. eigenvalues --  -11.21060 -11.20893  -1.08442  -1.08373  -1.03556
 Alpha  occ. eigenvalues --   -1.03454  -0.95983  -0.95929  -0.87019  -0.86940
 Alpha  occ. eigenvalues --   -0.79661  -0.79513  -0.78292  -0.78141  -0.65061
 Alpha  occ. eigenvalues --   -0.65021  -0.60944  -0.60895  -0.59466  -0.59189
 Alpha  occ. eigenvalues --   -0.57768  -0.57384  -0.55310  -0.55199  -0.52710
 Alpha  occ. eigenvalues --   -0.52634  -0.52572  -0.52185  -0.49953  -0.49878
 Alpha  occ. eigenvalues --   -0.47882  -0.47866  -0.46733  -0.46574  -0.45855
 Alpha  occ. eigenvalues --   -0.45736  -0.45686  -0.45365  -0.43778  -0.43684
 Alpha virt. eigenvalues --    0.21256   0.23137   0.23407   0.24688   0.25567
 Alpha virt. eigenvalues --    0.26104   0.26605   0.27544   0.28066   0.29395
 Alpha virt. eigenvalues --    0.29741   0.31185   0.31760   0.32172   0.32369

 Mulliken charges:
               1
     1  C   -0.298182
     2  C   -0.299589
     3  C   -0.475672
     4  H    0.149349
     5  H    0.149573
     6  H    0.151746
     7  H    0.151942
     8  H    0.155199
     9  H    0.155085
    10  H    0.160175
    11  C   -0.298493
    12  C   -0.300449
    13  C   -0.481262
    14  H    0.149192
    15  H    0.149624
    16  H    0.152292
    17  H    0.151458
    18  H    0.153084
    19  H    0.162405
    20  H    0.161303
    21  C   -0.297629
    22  C   -0.300544
    23  C   -0.475517
    24  H    0.149491
    25  H    0.149021
    26  H    0.152501
    27  H    0.151142
    28  H    0.155197
    29  H    0.155321
    30  H    0.160285
    31  C   -0.302455
    32  C   -0.299576
    33  C   -0.478040
    34  H    0.157353
    35  H    0.148429
    36  H    0.151729
    37  H    0.151480
    38  H    0.155513
    39  H    0.157423
    40  H    0.160097
 Sum of Mulliken charges =  -0.00000

 Dipole moment (field-independent basis, Debye):
    X=             -0.0351    Y=              0.0029    Z=              0.0126  Tot=              0.0374
 Quadrupole moment (field-independent basis, Debye-Ang):
   XX=            -85.9490   YY=            -85.5182   ZZ=            -83.4773
   XY=             -0.6485   XZ=              0.5543   YZ=              0.4006

 Normal termination of Gaussian 16 at Thu May  6 06:55:09 2021.
