 Gaussian 16, Revision A.03,
 Gaussian 16:  EM64L-G16RevA.03 25-Dec-2016

 -------------
 #p 6-31g* mp2
 -------------

 ------------------------------------------------------
 Input file generated by CHIRIPA (05-May-2021 14:53:14)
 ------------------------------------------------------
 Symbolic Z-matrix:
 Charge =  0 Multiplicity = 1

                         Standard orientation:
 ---------------------------------------------------------------------
 Center     Atomic      Atomic             Coordinates (Angstroms)
 Number     Number       Type             X           Y           Z
 ---------------------------------------------------------------------
      1          6           0       -4.108298   -0.825696   -0.005918
      2          6           0       -2.724044   -0.318212    0.399403
      3          6           0       -1.647142   -1.399537    0.305523
      4          1           0       -4.382572   -1.674948    0.634777
      5          1           0       -4.063269   -1.211378   -1.033837
      6          1           0       -2.771994    0.067667    1.425763
      7          1           0       -2.453115    0.530053   -0.242205
      8          1           0       -1.570105   -1.778616   -0.718667
      9          1           0       -1.890796   -2.243629    0.958778
     10          1           0       -0.665537   -1.015158    0.599740
     11          6           0       -5.195520    0.243800    0.082710
     12          6           0       -6.579774   -0.263685   -0.322611
     13          6           0       -7.656676    0.817640   -0.228732
     14          1           0       -5.240549    0.629482    1.110628
     15          1           0       -4.921246    1.093052   -0.557985
     16          1           0       -6.850703   -1.111949    0.318997
     17          1           0       -6.531824   -0.649564   -1.348971
     18          1           0       -7.413023    1.661732   -0.881987
     19          1           0       -7.733713    1.196720    0.795458
     20          1           0       -8.638282    0.433262   -0.522948
     21          6           0        4.744852   -2.035385   -0.143356
     22          6           0        5.517824   -0.871837   -0.215413
     23          6           0        4.913198    0.387194   -0.153629
     24          6           0        3.526940    0.446051   -0.019037
     25          6           0        2.729611   -0.695005    0.055438
     26          6           0        3.355662   -1.943417   -0.008398
     27          1           0        5.222862   -3.009305   -0.192149
     28          1           0        6.596888   -0.940228   -0.320235
     29          1           0        5.487608    1.304046   -0.207045
     30          1           0        1.656065   -0.594890    0.159805
     31          1           0        2.752846   -2.845359    0.047811
     32          7           0        2.875509    1.773311    0.047457
     33          8           0        1.652426    1.798200    0.166138
     34          8           0        3.600335    2.763596   -0.020364
 ---------------------------------------------------------------------

 SCF Done:  E(RHF) =  -669.535623283     A.U. after   15 cycles
 E2 =    -0.2090860678D+01 EUMP2 =    -0.67162648396076D+03

 The electronic state is 1-A.
 Alpha  occ. eigenvalues --  -20.60760 -20.60754 -15.85811 -11.31160 -11.27734
 Alpha  occ. eigenvalues --  -11.27712 -11.27477 -11.26751 -11.26731 -11.21454
 Alpha  occ. eigenvalues --  -11.21439 -11.21297 -11.21266 -11.21181 -11.20909
 Alpha  occ. eigenvalues --   -1.59834  -1.39389  -1.19336  -1.08735  -1.08294
 Alpha  occ. eigenvalues --   -1.04737  -1.03438  -0.95931  -0.95571  -0.86958
 Alpha  occ. eigenvalues --   -0.86136  -0.82402  -0.79493  -0.78086  -0.77453
 Alpha  occ. eigenvalues --   -0.72032  -0.71156  -0.70456  -0.64988  -0.64919
 Alpha  occ. eigenvalues --   -0.64750  -0.62122  -0.60828  -0.59287  -0.57517
 Alpha  occ. eigenvalues --   -0.55254  -0.55208  -0.53068  -0.52967  -0.52528
 Alpha  occ. eigenvalues --   -0.52321  -0.49860  -0.48789  -0.48786  -0.47811
 Alpha  occ. eigenvalues --   -0.46498  -0.45639  -0.45548  -0.44797  -0.43701
 Alpha  occ. eigenvalues --   -0.37320  -0.36339
 Alpha virt. eigenvalues --    0.05081   0.11311   0.16577   0.20497   0.22996
 Alpha virt. eigenvalues --    0.23930   0.26135   0.26821   0.27645   0.27872
 Alpha virt. eigenvalues --    0.28989   0.30455   0.31482   0.31538   0.32112

 Mulliken charges:
               1
     1  C   -0.299251
     2  C   -0.297886
     3  C   -0.483650
     4  H    0.147842
     5  H    0.148512
     6  H    0.154709
     7  H    0.161067
     8  H    0.153799
     9  H    0.153987
    10  H    0.159903
    11  C   -0.298611
    12  C   -0.299557
    13  C   -0.475735
    14  H    0.150414
    15  H    0.152087
    16  H    0.150972
    17  H    0.151389
    18  H    0.156061
    19  H    0.155468
    20  H    0.159553
    21  C   -0.170542
    22  C   -0.219159
    23  C   -0.169831
    24  C    0.157472
    25  C   -0.180676
    26  C   -0.223275
    27  H    0.225559
    28  H    0.223343
    29  H    0.275533
    30  H    0.291376
    31  H    0.224400
    32  N    0.486370
    33  O   -0.461352
    34  O   -0.460291
 Sum of Mulliken charges =  -0.00000

 Dipole moment (field-independent basis, Debye):
    X=              2.2358    Y=             -4.6040    Z=             -0.2372  Tot=              5.1236
 Quadrupole moment (field-independent basis, Debye-Ang):
   XX=            -75.3529   YY=            -98.9779   ZZ=            -94.6961
   XY=            -13.0623   XZ=             -1.5383   YZ=             -0.4959

 Normal termination of Gaussian 16 at Wed May  5 23:28:53 2021.
