 Gaussian 16, Revision A.03,
 Gaussian 16:  EM64L-G16RevA.03 25-Dec-2016

 -------------
 #p 6-31g* mp2
 -------------

 ------------------------------------------------------
 Input file generated by CHIRIPA (05-May-2021 14:51:10)
 ------------------------------------------------------
 Symbolic Z-matrix:
 Charge =  0 Multiplicity = 1

                         Standard orientation:
 ---------------------------------------------------------------------
 Center     Atomic      Atomic             Coordinates (Angstroms)
 Number     Number       Type             X           Y           Z
 ---------------------------------------------------------------------
      1          6           0        2.640119    0.618651   -1.022617
      2          6           0        1.728036    1.779380   -0.624125
      3          6           0        1.569752    2.815809   -1.737030
      4          1           0        3.626691    1.014456   -1.300033
      5          1           0        2.233818    0.134007   -1.921191
      6          1           0        2.135190    2.260826    0.274235
      7          1           0        0.743579    1.380748   -0.347442
      8          1           0        1.141885    2.355932   -2.633715
      9          1           0        2.541403    3.241010   -2.008505
     10          1           0        0.913819    3.636693   -1.430824
     11          6           0        2.808208   -0.425704    0.079562
     12          6           0        3.720292   -1.586434   -0.318930
     13          6           0        3.878576   -2.622862    0.793975
     14          1           0        3.214510    0.058939    0.978136
     15          1           0        1.821637   -0.821510    0.356978
     16          1           0        4.704748   -1.187801   -0.595613
     17          1           0        3.313137   -2.067879   -1.217290
     18          1           0        2.906925   -3.048063    1.065451
     19          1           0        4.306443   -2.162985    1.690660
     20          1           0        4.534508   -3.443746    0.487769
     21          6           0       -2.275036   -0.135715    1.088111
     22          6           0       -1.827867    1.233689    1.600710
     23          6           0       -0.929947    1.138672    2.834609
     24          1           0       -2.807045   -0.664732    1.890641
     25          1           0       -1.387414   -0.738560    0.851257
     26          1           0       -2.716085    1.834265    1.835220
     27          1           0       -1.297028    1.759584    0.796807
     28          1           0       -0.026789    0.561953    2.610326
     29          1           0       -1.453908    0.637058    3.654639
     30          1           0       -0.621983    2.129014    3.184237
     31          6           0       -3.173292   -0.057231   -0.145057
     32          6           0       -3.620460   -1.426636   -0.657655
     33          6           0       -4.518380   -1.331618   -1.891554
     34          1           0       -4.060914    0.545613    0.091798
     35          1           0       -2.641283    0.471785   -0.947585
     36          1           0       -4.151300   -1.952531    0.146248
     37          1           0       -2.732244   -2.027212   -0.892165
     38          1           0       -3.994419   -0.830005   -2.711584
     39          1           0       -5.421538   -0.754899   -1.667270
     40          1           0       -4.826345   -2.321961   -2.241183
 ---------------------------------------------------------------------

 SCF Done:  E(RHF) =  -470.733310697     A.U. after   11 cycles
 E2 =    -0.1583586941D+01 EUMP2 =    -0.47231689763812D+03

 The electronic state is 1-A.
 Alpha  occ. eigenvalues --  -11.21650 -11.21633 -11.21631 -11.21567 -11.21470
 Alpha  occ. eigenvalues --  -11.21434 -11.21408 -11.21375 -11.21123 -11.21102
 Alpha  occ. eigenvalues --  -11.21095 -11.21024  -1.08500  -1.08436  -1.03595
 Alpha  occ. eigenvalues --   -1.03516  -0.96028  -0.95981  -0.87043  -0.86997
 Alpha  occ. eigenvalues --   -0.79689  -0.79556  -0.78315  -0.78253  -0.65281
 Alpha  occ. eigenvalues --   -0.64944  -0.61120  -0.60809  -0.59408  -0.59328
 Alpha  occ. eigenvalues --   -0.57664  -0.57565  -0.55323  -0.55263  -0.52717
 Alpha  occ. eigenvalues --   -0.52671  -0.52451  -0.52404  -0.50011  -0.49893
 Alpha  occ. eigenvalues --   -0.48055  -0.47868  -0.46863  -0.46463  -0.46024
 Alpha  occ. eigenvalues --   -0.45788  -0.45700  -0.45501  -0.43834  -0.43791
 Alpha virt. eigenvalues --    0.19533   0.23275   0.23816   0.23996   0.25724
 Alpha virt. eigenvalues --    0.26287   0.26734   0.28096   0.28384   0.29496
 Alpha virt. eigenvalues --    0.30834   0.31386   0.31681   0.31756   0.32249

 Mulliken charges:
               1
     1  C   -0.297738
     2  C   -0.307009
     3  C   -0.476039
     4  H    0.150032
     5  H    0.149256
     6  H    0.152710
     7  H    0.158869
     8  H    0.154899
     9  H    0.155671
    10  H    0.160521
    11  C   -0.300511
    12  C   -0.299695
    13  C   -0.475822
    14  H    0.150197
    15  H    0.150206
    16  H    0.152310
    17  H    0.151962
    18  H    0.155234
    19  H    0.155422
    20  H    0.160465
    21  C   -0.300146
    22  C   -0.304247
    23  C   -0.477101
    24  H    0.150140
    25  H    0.149425
    26  H    0.152223
    27  H    0.156439
    28  H    0.157514
    29  H    0.154783
    30  H    0.160082
    31  C   -0.298345
    32  C   -0.299586
    33  C   -0.475711
    34  H    0.149941
    35  H    0.149215
    36  H    0.152135
    37  H    0.151506
    38  H    0.155133
    39  H    0.155341
    40  H    0.160320
 Sum of Mulliken charges =  -0.00000

 Dipole moment (field-independent basis, Debye):
    X=              0.0210    Y=              0.0103    Z=              0.0003  Tot=              0.0234
 Quadrupole moment (field-independent basis, Debye-Ang):
   XX=            -83.8088   YY=            -85.2084   ZZ=            -85.6100
   XY=              0.5123   XZ=             -0.9321   YZ=              0.7124

 Normal termination of Gaussian 16 at Thu May  6 05:22:21 2021.
