 Gaussian 16, Revision A.03,
 Gaussian 16:  EM64L-G16RevA.03 25-Dec-2016

 -------------
 #p 6-31g* mp2
 -------------

 ------------------------------------------------------
 Input file generated by CHIRIPA (05-May-2021 14:55:20)
 ------------------------------------------------------
 Symbolic Z-matrix:
 Charge =  0 Multiplicity = 1

                         Standard orientation:
 ---------------------------------------------------------------------
 Center     Atomic      Atomic             Coordinates (Angstroms)
 Number     Number       Type             X           Y           Z
 ---------------------------------------------------------------------
      1          6           0        3.976996   -2.200369    0.148318
      2          6           0        2.825545   -1.891133    0.879792
      3          6           0        2.327145   -0.585107    0.900816
      4          6           0        3.008312    0.391385    0.175719
      5          6           0        4.157892    0.114618   -0.562628
      6          6           0        4.638329   -1.198274   -0.569292
      7          1           0        4.357188   -3.217588    0.137563
      8          1           0        2.309886   -2.667346    1.438034
      9          1           0        1.437813   -0.318060    1.458662
     10          1           0        4.650227    0.909749   -1.109245
     11          1           0        5.532779   -1.435533   -1.138249
     12          7           0        2.490187    1.777650    0.190375
     13          8           0        3.108615    2.619904   -0.456766
     14          8           0        1.475463    1.995701    0.848726
     15          6           0       -4.562668    0.208225   -0.006254
     16          6           0       -5.876570   -0.573738   -0.019612
     17          6           0       -7.073176    0.273529    0.414056
     18          1           0       -4.387942    0.601963    1.004383
     19          1           0       -4.655804    1.079446   -0.669351
     20          1           0       -5.780515   -1.443991    0.642241
     21          1           0       -6.048093   -0.965820   -1.030288
     22          1           0       -7.197313    1.133999   -0.251363
     23          1           0       -6.928215    0.653112    1.430670
     24          1           0       -8.001998   -0.305147    0.397211
     25          6           0       -3.357217   -0.625278   -0.437402
     26          6           0       -2.043315    0.156684   -0.424045
     27          6           0       -0.846709   -0.690583   -0.857713
     28          1           0       -3.264082   -1.496499    0.225693
     29          1           0       -3.531943   -1.019016   -1.448039
     30          1           0       -1.871793    0.548768    0.586631
     31          1           0       -2.139370    1.026937   -1.085898
     32          1           0       -0.991670   -1.070166   -1.874327
     33          1           0       -0.722572   -1.551053   -0.192295
     34          1           0        0.082112   -0.111905   -0.840867
 ---------------------------------------------------------------------

 SCF Done:  E(RHF) =  -669.534905932     A.U. after   15 cycles
 E2 =    -0.2092745277D+01 EUMP2 =    -0.67162765120926D+03

 The electronic state is 1-A.
 Alpha  occ. eigenvalues --  -20.60869 -20.60848 -15.85887 -11.31179 -11.27779
 Alpha  occ. eigenvalues --  -11.27756 -11.27516 -11.26758 -11.26745 -11.21426
 Alpha  occ. eigenvalues --  -11.21224 -11.21163 -11.21106 -11.20900 -11.20895
 Alpha  occ. eigenvalues --   -1.59923  -1.39478  -1.19377  -1.08781  -1.08191
 Alpha  occ. eigenvalues --   -1.04772  -1.03302  -0.95806  -0.95604  -0.86827
 Alpha  occ. eigenvalues --   -0.86160  -0.82455  -0.79358  -0.77987  -0.77509
 Alpha  occ. eigenvalues --   -0.72110  -0.71255  -0.70493  -0.65030  -0.64853
 Alpha  occ. eigenvalues --   -0.64753  -0.62143  -0.60702  -0.59146  -0.57377
 Alpha  occ. eigenvalues --   -0.55300  -0.55084  -0.53259  -0.52867  -0.52309
 Alpha  occ. eigenvalues --   -0.52197  -0.49738  -0.48874  -0.48862  -0.47677
 Alpha  occ. eigenvalues --   -0.46389  -0.45536  -0.45463  -0.44876  -0.43556
 Alpha  occ. eigenvalues --   -0.37338  -0.36310
 Alpha virt. eigenvalues --    0.05011   0.11252   0.16457   0.21007   0.23049
 Alpha virt. eigenvalues --    0.24252   0.26617   0.27294   0.27587   0.28049
 Alpha virt. eigenvalues --    0.28819   0.30598   0.31586   0.31763   0.32139

 Mulliken charges:
               1
     1  C   -0.170189
     2  C   -0.218793
     3  C   -0.168119
     4  C    0.156412
     5  C   -0.170741
     6  C   -0.219029
     7  H    0.225718
     8  H    0.223291
     9  H    0.277348
    10  H    0.275568
    11  H    0.223359
    12  N    0.488917
    13  O   -0.459381
    14  O   -0.460101
    15  C   -0.298218
    16  C   -0.299314
    17  C   -0.475606
    18  H    0.150701
    19  H    0.151262
    20  H    0.150258
    21  H    0.151238
    22  H    0.155868
    23  H    0.155445
    24  H    0.159237
    25  C   -0.298426
    26  C   -0.298634
    27  C   -0.478427
    28  H    0.145299
    29  H    0.148277
    30  H    0.157562
    31  H    0.156899
    32  H    0.154059
    33  H    0.143670
    34  H    0.164592
 Sum of Mulliken charges =  -0.00000

 Dipole moment (field-independent basis, Debye):
    X=              1.8982    Y=             -4.7730    Z=             -0.0421  Tot=              5.1368
 Quadrupole moment (field-independent basis, Debye-Ang):
   XX=            -82.3618   YY=            -99.0061   ZZ=            -92.6873
   XY=            -12.8853   XZ=             -2.0323   YZ=             -2.3621

 Normal termination of Gaussian 16 at Wed May  5 22:10:34 2021.
