 Gaussian 16, Revision A.03,
 Gaussian 16:  EM64L-G16RevA.03 25-Dec-2016

 -------------
 #p 6-31g* mp2
 -------------

 ------------------------------------------------------
 Input file generated by CHIRIPA (05-May-2021 14:55:24)
 ------------------------------------------------------
 Symbolic Z-matrix:
 Charge =  0 Multiplicity = 1

                         Standard orientation:
 ---------------------------------------------------------------------
 Center     Atomic      Atomic             Coordinates (Angstroms)
 Number     Number       Type             X           Y           Z
 ---------------------------------------------------------------------
      1          6           0        0.706187   -1.534020    0.766693
      2          6           0        1.101929   -1.591602   -0.573677
      3          6           0        2.292130   -0.987177   -0.989177
      4          6           0        3.065845   -0.330606   -0.033368
      5          6           0        2.698532   -0.255953    1.309315
      6          6           0        1.504344   -0.867554    1.702262
      7          1           0       -0.219939   -2.006339    1.080703
      8          1           0        0.484059   -2.108500   -1.302443
      9          1           0        2.622303   -1.016507   -2.020459
     10          1           0        3.335418    0.266572    2.012708
     11          1           0        1.199500   -0.821236    2.743881
     12          7           0        4.327968    0.313071   -0.461301
     13          8           0        4.991914    0.885384    0.400250
     14          8           0        4.629375    0.233083   -1.650163
     15          6           0       -3.110891    1.022363   -0.310890
     16          6           0       -1.925792    1.165571    0.644628
     17          6           0       -0.839466    2.095762    0.103856
     18          1           0       -2.750699    0.644727   -1.277636
     19          1           0       -3.539782    2.015525   -0.503439
     20          1           0       -1.500124    0.172273    0.836407
     21          1           0       -2.288875    1.542729    1.609273
     22          1           0       -1.242708    3.098559   -0.070490
     23          1           0       -0.449476    1.720315   -0.847747
     24          1           0       -0.001813    2.183720    0.802757
     25          6           0       -4.205157    0.095567    0.215760
     26          6           0       -5.390257   -0.047642   -0.739758
     27          6           0       -6.476583   -0.977832   -0.198986
     28          1           0       -3.776266   -0.897596    0.408309
     29          1           0       -4.565350    0.473203    1.182506
     30          1           0       -5.027174   -0.424799   -1.704403
     31          1           0       -5.815925    0.945657   -0.931537
     32          1           0       -6.866574   -0.602386    0.752617
     33          1           0       -6.073341   -1.980629   -0.024639
     34          1           0       -7.314235   -1.065790   -0.897887
 ---------------------------------------------------------------------

 SCF Done:  E(RHF) =  -669.534833525     A.U. after   15 cycles
 E2 =    -0.2093390283D+01 EUMP2 =    -0.67162822380845D+03

 The electronic state is 1-A.
 Alpha  occ. eigenvalues --  -20.60799 -20.60794 -15.85856 -11.31245 -11.27840
 Alpha  occ. eigenvalues --  -11.27834 -11.27582 -11.26858 -11.26843 -11.22122
 Alpha  occ. eigenvalues --  -11.22047 -11.21996 -11.21878 -11.21558 -11.21312
 Alpha  occ. eigenvalues --   -1.59875  -1.39428  -1.19438  -1.08974  -1.08816
 Alpha  occ. eigenvalues --   -1.04844  -1.03985  -0.96422  -0.95661  -0.87433
 Alpha  occ. eigenvalues --   -0.86241  -0.82494  -0.80065  -0.78790  -0.77522
 Alpha  occ. eigenvalues --   -0.72075  -0.71198  -0.70577  -0.65607  -0.65094
 Alpha  occ. eigenvalues --   -0.64842  -0.62189  -0.61418  -0.59808  -0.58056
 Alpha  occ. eigenvalues --   -0.55759  -0.55367  -0.53269  -0.52937  -0.52919
 Alpha  occ. eigenvalues --   -0.52817  -0.50363  -0.48836  -0.48827  -0.48375
 Alpha  occ. eigenvalues --   -0.47122  -0.46319  -0.46269  -0.44829  -0.44258
 Alpha  occ. eigenvalues --   -0.37318  -0.36435
 Alpha virt. eigenvalues --    0.04978   0.11178   0.16370   0.20461   0.22666
 Alpha virt. eigenvalues --    0.23954   0.25521   0.26488   0.27094   0.27631
 Alpha virt. eigenvalues --    0.29161   0.30672   0.31205   0.31499   0.31968

 Mulliken charges:
               1
     1  C   -0.168941
     2  C   -0.219061
     3  C   -0.170682
     4  C    0.159575
     5  C   -0.171191
     6  C   -0.217049
     7  H    0.226304
     8  H    0.223614
     9  H    0.275960
    10  H    0.276014
    11  H    0.224431
    12  N    0.488093
    13  O   -0.460281
    14  O   -0.460299
    15  C   -0.298142
    16  C   -0.301883
    17  C   -0.474439
    18  H    0.147939
    19  H    0.152446
    20  H    0.145924
    21  H    0.150683
    22  H    0.155981
    23  H    0.156251
    24  H    0.161233
    25  C   -0.296909
    26  C   -0.299765
    27  C   -0.475756
    28  H    0.141742
    29  H    0.150934
    30  H    0.151475
    31  H    0.154281
    32  H    0.156044
    33  H    0.153434
    34  H    0.162038
 Sum of Mulliken charges =  -0.00000

 Dipole moment (field-independent basis, Debye):
    X=             -4.4134    Y=             -2.2399    Z=              1.4926  Tot=              5.1695
 Quadrupole moment (field-independent basis, Debye-Ang):
   XX=           -122.9716   YY=            -93.2522   ZZ=            -90.3696
   XY=             -6.3048   XZ=              5.8361   YZ=              1.6870

 Normal termination of Gaussian 16 at Wed May  5 20:45:28 2021.
