 Gaussian 16, Revision A.03,
 Gaussian 16:  EM64L-G16RevA.03 25-Dec-2016

 -------------
 #p 6-31g* mp2
 -------------

 ------------------------------------------------------
 Input file generated by CHIRIPA (05-May-2021 14:57:27)
 ------------------------------------------------------
 Symbolic Z-matrix:
 Charge =  0 Multiplicity = 1

                         Standard orientation:
 ---------------------------------------------------------------------
 Center     Atomic      Atomic             Coordinates (Angstroms)
 Number     Number       Type             X           Y           Z
 ---------------------------------------------------------------------
      1          6           0       -2.218207    1.314087    0.767061
      2          6           0       -2.988764    1.766313   -0.309162
      3          6           0       -4.133548    1.068519   -0.705521
      4          6           0       -4.480138   -0.082826   -0.000136
      5          6           0       -3.732957   -0.558685    1.076233
      6          6           0       -2.592104    0.155075    1.455110
      7          1           0       -1.330438    1.862352    1.068172
      8          1           0       -2.700790    2.666103   -0.845347
      9          1           0       -4.748215    1.396298   -1.535078
     10          1           0       -4.045298   -1.458961    1.591369
     11          1           0       -1.995579   -0.198470    2.291298
     12          7           0       -5.689989   -0.830000   -0.410490
     13          8           0       -5.973999   -1.841533    0.227301
     14          8           0       -6.331353   -0.389955   -1.362146
     15          6           0        2.067994    1.148406    0.170442
     16          6           0        2.115298   -0.249550    0.171702
     17          6           0        3.335733   -0.918789    0.040531
     18          6           0        4.494660   -0.155238   -0.090499
     19          6           0        4.480158    1.238697   -0.095349
     20          6           0        3.248494    1.886766    0.037155
     21          1           0        1.115570    1.660065    0.272856
     22          1           0        1.200100   -0.825551    0.275050
     23          1           0        3.401143   -2.000054    0.038334
     24          1           0        5.409268    1.785689   -0.200094
     25          1           0        3.214775    2.972540    0.035844
     26          7           0        5.792624   -0.852527   -0.230070
     27          8           0        6.799461   -0.156879   -0.344052
     28          8           0        5.778555   -2.081504   -0.222839
 ---------------------------------------------------------------------

 SCF Done:  E(RHF) =  -868.336563753     A.U. after   16 cycles
 E2 =    -0.2599890225D+01 EUMP2 =    -0.87093645397832D+03

 The electronic state is 1-A.
 Alpha  occ. eigenvalues --  -20.61420 -20.61415 -20.61225 -20.61220 -15.86479
 Alpha  occ. eigenvalues --  -15.86283 -11.32045 -11.31785 -11.28613 -11.28600
 Alpha  occ. eigenvalues --  -11.28535 -11.28354 -11.28348 -11.28253 -11.27741
 Alpha  occ. eigenvalues --  -11.27719 -11.27452 -11.27439  -1.60491  -1.60297
 Alpha  occ. eigenvalues --   -1.40038  -1.39847  -1.20243  -1.19978  -1.09634
 Alpha  occ. eigenvalues --   -1.09374  -1.05660  -1.05392  -0.96433  -0.96180
 Alpha  occ. eigenvalues --   -0.87064  -0.86797  -0.83249  -0.82998  -0.78228
 Alpha  occ. eigenvalues --   -0.78001  -0.72694  -0.72499  -0.71816  -0.71621
 Alpha  occ. eigenvalues --   -0.71585  -0.71017  -0.65903  -0.65678  -0.65637
 Alpha  occ. eigenvalues --   -0.65398  -0.62987  -0.62726  -0.56489  -0.55771
 Alpha  occ. eigenvalues --   -0.53991  -0.53756  -0.53724  -0.53490  -0.49470
 Alpha  occ. eigenvalues --   -0.49436  -0.49270  -0.49245  -0.45399  -0.45221
 Alpha  occ. eigenvalues --   -0.38286  -0.38007  -0.37252  -0.36984
 Alpha virt. eigenvalues --    0.04254   0.04518   0.10349   0.10658   0.15532
 Alpha virt. eigenvalues --    0.15951   0.18202   0.21921   0.24801   0.26022
 Alpha virt. eigenvalues --    0.27018   0.29388   0.29488   0.31558   0.32269

 Mulliken charges:
               1
     1  C   -0.177547
     2  C   -0.217600
     3  C   -0.169867
     4  C    0.160031
     5  C   -0.170166
     6  C   -0.221262
     7  H    0.220341
     8  H    0.224310
     9  H    0.278595
    10  H    0.278464
    11  H    0.224692
    12  N    0.487836
    13  O   -0.458046
    14  O   -0.457901
    15  C   -0.172948
    16  C   -0.220180
    17  C   -0.170122
    18  C    0.159384
    19  C   -0.170153
    20  C   -0.218645
    21  H    0.217540
    22  H    0.223974
    23  H    0.277811
    24  H    0.277415
    25  H    0.223688
    26  N    0.487875
    27  O   -0.458917
    28  O   -0.458602
 Sum of Mulliken charges =  -0.00000

 Dipole moment (field-independent basis, Debye):
    X=             -0.4115    Y=              4.9590    Z=              1.8649  Tot=              5.3140
 Quadrupole moment (field-independent basis, Debye-Ang):
   XX=           -182.0297   YY=           -100.4121   ZZ=           -103.4572
   XY=              1.3806   XZ=             -3.2708   YZ=             -3.6820

 Normal termination of Gaussian 16 at Fri May  7 02:03:19 2021.
