 Gaussian 16, Revision A.03,
 Gaussian 16:  EM64L-G16RevA.03 25-Dec-2016

 -------------
 #p 6-31g* mp2
 -------------

 ------------------------------------------------------
 Input file generated by CHIRIPA (05-May-2021 14:53:17)
 ------------------------------------------------------
 Symbolic Z-matrix:
 Charge =  0 Multiplicity = 1

                         Standard orientation:
 ---------------------------------------------------------------------
 Center     Atomic      Atomic             Coordinates (Angstroms)
 Number     Number       Type             X           Y           Z
 ---------------------------------------------------------------------
      1          6           0        2.511687    0.461780   -0.423390
      2          6           0        3.700549   -0.335369    0.114332
      3          6           0        4.148420   -1.444091   -0.838528
      4          1           0        1.673587   -0.223372   -0.610742
      5          1           0        2.781391    0.898704   -1.394859
      6          1           0        3.429156   -0.769515    1.085146
      7          1           0        4.535853    0.351788    0.300607
      8          1           0        4.445594   -1.024592   -1.805124
      9          1           0        3.332609   -2.152266   -1.016127
     10          1           0        4.999389   -2.001255   -0.434449
     11          6           0        2.052353    1.573782    0.517988
     12          6           0        0.863491    2.370931   -0.019734
     13          6           0        0.415620    3.479653    0.933126
     14          1           0        1.782649    1.136858    1.489457
     15          1           0        2.890453    2.258934    0.705340
     16          1           0        0.028187    1.683774   -0.206009
     17          1           0        1.134884    2.805077   -0.990548
     18          1           0        1.231431    4.187828    1.110726
     19          1           0        0.118446    3.060154    1.899723
     20          1           0       -0.435349    4.036817    0.529047
     21          6           0       -0.429271   -2.673353    0.966104
     22          6           0       -0.358856   -2.415510   -0.406877
     23          6           0       -1.104423   -1.377429   -0.973504
     24          6           0       -1.913686   -0.613563   -0.133924
     25          6           0       -2.005149   -0.845722    1.237581
     26          6           0       -1.250745   -1.889020    1.782512
     27          1           0        0.153336   -3.481787    1.397846
     28          1           0        0.278262   -3.023007   -1.043331
     29          1           0       -1.068712   -1.155986   -2.033270
     30          1           0       -2.649218   -0.223000    1.846523
     31          1           0       -1.307401   -2.086977    2.849118
     32          7           0       -2.707662    0.488168   -0.722303
     33          8           0       -3.413059    1.146666    0.038902
     34          8           0       -2.609549    0.672347   -1.933537
 ---------------------------------------------------------------------

 SCF Done:  E(RHF) =  -669.534810107     A.U. after   15 cycles
 E2 =    -0.2095230189D+01 EUMP2 =    -0.67163004029658D+03

 The electronic state is 1-A.
 Alpha  occ. eigenvalues --  -20.60877 -20.60871 -15.85925 -11.31323 -11.27906
 Alpha  occ. eigenvalues --  -11.27897 -11.27654 -11.26929 -11.26918 -11.21863
 Alpha  occ. eigenvalues --  -11.21541 -11.21385 -11.21359 -11.21291 -11.20716
 Alpha  occ. eigenvalues --   -1.59952  -1.39502  -1.19526  -1.08907  -1.08444
 Alpha  occ. eigenvalues --   -1.04929  -1.03555  -0.96003  -0.95728  -0.87025
 Alpha  occ. eigenvalues --   -0.86315  -0.82557  -0.79635  -0.78250  -0.77593
 Alpha  occ. eigenvalues --   -0.72144  -0.71300  -0.70606  -0.65170  -0.65112
 Alpha  occ. eigenvalues --   -0.64904  -0.62263  -0.60970  -0.59389  -0.57594
 Alpha  occ. eigenvalues --   -0.55419  -0.55325  -0.53289  -0.53005  -0.52677
 Alpha  occ. eigenvalues --   -0.52432  -0.49983  -0.48911  -0.48897  -0.47954
 Alpha  occ. eigenvalues --   -0.46704  -0.45770  -0.45691  -0.44872  -0.43774
 Alpha  occ. eigenvalues --   -0.37461  -0.36442
 Alpha virt. eigenvalues --    0.04910   0.11031   0.16338   0.20588   0.22907
 Alpha virt. eigenvalues --    0.23918   0.25885   0.26891   0.27581   0.28255
 Alpha virt. eigenvalues --    0.28277   0.29900   0.31547   0.31905   0.32171

 Mulliken charges:
               1
     1  C   -0.305361
     2  C   -0.298514
     3  C   -0.474378
     4  H    0.154368
     5  H    0.149491
     6  H    0.148478
     7  H    0.153531
     8  H    0.157736
     9  H    0.145354
    10  H    0.160298
    11  C   -0.296906
    12  C   -0.300284
    13  C   -0.475943
    14  H    0.146680
    15  H    0.149126
    16  H    0.149648
    17  H    0.154693
    18  H    0.153031
    19  H    0.151815
    20  H    0.169027
    21  C   -0.170676
    22  C   -0.218860
    23  C   -0.172164
    24  C    0.156193
    25  C   -0.171945
    26  C   -0.218304
    27  H    0.226757
    28  H    0.225818
    29  H    0.277259
    30  H    0.276480
    31  H    0.224266
    32  N    0.492403
    33  O   -0.459720
    34  O   -0.459398
 Sum of Mulliken charges =  -0.00000

 Dipole moment (field-independent basis, Debye):
    X=              2.6381    Y=             -3.8405    Z=              2.0528  Tot=              5.0915
 Quadrupole moment (field-independent basis, Debye-Ang):
   XX=           -105.4954   YY=            -90.4197   ZZ=            -91.4663
   XY=              6.1225   XZ=             -6.3796   YZ=             -0.6098

 Normal termination of Gaussian 16 at Thu May  6 18:57:27 2021.
