 Gaussian 16, Revision A.03,
 Gaussian 16:  EM64L-G16RevA.03 25-Dec-2016

 -------------
 #p 6-31g* mp2
 -------------

 ------------------------------------------------------
 Input file generated by CHIRIPA (05-May-2021 14:55:20)
 ------------------------------------------------------
 Symbolic Z-matrix:
 Charge =  0 Multiplicity = 1

                         Standard orientation:
 ---------------------------------------------------------------------
 Center     Atomic      Atomic             Coordinates (Angstroms)
 Number     Number       Type             X           Y           Z
 ---------------------------------------------------------------------
      1          6           0       -3.269997    2.529496    0.107177
      2          6           0       -2.704360    1.868174   -0.987916
      3          6           0       -2.636484    0.472067   -1.016646
      4          6           0       -3.146131   -0.234501    0.071615
      5          6           0       -3.715674    0.395479    1.177072
      6          6           0       -3.772962    1.792338    1.184277
      7          1           0       -3.318613    3.614318    0.121135
      8          1           0       -2.312962    2.438082   -1.825804
      9          1           0       -2.203868   -0.065417   -1.851734
     10          1           0       -4.097525   -0.199806    1.997586
     11          1           0       -4.212797    2.303255    2.036072
     12          7           0       -3.079878   -1.712895    0.052594
     13          8           0       -3.535896   -2.312442    1.023793
     14          8           0       -2.573184   -2.244120   -0.933154
     15          6           0        3.427351    0.289227   -0.436661
     16          6           0        2.184610   -0.596341   -0.339967
     17          6           0        0.965150    0.019263   -1.026804
     18          1           0        3.207909    1.268206    0.010988
     19          1           0        3.656001    0.473855   -1.495446
     20          1           0        1.959181   -0.780383    0.718299
     21          1           0        2.407095   -1.573392   -0.787727
     22          1           0        1.165722    0.187306   -2.089881
     23          1           0        0.715262    0.984821   -0.575300
     24          1           0        0.088090   -0.630374   -0.945583
     25          6           0        4.654697   -0.312666    0.245301
     26          6           0        5.897438    0.572902    0.148608
     27          6           0        7.116898   -0.042703    0.835444
     28          1           0        4.426046   -0.497295    1.304087
     29          1           0        4.874139   -1.291646   -0.202347
     30          1           0        5.674953    1.549953    0.596367
     31          1           0        6.122866    0.756945   -0.909658
     32          1           0        7.366784   -1.008261    0.383940
     33          1           0        6.916326   -0.210746    1.898522
     34          1           0        7.993958    0.606934    0.754224
 ---------------------------------------------------------------------

 SCF Done:  E(RHF) =  -669.535407778     A.U. after   15 cycles
 E2 =    -0.2092228526D+01 EUMP2 =    -0.67162763630380D+03

 The electronic state is 1-A.
 Alpha  occ. eigenvalues --  -20.60864 -20.60853 -15.85886 -11.31170 -11.27766
 Alpha  occ. eigenvalues --  -11.27738 -11.27505 -11.26753 -11.26733 -11.21580
 Alpha  occ. eigenvalues --  -11.21478 -11.21355 -11.21293 -11.21037 -11.21025
 Alpha  occ. eigenvalues --   -1.59918  -1.39476  -1.19362  -1.08770  -1.08375
 Alpha  occ. eigenvalues --   -1.04758  -1.03476  -0.95958  -0.95606  -0.86989
 Alpha  occ. eigenvalues --   -0.86153  -0.82445  -0.79556  -0.78189  -0.77496
 Alpha  occ. eigenvalues --   -0.72108  -0.71234  -0.70485  -0.65019  -0.65004
 Alpha  occ. eigenvalues --   -0.64766  -0.62128  -0.60878  -0.59296  -0.57542
 Alpha  occ. eigenvalues --   -0.55274  -0.55253  -0.53244  -0.52901  -0.52418
 Alpha  occ. eigenvalues --   -0.52364  -0.49890  -0.48874  -0.48860  -0.47861
 Alpha  occ. eigenvalues --   -0.46572  -0.45733  -0.45655  -0.44896  -0.43711
 Alpha  occ. eigenvalues --   -0.37338  -0.36296
 Alpha virt. eigenvalues --    0.05018   0.11245   0.16464   0.21303   0.22919
 Alpha virt. eigenvalues --    0.24331   0.26660   0.26809   0.27563   0.27949
 Alpha virt. eigenvalues --    0.28693   0.30247   0.31406   0.31699   0.32000

 Mulliken charges:
               1
     1  C   -0.170876
     2  C   -0.219659
     3  C   -0.166733
     4  C    0.158207
     5  C   -0.170781
     6  C   -0.219001
     7  H    0.225569
     8  H    0.224037
     9  H    0.277016
    10  H    0.275409
    11  H    0.223224
    12  N    0.488511
    13  O   -0.459245
    14  O   -0.461235
    15  C   -0.298363
    16  C   -0.298735
    17  C   -0.485187
    18  H    0.147139
    19  H    0.148430
    20  H    0.153331
    21  H    0.156184
    22  H    0.150814
    23  H    0.151437
    24  H    0.169786
    25  C   -0.298372
    26  C   -0.299443
    27  C   -0.475689
    28  H    0.150002
    29  H    0.151060
    30  H    0.150726
    31  H    0.151496
    32  H    0.155871
    33  H    0.155348
    34  H    0.159722
 Sum of Mulliken charges =  -0.00000

 Dipole moment (field-independent basis, Debye):
    X=             -0.2878    Y=              5.1458    Z=              0.0851  Tot=              5.1545
 Quadrupole moment (field-independent basis, Debye-Ang):
   XX=            -93.9397   YY=            -97.6952   ZZ=            -90.3733
   XY=            -16.4437   XZ=             -3.1512   YZ=              0.7686

 Normal termination of Gaussian 16 at Thu May  6 12:26:37 2021.
