 Gaussian 16, Revision A.03,
 Gaussian 16:  EM64L-G16RevA.03 25-Dec-2016

 -------------
 #p 6-31g* mp2
 -------------

 ------------------------------------------------------
 Input file generated by CHIRIPA (05-May-2021 14:53:14)
 ------------------------------------------------------
 Symbolic Z-matrix:
 Charge =  0 Multiplicity = 1

                         Standard orientation:
 ---------------------------------------------------------------------
 Center     Atomic      Atomic             Coordinates (Angstroms)
 Number     Number       Type             X           Y           Z
 ---------------------------------------------------------------------
      1          6           0        3.276451    0.477046   -0.342031
      2          6           0        3.496655    1.911019   -0.824956
      3          6           0        2.186422    2.659986   -1.070168
      4          1           0        2.676002   -0.065251   -1.085213
      5          1           0        2.685099    0.496110    0.583893
      6          1           0        4.088594    1.889326   -1.748944
      7          1           0        4.096812    2.449910   -0.080628
      8          1           0        1.594126    2.711261   -0.150843
      9          1           0        1.585861    2.147493   -1.828638
     10          1           0        2.367173    3.682936   -1.414787
     11          6           0        4.576969   -0.284610   -0.092507
     12          6           0        4.356764   -1.718583    0.390417
     13          6           0        5.666998   -2.467551    0.635629
     14          1           0        5.168321   -0.303674   -1.018431
     15          1           0        5.177418    0.257687    0.650674
     16          1           0        3.756607   -2.257474   -0.353910
     17          1           0        3.764826   -1.696891    1.314406
     18          1           0        6.267559   -1.955057    1.394100
     19          1           0        6.259294   -2.518826   -0.283695
     20          1           0        5.486246   -3.490501    0.980249
     21          6           0       -1.404332    1.141587    1.625246
     22          6           0       -1.047080    0.750135    0.330774
     23          6           0       -1.960638    0.075414   -0.484525
     24          6           0       -3.228555   -0.192802    0.029029
     25          6           0       -3.614357    0.184234    1.314444
     26          6           0       -2.684573    0.857887    2.112090
     27          1           0       -0.688356    1.665312    2.251733
     28          1           0       -0.053532    0.969124   -0.049952
     29          1           0       -1.710416   -0.239086   -1.490456
     30          1           0       -4.612200   -0.048139    1.666196
     31          1           0       -2.964781    1.160694    3.116996
     32          7           0       -4.204286   -0.906533   -0.824748
     33          8           0       -5.315053   -1.130950   -0.348859
     34          8           0       -3.839822   -1.228025   -1.953662
 ---------------------------------------------------------------------

 SCF Done:  E(RHF) =  -669.535213034     A.U. after   15 cycles
 E2 =    -0.2091886368D+01 EUMP2 =    -0.67162709940237D+03

 The electronic state is 1-A.
 Alpha  occ. eigenvalues --  -20.60692 -20.60686 -15.85742 -11.31086 -11.27649
 Alpha  occ. eigenvalues --  -11.27623 -11.27382 -11.26676 -11.26549 -11.22564
 Alpha  occ. eigenvalues --  -11.22384 -11.22271 -11.22178 -11.22089 -11.21520
 Alpha  occ. eigenvalues --   -1.59767  -1.39321  -1.19247  -1.09275  -1.08650
 Alpha  occ. eigenvalues --   -1.04646  -1.04338  -0.96815  -0.95492  -0.87833
 Alpha  occ. eigenvalues --   -0.86047  -0.82325  -0.80425  -0.79076  -0.77363
 Alpha  occ. eigenvalues --   -0.71962  -0.71089  -0.70371  -0.65903  -0.64897
 Alpha  occ. eigenvalues --   -0.64670  -0.62045  -0.61713  -0.60167  -0.58410
 Alpha  occ. eigenvalues --   -0.56117  -0.55159  -0.53469  -0.53336  -0.52965
 Alpha  occ. eigenvalues --   -0.52670  -0.50760  -0.48805  -0.48719  -0.48600
 Alpha  occ. eigenvalues --   -0.47449  -0.46578  -0.46505  -0.44731  -0.44588
 Alpha  occ. eigenvalues --   -0.37234  -0.36237
 Alpha virt. eigenvalues --    0.05152   0.11361   0.16646   0.19681   0.22497
 Alpha virt. eigenvalues --    0.23829   0.25086   0.25987   0.27087   0.27758
 Alpha virt. eigenvalues --    0.29303   0.30154   0.30644   0.31495   0.31876

 Mulliken charges:
               1
     1  C   -0.301655
     2  C   -0.299449
     3  C   -0.481279
     4  H    0.149524
     5  H    0.144005
     6  H    0.157054
     7  H    0.154626
     8  H    0.147609
     9  H    0.155168
    10  H    0.168553
    11  C   -0.298549
    12  C   -0.300433
    13  C   -0.476292
    14  H    0.152570
    15  H    0.151018
    16  H    0.153794
    17  H    0.151498
    18  H    0.155497
    19  H    0.156568
    20  H    0.162534
    21  C   -0.174508
    22  C   -0.226358
    23  C   -0.174157
    24  C    0.159145
    25  C   -0.171782
    26  C   -0.218161
    27  H    0.224162
    28  H    0.239887
    29  H    0.274993
    30  H    0.275115
    31  H    0.222786
    32  N    0.488028
    33  O   -0.460783
    34  O   -0.460729
 Sum of Mulliken charges =  -0.00000

 Dipole moment (field-independent basis, Debye):
    X=              3.7303    Y=              2.5245    Z=              2.9379  Tot=              5.3776
 Quadrupole moment (field-independent basis, Debye-Ang):
   XX=           -114.9214   YY=            -96.5552   ZZ=            -91.2394
   XY=             -8.3687   XZ=            -12.9404   YZ=              0.0069

 Normal termination of Gaussian 16 at Thu May  6 15:26:25 2021.
