 Gaussian 16, Revision A.03,
 Gaussian 16:  EM64L-G16RevA.03 25-Dec-2016

 -------------
 #p 6-31g* mp2
 -------------

 ------------------------------------------------------
 Input file generated by CHIRIPA (05-May-2021 14:51:13)
 ------------------------------------------------------
 Symbolic Z-matrix:
 Charge =  0 Multiplicity = 1

                         Standard orientation:
 ---------------------------------------------------------------------
 Center     Atomic      Atomic             Coordinates (Angstroms)
 Number     Number       Type             X           Y           Z
 ---------------------------------------------------------------------
      1          6           0        1.837174    1.426465   -0.246988
      2          6           0        1.781345    2.401295    0.929692
      3          6           0        0.765880    3.524774    0.718934
      4          1           0        2.085952    1.980537   -1.162443
      5          1           0        0.838950    0.994966   -0.404315
      6          1           0        2.779692    2.829785    1.085630
      7          1           0        1.532860    1.844808    1.842486
      8          1           0       -0.240336    3.114531    0.585404
      9          1           0        1.013580    4.105104   -0.175752
     10          1           0        0.742431    4.209986    1.572043
     11          6           0        2.847758    0.297708   -0.051140
     12          6           0        2.903587   -0.677122   -1.227819
     13          6           0        3.919052   -1.800601   -1.017061
     14          1           0        3.845982    0.729207    0.106188
     15          1           0        2.598980   -0.256364    0.864316
     16          1           0        3.152072   -0.120635   -2.140613
     17          1           0        1.905240   -1.105612   -1.383758
     18          1           0        3.671352   -2.380931   -0.122375
     19          1           0        4.925268   -1.390358   -0.883531
     20          1           0        3.942502   -2.485813   -1.870170
     21          6           0       -2.711939   -0.576667   -0.455468
     22          6           0       -3.839069    0.385355   -0.078539
     23          6           0       -4.568809    0.948008   -1.298660
     24          1           0       -1.995391   -0.055393   -1.104912
     25          1           0       -3.127588   -1.403013   -1.048581
     26          1           0       -3.421644    1.208914    0.514859
     27          1           0       -4.552917   -0.138215    0.570239
     28          1           0       -5.011912    0.139597   -1.889196
     29          1           0       -3.874211    1.494379   -1.944890
     30          1           0       -5.370526    1.633283   -1.006244
     31          6           0       -1.972994   -1.147505    0.753595
     32          6           0       -0.845863   -2.109528    0.376667
     33          6           0       -0.116123   -2.672181    1.596787
     34          1           0       -1.557345   -0.321160    1.346709
     35          1           0       -2.689542   -1.668780    1.403039
     36          1           0       -0.132015   -1.585959   -0.272112
     37          1           0       -1.263289   -2.933086   -0.216732
     38          1           0       -0.810721   -3.218552    2.243017
     39          1           0        0.326980   -1.863770    2.187324
     40          1           0        0.685594   -3.357457    1.304371
 ---------------------------------------------------------------------

 SCF Done:  E(RHF) =  -470.733234659     A.U. after   11 cycles
 E2 =    -0.1584527445D+01 EUMP2 =    -0.47231776210431D+03

 The electronic state is 1-A.
 Alpha  occ. eigenvalues --  -11.21666 -11.21657 -11.21645 -11.21610 -11.21470
 Alpha  occ. eigenvalues --  -11.21457 -11.21410 -11.21388 -11.21160 -11.21137
 Alpha  occ. eigenvalues --  -11.21092 -11.21079  -1.08531  -1.08444  -1.03608
 Alpha  occ. eigenvalues --   -1.03551  -0.96037  -0.96019  -0.87053  -0.87035
 Alpha  occ. eigenvalues --   -0.79704  -0.79592  -0.78380  -0.78219  -0.65477
 Alpha  occ. eigenvalues --   -0.64804  -0.61149  -0.60813  -0.59406  -0.59375
 Alpha  occ. eigenvalues --   -0.57646  -0.57628  -0.55337  -0.55290  -0.52731
 Alpha  occ. eigenvalues --   -0.52711  -0.52461  -0.52443  -0.49997  -0.49964
 Alpha  occ. eigenvalues --   -0.48070  -0.47891  -0.46920  -0.46534  -0.46150
 Alpha  occ. eigenvalues --   -0.45840  -0.45752  -0.45275  -0.43840  -0.43824
 Alpha virt. eigenvalues --    0.18433   0.21764   0.23978   0.24781   0.25058
 Alpha virt. eigenvalues --    0.26036   0.26975   0.27648   0.29007   0.29741
 Alpha virt. eigenvalues --    0.30762   0.31509   0.31849   0.32230   0.32509

 Mulliken charges:
               1
     1  C   -0.302766
     2  C   -0.299514
     3  C   -0.475927
     4  H    0.150008
     5  H    0.152243
     6  H    0.152479
     7  H    0.151523
     8  H    0.154540
     9  H    0.155521
    10  H    0.160660
    11  C   -0.299944
    12  C   -0.305495
    13  C   -0.476023
    14  H    0.149975
    15  H    0.151907
    16  H    0.152085
    17  H    0.157138
    18  H    0.155828
    19  H    0.155249
    20  H    0.160292
    21  C   -0.300219
    22  C   -0.299802
    23  C   -0.475818
    24  H    0.150518
    25  H    0.149988
    26  H    0.151826
    27  H    0.152209
    28  H    0.155248
    29  H    0.155553
    30  H    0.160496
    31  C   -0.298062
    32  C   -0.309631
    33  C   -0.476591
    34  H    0.149333
    35  H    0.150185
    36  H    0.160901
    37  H    0.152435
    38  H    0.155812
    39  H    0.155149
    40  H    0.160689
 Sum of Mulliken charges =  -0.00000

 Dipole moment (field-independent basis, Debye):
    X=             -0.0023    Y=             -0.0089    Z=             -0.0063  Tot=              0.0112
 Quadrupole moment (field-independent basis, Debye-Ang):
   XX=            -84.5922   YY=            -84.7748   ZZ=            -85.2009
   XY=              1.8923   XZ=             -0.8161   YZ=              0.1006

 Normal termination of Gaussian 16 at Thu May  6 02:24:00 2021.
