 Gaussian 16, Revision A.03,
 Gaussian 16:  EM64L-G16RevA.03 25-Dec-2016

 -------------
 #p 6-31g* mp2
 -------------

 ------------------------------------------------------
 Input file generated by CHIRIPA (05-May-2021 14:57:23)
 ------------------------------------------------------
 Symbolic Z-matrix:
 Charge =  0 Multiplicity = 1

                         Standard orientation:
 ---------------------------------------------------------------------
 Center     Atomic      Atomic             Coordinates (Angstroms)
 Number     Number       Type             X           Y           Z
 ---------------------------------------------------------------------
      1          6           0        0.590477    2.878345    0.051458
      2          6           0        1.378927    2.378510    1.093107
      3          6           0        2.094074    1.187816    0.933863
      4          6           0        1.997454    0.519756   -0.285830
      5          6           0        1.220481    0.992207   -1.342425
      6          6           0        0.513905    2.184821   -1.160846
      7          1           0        0.038263    3.804051    0.183838
      8          1           0        1.440274    2.914991    2.035694
      9          1           0        2.712036    0.778318    1.723707
     10          1           0        1.179141    0.435084   -2.270500
     11          1           0       -0.097622    2.570637   -1.971541
     12          7           0        2.750011   -0.741795   -0.466237
     13          8           0        2.648161   -1.311501   -1.550534
     14          8           0        3.427466   -1.137004    0.480072
     15          6           0       -0.205660   -2.531200    0.832103
     16          6           0       -0.268979   -1.364757    1.601466
     17          6           0       -1.189105   -0.358850    1.291517
     18          6           0       -2.034657   -0.553317    0.200411
     19          6           0       -1.995786   -1.704202   -0.585238
     20          6           0       -1.067746   -2.696909   -0.256874
     21          1           0        0.512190   -3.307486    1.080031
     22          1           0        0.399292   -1.233350    2.447747
     23          1           0       -1.259492    0.554118    1.870269
     24          1           0       -2.674977   -1.806573   -1.422876
     25          1           0       -1.020811   -3.601741   -0.856139
     26          7           0       -3.012942    0.504604   -0.137466
     27          8           0       -3.746878    0.309114   -1.103778
     28          8           0       -3.027262    1.509261    0.570416
 ---------------------------------------------------------------------

 SCF Done:  E(RHF) =  -868.338834589     A.U. after   16 cycles
 E2 =    -0.2606724443D+01 EUMP2 =    -0.87094555903197D+03

 The electronic state is 1-A.
 Alpha  occ. eigenvalues --  -20.61261 -20.61229 -20.61043 -20.61024 -15.86269
 Alpha  occ. eigenvalues --  -15.86068 -11.31368 -11.31135 -11.28016 -11.27922
 Alpha  occ. eigenvalues --  -11.27662 -11.27654 -11.27585 -11.27235 -11.26939
 Alpha  occ. eigenvalues --  -11.26818 -11.26586 -11.26559  -1.60316  -1.60113
 Alpha  occ. eigenvalues --   -1.39881  -1.39674  -1.19610  -1.19246  -1.08981
 Alpha  occ. eigenvalues --   -1.08701  -1.04975  -1.04633  -0.95852  -0.95591
 Alpha  occ. eigenvalues --   -0.86349  -0.86027  -0.82710  -0.82446  -0.77810
 Alpha  occ. eigenvalues --   -0.77550  -0.72513  -0.72301  -0.71671  -0.71427
 Alpha  occ. eigenvalues --   -0.70620  -0.70299  -0.65212  -0.64937  -0.64917
 Alpha  occ. eigenvalues --   -0.64616  -0.62316  -0.62006  -0.55364  -0.55069
 Alpha  occ. eigenvalues --   -0.54106  -0.53025  -0.52718  -0.52155  -0.49286
 Alpha  occ. eigenvalues --   -0.49244  -0.49069  -0.49025  -0.45358  -0.45149
 Alpha  occ. eigenvalues --   -0.37911  -0.37144  -0.36627  -0.35723
 Alpha virt. eigenvalues --    0.04700   0.04968   0.10739   0.11654   0.16260
 Alpha virt. eigenvalues --    0.16601   0.20980   0.21951   0.26555   0.27687
 Alpha virt. eigenvalues --    0.28309   0.28786   0.30601   0.31430   0.32180

 Mulliken charges:
               1
     1  C   -0.163063
     2  C   -0.226175
     3  C   -0.177397
     4  C    0.166037
     5  C   -0.169305
     6  C   -0.223164
     7  H    0.234493
     8  H    0.223542
     9  H    0.270467
    10  H    0.275622
    11  H    0.231054
    12  N    0.489219
    13  O   -0.460402
    14  O   -0.467920
    15  C   -0.172994
    16  C   -0.226174
    17  C   -0.162939
    18  C    0.157141
    19  C   -0.175247
    20  C   -0.214757
    21  H    0.236715
    22  H    0.223901
    23  H    0.270237
    24  H    0.273942
    25  H    0.227266
    26  N    0.487887
    27  O   -0.461661
    28  O   -0.466327
 Sum of Mulliken charges =  -0.00000

 Dipole moment (field-independent basis, Debye):
    X=              0.8003    Y=              0.7287    Z=              1.6815  Tot=              1.9998
 Quadrupole moment (field-independent basis, Debye-Ang):
   XX=           -130.7225   YY=            -94.4226   ZZ=            -97.9038
   XY=             14.4223   XZ=              3.5825   YZ=              0.2528

 Normal termination of Gaussian 16 at Wed May  5 22:39:01 2021.
