 Gaussian 16, Revision A.03,
 Gaussian 16:  EM64L-G16RevA.03 25-Dec-2016

 -------------
 #p 6-31g* mp2
 -------------

 ------------------------------------------------------
 Input file generated by CHIRIPA (05-May-2021 14:51:08)
 ------------------------------------------------------
 Symbolic Z-matrix:
 Charge =  0 Multiplicity = 1

                         Standard orientation:
 ---------------------------------------------------------------------
 Center     Atomic      Atomic             Coordinates (Angstroms)
 Number     Number       Type             X           Y           Z
 ---------------------------------------------------------------------
      1          6           0        2.868353    0.009598   -0.394103
      2          6           0        3.679146    1.273908   -0.107539
      3          6           0        4.255245    1.906597   -1.374665
      4          1           0        3.507628   -0.718904   -0.911362
      5          1           0        2.051237    0.255474   -1.086390
      6          1           0        4.493657    1.026007    0.585089
      7          1           0        3.037920    1.999412    0.409269
      8          1           0        3.452925    2.181852   -2.066849
      9          1           0        4.916933    1.202916   -1.890031
     10          1           0        4.831104    2.808974   -1.146715
     11          6           0        2.285912   -0.634429    0.862766
     12          6           0        1.475118   -1.898739    0.576202
     13          6           0        0.899020   -2.531428    1.843328
     14          1           0        3.103027   -0.880305    1.555054
     15          1           0        1.646636    0.094073    1.380025
     16          1           0        2.116344   -2.624242    0.059394
     17          1           0        0.660607   -1.650838   -0.116425
     18          1           0        0.237331   -1.827747    2.358694
     19          1           0        1.701339   -2.806682    2.535512
     20          1           0        0.323160   -3.433805    1.615378
     21          6           0       -2.229078   -0.366902   -0.262940
     22          6           0       -2.891984   -1.347586   -1.230825
     23          6           0       -2.184266   -2.702134   -1.276972
     24          1           0       -1.180093   -0.224320   -0.556616
     25          1           0       -2.214746   -0.808616    0.743082
     26          1           0       -2.906305   -0.903577   -2.234452
     27          1           0       -3.939564   -1.487702   -0.934924
     28          1           0       -2.182358   -3.169709   -0.287037
     29          1           0       -1.143228   -2.582265   -1.593950
     30          1           0       -2.674661   -3.387735   -1.975057
     31          6           0       -2.925186    0.991733   -0.205723
     32          6           0       -2.262281    1.972416    0.762161
     33          6           0       -2.969999    3.326964    0.808309
     34          1           0       -2.939518    1.433446   -1.211745
     35          1           0       -3.974171    0.849150    0.087953
     36          1           0       -1.214701    2.112533    0.466260
     37          1           0       -2.247959    1.528408    1.765789
     38          1           0       -4.011036    3.207096    1.125287
     39          1           0       -2.971906    3.794540   -0.181626
     40          1           0       -2.479604    4.012566    1.506394
 ---------------------------------------------------------------------

 SCF Done:  E(RHF) =  -470.732703510     A.U. after   11 cycles
 E2 =    -0.1584466941D+01 EUMP2 =    -0.47231717045139D+03

 The electronic state is 1-A.
 Alpha  occ. eigenvalues --  -11.21680 -11.21653 -11.21606 -11.21469 -11.21464
 Alpha  occ. eigenvalues --  -11.21410 -11.21395 -11.21309 -11.21126 -11.21088
 Alpha  occ. eigenvalues --  -11.21081 -11.21001  -1.08516  -1.08385  -1.03607
 Alpha  occ. eigenvalues --   -1.03472  -0.96036  -0.95945  -0.87052  -0.86964
 Alpha  occ. eigenvalues --   -0.79707  -0.79524  -0.78391  -0.78148  -0.65235
 Alpha  occ. eigenvalues --   -0.64943  -0.61048  -0.60859  -0.59460  -0.59255
 Alpha  occ. eigenvalues --   -0.57719  -0.57481  -0.55340  -0.55224  -0.52724
 Alpha  occ. eigenvalues --   -0.52650  -0.52482  -0.52338  -0.49986  -0.49905
 Alpha  occ. eigenvalues --   -0.48123  -0.47813  -0.46896  -0.46521  -0.46104
 Alpha  occ. eigenvalues --   -0.45808  -0.45695  -0.45138  -0.43843  -0.43745
 Alpha virt. eigenvalues --    0.20167   0.22646   0.23563   0.24376   0.25082
 Alpha virt. eigenvalues --    0.26258   0.26697   0.27834   0.29044   0.29825
 Alpha virt. eigenvalues --    0.30352   0.31297   0.31706   0.31977   0.32130

 Mulliken charges:
               1
     1  C   -0.298664
     2  C   -0.299598
     3  C   -0.475659
     4  H    0.149839
     5  H    0.147954
     6  H    0.152203
     7  H    0.151856
     8  H    0.154832
     9  H    0.155240
    10  H    0.160321
    11  C   -0.298676
    12  C   -0.308170
    13  C   -0.476379
    14  H    0.149363
    15  H    0.150345
    16  H    0.150924
    17  H    0.162548
    18  H    0.155299
    19  H    0.154577
    20  H    0.160556
    21  C   -0.303944
    22  C   -0.299894
    23  C   -0.479435
    24  H    0.152944
    25  H    0.151494
    26  H    0.151830
    27  H    0.152207
    28  H    0.156528
    29  H    0.158360
    30  H    0.160445
    31  C   -0.297736
    32  C   -0.299961
    33  C   -0.475725
    34  H    0.149602
    35  H    0.150072
    36  H    0.151341
    37  H    0.151857
    38  H    0.155496
    39  H    0.155359
    40  H    0.160450
 Sum of Mulliken charges =  -0.00000

 Dipole moment (field-independent basis, Debye):
    X=             -0.0455    Y=             -0.0043    Z=             -0.0074  Tot=              0.0463
 Quadrupole moment (field-independent basis, Debye-Ang):
   XX=            -84.0733   YY=            -85.7471   ZZ=            -84.9283
   XY=             -0.1126   XZ=              0.0680   YZ=              0.0507

 Normal termination of Gaussian 16 at Thu May  6 08:27:21 2021.
