 Gaussian 16, Revision A.03,
 Gaussian 16:  EM64L-G16RevA.03 25-Dec-2016

 -------------
 #p 6-31g* mp2
 -------------

 ------------------------------------------------------
 Input file generated by CHIRIPA (05-May-2021 14:57:27)
 ------------------------------------------------------
 Symbolic Z-matrix:
 Charge =  0 Multiplicity = 1

                         Standard orientation:
 ---------------------------------------------------------------------
 Center     Atomic      Atomic             Coordinates (Angstroms)
 Number     Number       Type             X           Y           Z
 ---------------------------------------------------------------------
      1          6           0       -2.513669    2.632526   -0.026391
      2          6           0       -1.759535    1.572301    0.487153
      3          6           0       -2.266170    0.269335    0.475014
      4          6           0       -3.536295    0.061660   -0.060659
      5          6           0       -4.311922    1.097143   -0.579761
      6          6           0       -3.785214    2.391987   -0.557273
      7          1           0       -2.112306    3.641547   -0.012941
      8          1           0       -0.771735    1.756149    0.900066
      9          1           0       -1.703755   -0.569848    0.866012
     10          1           0       -5.293439    0.882708   -0.984803
     11          1           0       -4.373128    3.213443   -0.956786
     12          7           0       -4.083272   -1.313433   -0.078988
     13          8           0       -5.204929   -1.470082   -0.556463
     14          8           0       -3.379978   -2.208544    0.384469
     15          6           0        1.327627   -1.512273    0.673811
     16          6           0        1.685855   -0.345441    1.356961
     17          6           0        2.857420    0.340947    1.024013
     18          6           0        3.650956   -0.169962   -0.001931
     19          6           0        3.321033   -1.329953   -0.701116
     20          6           0        2.144918   -1.999946   -0.351241
     21          1           0        0.415760   -2.039107    0.939027
     22          1           0        1.053054    0.035607    2.153461
     23          1           0        3.158560    1.246522    1.536522
     24          1           0        3.972063   -1.685408   -1.490566
     25          1           0        1.869210   -2.905887   -0.883500
     26          7           0        4.893648    0.548007   -0.363369
     27          8           0        5.575681    0.077303   -1.271062
     28          8           0        5.162107    1.567862    0.267872
 ---------------------------------------------------------------------

 SCF Done:  E(RHF) =  -868.337642255     A.U. after   16 cycles
 E2 =    -0.2600764377D+01 EUMP2 =    -0.87093840663134D+03

 The electronic state is 1-A.
 Alpha  occ. eigenvalues --  -20.61499 -20.61460 -20.61191 -20.61177 -15.86532
 Alpha  occ. eigenvalues --  -15.86245 -11.31837 -11.31691 -11.28478 -11.28354
 Alpha  occ. eigenvalues --  -11.28337 -11.28230 -11.28059 -11.28015 -11.27417
 Alpha  occ. eigenvalues --  -11.27396 -11.27327 -11.27195  -1.60551  -1.60261
 Alpha  occ. eigenvalues --   -1.40112  -1.39812  -1.19989  -1.19881  -1.09380
 Alpha  occ. eigenvalues --   -1.09258  -1.05407  -1.05290  -0.96242  -0.96069
 Alpha  occ. eigenvalues --   -0.86791  -0.86697  -0.83080  -0.82908  -0.78179
 Alpha  occ. eigenvalues --   -0.77926  -0.72756  -0.72460  -0.71868  -0.71586
 Alpha  occ. eigenvalues --   -0.71217  -0.70856  -0.65659  -0.65543  -0.65418
 Alpha  occ. eigenvalues --   -0.65287  -0.62852  -0.62539  -0.55919  -0.55723
 Alpha  occ. eigenvalues --   -0.53735  -0.53586  -0.53521  -0.53318  -0.49524
 Alpha  occ. eigenvalues --   -0.49489  -0.49225  -0.49210  -0.45530  -0.45200
 Alpha  occ. eigenvalues --   -0.37934  -0.37877  -0.37002  -0.36856
 Alpha virt. eigenvalues --    0.04350   0.04616   0.10585   0.10685   0.15883
 Alpha virt. eigenvalues --    0.15972   0.18587   0.22197   0.25272   0.25411
 Alpha virt. eigenvalues --    0.27864   0.29155   0.30352   0.31324   0.32428

 Mulliken charges:
               1
     1  C   -0.170226
     2  C   -0.218889
     3  C   -0.171859
     4  C    0.158825
     5  C   -0.169879
     6  C   -0.218078
     7  H    0.228956
     8  H    0.221802
     9  H    0.266687
    10  H    0.277303
    11  H    0.226211
    12  N    0.488467
    13  O   -0.456407
    14  O   -0.467032
    15  C   -0.176731
    16  C   -0.225421
    17  C   -0.171962
    18  C    0.158941
    19  C   -0.169391
    20  C   -0.218285
    21  H    0.235893
    22  H    0.218726
    23  H    0.274943
    24  H    0.278174
    25  H    0.230124
    26  N    0.488068
    27  O   -0.458117
    28  O   -0.460843
 Sum of Mulliken charges =  -0.00000

 Dipole moment (field-independent basis, Debye):
    X=             -2.4328    Y=              2.2996    Z=              1.1298  Tot=              3.5332
 Quadrupole moment (field-independent basis, Debye-Ang):
   XX=           -146.5418   YY=           -100.7445   ZZ=           -102.6246
   XY=            -28.7458   XZ=              5.6883   YZ=              1.4676

 Normal termination of Gaussian 16 at Wed May  5 18:06:00 2021.
