 Gaussian 16, Revision A.03,
 Gaussian 16:  EM64L-G16RevA.03 25-Dec-2016

 -------------
 #p 6-31g* mp2
 -------------

 ------------------------------------------------------
 Input file generated by CHIRIPA (05-May-2021 14:51:09)
 ------------------------------------------------------
 Symbolic Z-matrix:
 Charge =  0 Multiplicity = 1

                         Standard orientation:
 ---------------------------------------------------------------------
 Center     Atomic      Atomic             Coordinates (Angstroms)
 Number     Number       Type             X           Y           Z
 ---------------------------------------------------------------------
      1          6           0        4.363181   -0.493876   -0.205532
      2          6           0        4.046918   -1.910479    0.275301
      3          6           0        5.196320   -2.888459    0.029898
      4          1           0        4.600078   -0.521835   -1.277932
      5          1           0        5.267248   -0.134146    0.305009
      6          1           0        3.142926   -2.266904   -0.234970
      7          1           0        3.810559   -1.879117    1.346639
      8          1           0        6.100351   -2.559365    0.552417
      9          1           0        5.428925   -2.949356   -1.038178
     10          1           0        4.948881   -3.895064    0.381153
     11          6           0        3.223741    0.495342    0.032910
     12          6           0        3.540004    1.911944   -0.447923
     13          6           0        2.390602    2.889925   -0.202520
     14          1           0        2.319674    0.135612   -0.477631
     15          1           0        2.986844    0.523301    1.105310
     16          1           0        3.776363    1.880582   -1.519261
     17          1           0        4.443996    2.268370    0.062348
     18          1           0        2.157997    2.950821    0.865556
     19          1           0        1.486571    2.560830   -0.725039
     20          1           0        2.638041    3.896530   -0.553775
     21          6           0       -4.508163   -0.121189    0.327400
     22          6           0       -5.362143   -0.901144   -0.672787
     23          6           0       -6.789337   -1.134205   -0.176206
     24          1           0       -4.481739   -0.666365    1.280830
     25          1           0       -4.988188    0.845540    0.533322
     26          1           0       -4.879938   -1.865539   -0.877816
     27          1           0       -5.386380   -0.354143   -1.624006
     28          1           0       -7.292871   -0.180169    0.010527
     29          1           0       -6.783552   -1.700151    0.760956
     30          1           0       -7.382248   -1.693493   -0.906626
     31          6           0       -3.078759    0.119724   -0.154778
     32          6           0       -2.224779    0.899678    0.845409
     33          6           0       -0.797585    1.132739    0.348828
     34          1           0       -2.598733   -0.847006   -0.360699
     35          1           0       -3.105183    0.664901   -1.108208
     36          1           0       -2.200542    0.352677    1.796628
     37          1           0       -2.706985    1.864073    1.050439
     38          1           0       -0.803370    1.698686   -0.588334
     39          1           0       -0.294050    0.178703    0.162096
     40          1           0       -0.204675    1.692028    1.079247
 ---------------------------------------------------------------------

 SCF Done:  E(RHF) =  -470.732021843     A.U. after   11 cycles
 E2 =    -0.1583553612D+01 EUMP2 =    -0.47231557545499D+03

 The electronic state is 1-A.
 Alpha  occ. eigenvalues --  -11.21594 -11.21580 -11.21547 -11.21510 -11.21389
 Alpha  occ. eigenvalues --  -11.21341 -11.21330 -11.21268 -11.21066 -11.21055
 Alpha  occ. eigenvalues --  -11.20986 -11.20890  -1.08418  -1.08362  -1.03543
 Alpha  occ. eigenvalues --   -1.03432  -0.96014  -0.95864  -0.87070  -0.86855
 Alpha  occ. eigenvalues --   -0.79729  -0.79406  -0.78269  -0.78118  -0.65044
 Alpha  occ. eigenvalues --   -0.65003  -0.60950  -0.60840  -0.59460  -0.59182
 Alpha  occ. eigenvalues --   -0.57634  -0.57471  -0.55409  -0.55067  -0.52855
 Alpha  occ. eigenvalues --   -0.52605  -0.52404  -0.52156  -0.50065  -0.49667
 Alpha  occ. eigenvalues --   -0.47956  -0.47798  -0.46642  -0.46501  -0.45882
 Alpha  occ. eigenvalues --   -0.45706  -0.45679  -0.45494  -0.43737  -0.43666
 Alpha virt. eigenvalues --    0.22150   0.23007   0.23656   0.24748   0.25450
 Alpha virt. eigenvalues --    0.26405   0.26723   0.27564   0.27802   0.29238
 Alpha virt. eigenvalues --    0.29655   0.30987   0.31618   0.32018   0.32471

 Mulliken charges:
               1
     1  C   -0.298124
     2  C   -0.299474
     3  C   -0.475622
     4  H    0.149394
     5  H    0.149340
     6  H    0.151291
     7  H    0.151794
     8  H    0.155203
     9  H    0.155157
    10  H    0.160037
    11  C   -0.300772
    12  C   -0.299567
    13  C   -0.479507
    14  H    0.153457
    15  H    0.149159
    16  H    0.151188
    17  H    0.151134
    18  H    0.153500
    19  H    0.164071
    20  H    0.158581
    21  C   -0.298166
    22  C   -0.299594
    23  C   -0.475688
    24  H    0.149632
    25  H    0.149530
    26  H    0.151828
    27  H    0.151851
    28  H    0.155185
    29  H    0.155171
    30  H    0.160197
    31  C   -0.298528
    32  C   -0.300897
    33  C   -0.478017
    34  H    0.149179
    35  H    0.149384
    36  H    0.151607
    37  H    0.151771
    38  H    0.153631
    39  H    0.156699
    40  H    0.164987
 Sum of Mulliken charges =  -0.00000

 Dipole moment (field-independent basis, Debye):
    X=             -0.0192    Y=              0.0074    Z=              0.0003  Tot=              0.0205
 Quadrupole moment (field-independent basis, Debye-Ang):
   XX=            -86.5532   YY=            -84.8046   ZZ=            -83.8014
   XY=              0.0975   XZ=              0.8033   YZ=             -0.2146

 Normal termination of Gaussian 16 at Thu May  6 05:21:34 2021.
