 Gaussian 16, Revision A.03,
 Gaussian 16:  EM64L-G16RevA.03 25-Dec-2016

 -------------
 #p 6-31g* mp2
 -------------

 ------------------------------------------------------
 Input file generated by CHIRIPA (05-May-2021 14:51:10)
 ------------------------------------------------------
 Symbolic Z-matrix:
 Charge =  0 Multiplicity = 1

                         Standard orientation:
 ---------------------------------------------------------------------
 Center     Atomic      Atomic             Coordinates (Angstroms)
 Number     Number       Type             X           Y           Z
 ---------------------------------------------------------------------
      1          6           0        3.046732    1.353165   -0.020550
      2          6           0        1.528848    1.376840    0.162346
      3          6           0        0.955346    2.794193    0.161441
      4          1           0        3.515446    1.940412    0.780945
      5          1           0        3.303092    1.852835   -0.965010
      6          1           0        1.275328    0.876053    1.105508
      7          1           0        1.063704    0.789310   -0.639568
      8          1           0        1.179357    3.299809   -0.783425
      9          1           0        1.392183    3.387044    0.971566
     10          1           0       -0.131104    2.787753    0.293514
     11          6           0        3.634860   -0.056740   -0.021789
     12          6           0        5.152744   -0.080415   -0.204685
     13          6           0        5.726246   -1.497768   -0.203780
     14          1           0        3.378500   -0.556410    0.922671
     15          1           0        3.166146   -0.643986   -0.823284
     16          1           0        5.617888    0.507115    0.597229
     17          1           0        5.406264    0.420373   -1.147847
     18          1           0        5.289409   -2.090619   -1.013905
     19          1           0        5.502235   -2.003384    0.741086
     20          1           0        6.812696   -1.491328   -0.335853
     21          6           0       -2.908575   -1.276931   -0.015310
     22          6           0       -1.439325   -1.023214    0.323683
     23          6           0       -0.587424   -2.290525    0.246339
     24          1           0       -3.311387   -2.033725    0.671676
     25          1           0       -2.976106   -1.704169   -1.025410
     26          1           0       -1.374685   -0.595294    1.332307
     27          1           0       -1.040017   -0.266796   -0.364068
     28          1           0       -0.622157   -2.717154   -0.761324
     29          1           0       -0.958727   -3.047519    0.944689
     30          1           0        0.459289   -2.086288    0.492389
     31          6           0       -3.773017   -0.019495    0.057649
     32          6           0       -5.242267   -0.273212   -0.281344
     33          6           0       -6.094168    0.994099   -0.204000
     34          1           0       -3.705487    0.407744    1.067749
     35          1           0       -3.370205    0.737300   -0.629337
     36          1           0       -5.641575   -1.029630    0.406407
     37          1           0       -5.306907   -0.701131   -1.289967
     38          1           0       -5.722865    1.751095   -0.902350
     39          1           0       -6.059436    1.420729    0.803663
     40          1           0       -7.140881    0.789863   -0.450050
 ---------------------------------------------------------------------

 SCF Done:  E(RHF) =  -470.732876944     A.U. after   11 cycles
 E2 =    -0.1583613866D+01 EUMP2 =    -0.47231649080989D+03

 The electronic state is 1-A.
 Alpha  occ. eigenvalues --  -11.21610 -11.21588 -11.21557 -11.21499 -11.21411
 Alpha  occ. eigenvalues --  -11.21376 -11.21345 -11.21308 -11.21072 -11.21062
 Alpha  occ. eigenvalues --  -11.21058 -11.21001  -1.08450  -1.08378  -1.03568
 Alpha  occ. eigenvalues --   -1.03449  -0.95981  -0.95939  -0.86993  -0.86957
 Alpha  occ. eigenvalues --   -0.79742  -0.79434  -0.78357  -0.78086  -0.65125
 Alpha  occ. eigenvalues --   -0.64976  -0.61039  -0.60792  -0.59499  -0.59173
 Alpha  occ. eigenvalues --   -0.57659  -0.57472  -0.55276  -0.55224  -0.52710
 Alpha  occ. eigenvalues --   -0.52596  -0.52404  -0.52353  -0.49955  -0.49861
 Alpha  occ. eigenvalues --   -0.48106  -0.47702  -0.46841  -0.46427  -0.45945
 Alpha  occ. eigenvalues --   -0.45779  -0.45639  -0.45397  -0.43779  -0.43739
 Alpha virt. eigenvalues --    0.21289   0.23080   0.23691   0.24330   0.25615
 Alpha virt. eigenvalues --    0.26338   0.26591   0.27056   0.28748   0.29194
 Alpha virt. eigenvalues --    0.30408   0.31154   0.31664   0.31762   0.32483

 Mulliken charges:
               1
     1  C   -0.297834
     2  C   -0.302505
     3  C   -0.477273
     4  H    0.149431
     5  H    0.149252
     6  H    0.154082
     7  H    0.154605
     8  H    0.154738
     9  H    0.155212
    10  H    0.161385
    11  C   -0.299478
    12  C   -0.299634
    13  C   -0.475757
    14  H    0.149434
    15  H    0.150337
    16  H    0.152019
    17  H    0.152006
    18  H    0.155329
    19  H    0.155214
    20  H    0.160281
    21  C   -0.297970
    22  C   -0.302593
    23  C   -0.478904
    24  H    0.149266
    25  H    0.149046
    26  H    0.151093
    27  H    0.157461
    28  H    0.154262
    29  H    0.154790
    30  H    0.163404
    31  C   -0.298322
    32  C   -0.299534
    33  C   -0.475710
    34  H    0.149307
    35  H    0.149211
    36  H    0.151978
    37  H    0.151878
    38  H    0.155137
    39  H    0.155140
    40  H    0.160217
 Sum of Mulliken charges =  -0.00000

 Dipole moment (field-independent basis, Debye):
    X=              0.0242    Y=              0.0135    Z=              0.0004  Tot=              0.0277
 Quadrupole moment (field-independent basis, Debye-Ang):
   XX=            -85.7370   YY=            -86.4466   ZZ=            -82.7406
   XY=              1.1555   XZ=             -0.0468   YZ=             -0.1622

 Normal termination of Gaussian 16 at Thu May  6 05:24:54 2021.
