 Gaussian 16, Revision A.03,
 Gaussian 16:  EM64L-G16RevA.03 25-Dec-2016

 -------------
 #p 6-31g* mp2
 -------------

 ------------------------------------------------------
 Input file generated by CHIRIPA (05-May-2021 14:55:21)
 ------------------------------------------------------
 Symbolic Z-matrix:
 Charge =  0 Multiplicity = 1

                         Standard orientation:
 ---------------------------------------------------------------------
 Center     Atomic      Atomic             Coordinates (Angstroms)
 Number     Number       Type             X           Y           Z
 ---------------------------------------------------------------------
      1          6           0        5.466589    0.331081   -0.574118
      2          6           0        5.068602   -1.007285   -0.657209
      3          6           0        3.780537   -1.390250   -0.271493
      4          6           0        2.912313   -0.404305    0.194756
      5          6           0        3.279225    0.937241    0.289212
      6          6           0        4.572207    1.297369   -0.102006
      7          1           0        6.469099    0.619707   -0.875889
      8          1           0        5.761075   -1.759863   -1.023476
      9          1           0        3.446299   -2.419222   -0.325522
     10          1           0        2.566644    1.664829    0.658348
     11          1           0        4.878551    2.337510   -0.036397
     12          7           0        1.546093   -0.797645    0.606008
     13          8           0        0.800004    0.090070    1.013378
     14          8           0        1.247210   -1.986211    0.513191
     15          6           0       -3.876335    1.159683    0.032629
     16          6           0       -2.495641    1.650158   -0.404524
     17          6           0       -2.231061    3.102641   -0.006926
     18          1           0       -4.645497    1.808109   -0.408822
     19          1           0       -3.966913    1.264754    1.122652
     20          1           0       -2.407184    1.542902   -1.493233
     21          1           0       -1.729684    1.000373    0.037864
     22          1           0       -2.292142    3.221856    1.079655
     23          1           0       -2.973490    3.767467   -0.460141
     24          1           0       -1.238537    3.432666   -0.329169
     25          6           0       -4.155620   -0.290620   -0.357690
     26          6           0       -5.536314   -0.781095    0.079463
     27          6           0       -5.800894   -2.233579   -0.318135
     28          1           0       -4.065042   -0.395692   -1.447713
     29          1           0       -3.386457   -0.939046    0.083760
     30          1           0       -6.302271   -0.131311   -0.362925
     31          1           0       -5.624771   -0.673839    1.168172
     32          1           0       -5.058464   -2.898405    0.135080
     33          1           0       -5.739813   -2.352793   -1.404716
     34          1           0       -6.793418   -2.563603    0.004108
 ---------------------------------------------------------------------

 SCF Done:  E(RHF) =  -669.536404147     A.U. after   15 cycles
 E2 =    -0.2090930662D+01 EUMP2 =    -0.67162733480855D+03

 The electronic state is 1-A.
 Alpha  occ. eigenvalues --  -20.61002 -20.60993 -15.86024 -11.31318 -11.27877
 Alpha  occ. eigenvalues --  -11.27873 -11.27612 -11.26879 -11.26869 -11.20732
 Alpha  occ. eigenvalues --  -11.20338 -11.20289 -11.20284 -11.20241 -11.20138
 Alpha  occ. eigenvalues --   -1.60056  -1.39612  -1.19483  -1.08894  -1.07373
 Alpha  occ. eigenvalues --   -1.04875  -1.02527  -0.95740  -0.95021  -0.86277
 Alpha  occ. eigenvalues --   -0.86043  -0.82576  -0.78589  -0.77632  -0.77164
 Alpha  occ. eigenvalues --   -0.72250  -0.71363  -0.70593  -0.65141  -0.64879
 Alpha  occ. eigenvalues --   -0.63990  -0.62222  -0.59911  -0.58394  -0.56624
 Alpha  occ. eigenvalues --   -0.55382  -0.54310  -0.53209  -0.52967  -0.51749
 Alpha  occ. eigenvalues --   -0.51447  -0.49080  -0.49004  -0.48911  -0.46918
 Alpha  occ. eigenvalues --   -0.45629  -0.45070  -0.44725  -0.44463  -0.42783
 Alpha  occ. eigenvalues --   -0.37460  -0.36475
 Alpha virt. eigenvalues --    0.04870   0.11180   0.16353   0.21289   0.23921
 Alpha virt. eigenvalues --    0.25193   0.27217   0.27701   0.28079   0.28759
 Alpha virt. eigenvalues --    0.28940   0.30859   0.32107   0.32363   0.32847

 Mulliken charges:
               1
     1  C   -0.170499
     2  C   -0.218607
     3  C   -0.170573
     4  C    0.157946
     5  C   -0.170716
     6  C   -0.218579
     7  H    0.226104
     8  H    0.223895
     9  H    0.275886
    10  H    0.276072
    11  H    0.224007
    12  N    0.490050
    13  O   -0.461487
    14  O   -0.458853
    15  C   -0.296820
    16  C   -0.312404
    17  C   -0.472532
    18  H    0.143806
    19  H    0.149118
    20  H    0.144661
    21  H    0.181777
    22  H    0.154915
    23  H    0.149546
    24  H    0.153780
    25  C   -0.300195
    26  C   -0.298870
    27  C   -0.475495
    28  H    0.146129
    29  H    0.160004
    30  H    0.148606
    31  H    0.151352
    32  H    0.157618
    33  H    0.153317
    34  H    0.157042
 Sum of Mulliken charges =  -0.00000

 Dipole moment (field-independent basis, Debye):
    X=              5.1455    Y=              1.2247    Z=             -1.3523  Tot=              5.4594
 Quadrupole moment (field-independent basis, Debye-Ang):
   XX=            -68.1530   YY=            -92.9804   ZZ=            -95.2980
   XY=              0.9261   XZ=             -3.7666   YZ=              1.7459

 Normal termination of Gaussian 16 at Thu May  6 03:00:06 2021.
