 Gaussian 16, Revision A.03,
 Gaussian 16:  EM64L-G16RevA.03 25-Dec-2016

 -------------
 #p 6-31g* mp2
 -------------

 ------------------------------------------------------
 Input file generated by CHIRIPA (05-May-2021 14:53:16)
 ------------------------------------------------------
 Symbolic Z-matrix:
 Charge =  0 Multiplicity = 1

                         Standard orientation:
 ---------------------------------------------------------------------
 Center     Atomic      Atomic             Coordinates (Angstroms)
 Number     Number       Type             X           Y           Z
 ---------------------------------------------------------------------
      1          6           0        4.884461    0.242142   -0.398973
      2          6           0        6.280909    0.725202   -0.005818
      3          6           0        7.037612    1.359177   -1.173410
      4          1           0        4.971911   -0.484099   -1.218651
      5          1           0        4.308099    1.090537   -0.793216
      6          1           0        6.854005   -0.123569    0.388854
      7          1           0        6.190139    1.450234    0.813148
      8          1           0        6.489978    2.223101   -1.563709
      9          1           0        7.157616    0.640355   -1.990414
     10          1           0        8.033339    1.697439   -0.870149
     11          6           0        4.115551   -0.394027    0.757657
     12          6           0        2.719103   -0.877087    0.364501
     13          6           0        1.962400   -1.511062    1.532093
     14          1           0        4.691913   -1.242422    1.151899
     15          1           0        4.028101    0.332215    1.577334
     16          1           0        2.809874   -1.602119   -0.454464
     17          1           0        2.146008   -0.028316   -0.030170
     18          1           0        1.842396   -0.792240    2.349097
     19          1           0        2.510034   -2.374986    1.922393
     20          1           0        0.966673   -1.849324    1.228832
     21          6           0       -4.766756    2.199780    0.327951
     22          6           0       -3.390527    2.126780    0.567092
     23          6           0       -2.687100    0.945950    0.311401
     24          6           0       -3.394675   -0.147601   -0.185361
     25          6           0       -4.765730   -0.106060   -0.433908
     26          6           0       -5.448762    1.085092   -0.170906
     27          1           0       -5.305274    3.121086    0.529418
     28          1           0       -2.858276    2.990886    0.954486
     29          1           0       -1.621567    0.861913    0.487460
     30          1           0       -5.268942   -0.984052   -0.820337
     31          1           0       -6.517548    1.138899   -0.357576
     32          7           0       -2.660784   -1.403157   -0.459920
     33          8           0       -3.307260   -2.352555   -0.897353
     34          8           0       -1.452979   -1.414089   -0.232486
 ---------------------------------------------------------------------

 SCF Done:  E(RHF) =  -669.536122410     A.U. after   15 cycles
 E2 =    -0.2090763529D+01 EUMP2 =    -0.67162688593862D+03

 The electronic state is 1-A.
 Alpha  occ. eigenvalues --  -20.60920 -20.60908 -15.85961 -11.31275 -11.27840
 Alpha  occ. eigenvalues --  -11.27836 -11.27580 -11.26849 -11.26839 -11.21277
 Alpha  occ. eigenvalues --  -11.20951 -11.20817 -11.20814 -11.20753 -11.19970
 Alpha  occ. eigenvalues --   -1.59982  -1.39538  -1.19445  -1.08850  -1.07896
 Alpha  occ. eigenvalues --   -1.04842  -1.02925  -0.95697  -0.95366  -0.86393
 Alpha  occ. eigenvalues --   -0.86242  -0.82528  -0.79014  -0.77688  -0.77579
 Alpha  occ. eigenvalues --   -0.72191  -0.71296  -0.70555  -0.65103  -0.64846
 Alpha  occ. eigenvalues --   -0.64542  -0.62189  -0.60344  -0.58741  -0.56933
 Alpha  occ. eigenvalues --   -0.55347  -0.54691  -0.53174  -0.52934  -0.52010
 Alpha  occ. eigenvalues --   -0.51789  -0.49358  -0.48939  -0.48925  -0.47308
 Alpha  occ. eigenvalues --   -0.46080  -0.45232  -0.45166  -0.44946  -0.43155
 Alpha  occ. eigenvalues --   -0.37425  -0.36443
 Alpha virt. eigenvalues --    0.04940   0.11212   0.16427   0.21163   0.23273
 Alpha virt. eigenvalues --    0.24598   0.26891   0.27342   0.27710   0.28212
 Alpha virt. eigenvalues --    0.28964   0.30825   0.31768   0.32117   0.32549

 Mulliken charges:
               1
     1  C   -0.297417
     2  C   -0.299059
     3  C   -0.475307
     4  H    0.150452
     5  H    0.147084
     6  H    0.151888
     7  H    0.150209
     8  H    0.153898
     9  H    0.155468
    10  H    0.158990
    11  C   -0.297674
    12  C   -0.295747
    13  C   -0.487251
    14  H    0.148853
    15  H    0.145689
    16  H    0.155184
    17  H    0.147618
    18  H    0.145040
    19  H    0.151123
    20  H    0.188195
    21  C   -0.170594
    22  C   -0.218578
    23  C   -0.170773
    24  C    0.157736
    25  C   -0.170698
    26  C   -0.218600
    27  H    0.225928
    28  H    0.223773
    29  H    0.276184
    30  H    0.275807
    31  H    0.223748
    32  N    0.494093
    33  O   -0.459044
    34  O   -0.466218
 Sum of Mulliken charges =  -0.00000

 Dipole moment (field-independent basis, Debye):
    X=             -2.8474    Y=              4.3298    Z=              0.9000  Tot=              5.2597
 Quadrupole moment (field-independent basis, Debye-Ang):
   XX=            -74.7571   YY=            -94.8958   ZZ=            -96.2421
   XY=            -13.6847   XZ=             -1.1570   YZ=              0.5099

 Normal termination of Gaussian 16 at Wed May  5 21:57:17 2021.
