 Gaussian 16, Revision A.03,
 Gaussian 16:  EM64L-G16RevA.03 25-Dec-2016

 -------------
 #p 6-31g* mp2
 -------------

 ------------------------------------------------------
 Input file generated by CHIRIPA (05-May-2021 14:55:24)
 ------------------------------------------------------
 Symbolic Z-matrix:
 Charge =  0 Multiplicity = 1

                         Standard orientation:
 ---------------------------------------------------------------------
 Center     Atomic      Atomic             Coordinates (Angstroms)
 Number     Number       Type             X           Y           Z
 ---------------------------------------------------------------------
      1          6           0        1.090381    2.532655   -0.262148
      2          6           0        2.205865    2.267305   -1.063276
      3          6           0        2.999121    1.140946   -0.825346
      4          6           0        2.646279    0.297418    0.226915
      5          6           0        1.541073    0.534752    1.042686
      6          6           0        0.762124    1.667058    0.786427
      7          1           0        0.479718    3.409948   -0.454097
      8          1           0        2.463179    2.937792   -1.878310
      9          1           0        3.868143    0.911660   -1.430032
     10          1           0        1.309705   -0.152030    1.847805
     11          1           0       -0.103604    1.870632    1.410220
     12          7           0        3.478491   -0.898156    0.488502
     13          8           0        3.146416   -1.625765    1.421748
     14          8           0        4.447095   -1.084998   -0.244664
     15          6           0       -2.468495   -0.619786   -0.411174
     16          6           0       -1.891427   -2.003995   -0.709409
     17          6           0       -0.403708   -1.961322   -1.059645
     18          1           0       -2.314117    0.030470   -1.283114
     19          1           0       -1.908243   -0.167719    0.418976
     20          1           0       -2.453495   -2.453884   -1.537839
     21          1           0       -2.047368   -2.651087    0.163270
     22          1           0        0.174672   -1.536498   -0.232843
     23          1           0       -0.233763   -1.338175   -1.943617
     24          1           0       -0.011745   -2.961484   -1.269168
     25          6           0       -3.954854   -0.646038   -0.059359
     26          6           0       -4.531922    0.738171    0.238877
     27          6           0       -6.019640    0.695498    0.589112
     28          1           0       -4.515106   -1.098104   -0.889509
     29          1           0       -4.109233   -1.296294    0.812581
     30          1           0       -4.375981    1.385264   -0.633803
     31          1           0       -3.969854    1.188061    1.067306
     32          1           0       -6.189586    0.072351    1.473084
     33          1           0       -6.598021    0.270674   -0.237691
     34          1           0       -6.411604    1.695661    0.798635
 ---------------------------------------------------------------------

 SCF Done:  E(RHF) =  -669.534583297     A.U. after   15 cycles
 E2 =    -0.2093746271D+01 EUMP2 =    -0.67162832956862D+03

 The electronic state is 1-A.
 Alpha  occ. eigenvalues --  -20.60785 -20.60775 -15.85828 -11.31189 -11.27777
 Alpha  occ. eigenvalues --  -11.27769 -11.27518 -11.26794 -11.26784 -11.22097
 Alpha  occ. eigenvalues --  -11.21762 -11.21716 -11.21673 -11.21468 -11.20933
 Alpha  occ. eigenvalues --   -1.59850  -1.39406  -1.19386  -1.08771  -1.08747
 Alpha  occ. eigenvalues --   -1.04801  -1.03776  -0.96214  -0.95606  -0.87236
 Alpha  occ. eigenvalues --   -0.86187  -0.82442  -0.79866  -0.78578  -0.77483
 Alpha  occ. eigenvalues --   -0.72050  -0.71173  -0.70498  -0.65395  -0.65037
 Alpha  occ. eigenvalues --   -0.64797  -0.62156  -0.61179  -0.59594  -0.57842
 Alpha  occ. eigenvalues --   -0.55534  -0.55282  -0.53273  -0.52901  -0.52872
 Alpha  occ. eigenvalues --   -0.52506  -0.50161  -0.48812  -0.48804  -0.48147
 Alpha  occ. eigenvalues --   -0.46916  -0.46093  -0.46043  -0.44788  -0.44042
 Alpha  occ. eigenvalues --   -0.37323  -0.36307
 Alpha virt. eigenvalues --    0.05017   0.11149   0.16434   0.20542   0.22788
 Alpha virt. eigenvalues --    0.24080   0.25257   0.26745   0.27494   0.28394
 Alpha virt. eigenvalues --    0.28844   0.30608   0.31344   0.31586   0.31752

 Mulliken charges:
               1
     1  C   -0.171466
     2  C   -0.218454
     3  C   -0.170935
     4  C    0.164790
     5  C   -0.177958
     6  C   -0.213102
     7  H    0.226002
     8  H    0.223490
     9  H    0.275755
    10  H    0.275270
    11  H    0.223674
    12  N    0.488755
    13  O   -0.461046
    14  O   -0.460081
    15  C   -0.297020
    16  C   -0.300623
    17  C   -0.478937
    18  H    0.148444
    19  H    0.142042
    20  H    0.152361
    21  H    0.153295
    22  H    0.158220
    23  H    0.152920
    24  H    0.165222
    25  C   -0.298486
    26  C   -0.298582
    27  C   -0.475673
    28  H    0.151494
    29  H    0.150894
    30  H    0.150541
    31  H    0.145966
    32  H    0.156489
    33  H    0.156882
    34  H    0.159856
 Sum of Mulliken charges =  -0.00000

 Dipole moment (field-independent basis, Debye):
    X=             -2.8912    Y=              4.1783    Z=             -0.9672  Tot=              5.1723
 Quadrupole moment (field-independent basis, Debye-Ang):
   XX=           -109.9732   YY=            -92.4302   ZZ=            -91.7381
   XY=             11.4430   XZ=             -5.2375   YZ=             -0.6227

 Normal termination of Gaussian 16 at Thu May  6 16:02:07 2021.
