 Gaussian 16, Revision A.03,
 Gaussian 16:  EM64L-G16RevA.03 25-Dec-2016

 -------------
 #p 6-31g* mp2
 -------------

 ------------------------------------------------------
 Input file generated by CHIRIPA (05-May-2021 14:57:26)
 ------------------------------------------------------
 Symbolic Z-matrix:
 Charge =  0 Multiplicity = 1

                         Standard orientation:
 ---------------------------------------------------------------------
 Center     Atomic      Atomic             Coordinates (Angstroms)
 Number     Number       Type             X           Y           Z
 ---------------------------------------------------------------------
      1          6           0        2.152961    2.239172    0.344182
      2          6           0        1.887635    1.016370    0.969384
      3          6           0        2.761031   -0.064306    0.814897
      4          6           0        3.895486    0.113674    0.024564
      5          6           0        4.187331    1.319452   -0.611216
      6          6           0        3.299940    2.386550   -0.442735
      7          1           0        1.469050    3.073393    0.469626
      8          1           0        0.997644    0.899033    1.581098
      9          1           0        2.579885   -1.022015    1.287547
     10          1           0        5.082617    1.406067   -1.214855
     11          1           0        3.508539    3.335036   -0.929467
     12          7           0        4.827519   -1.023202   -0.146391
     13          8           0        5.820138   -0.840777   -0.847866
     14          8           0        4.547780   -2.075184    0.424325
     15          6           0       -5.735485    1.240965   -0.169558
     16          6           0       -4.458802    1.763685    0.061448
     17          6           0       -3.347002    0.918700    0.128144
     18          6           0       -3.549141   -0.450121   -0.041446
     19          6           0       -4.808499   -1.001206   -0.272986
     20          6           0       -5.905959   -0.137382   -0.335745
     21          1           0       -6.593588    1.904687   -0.219840
     22          1           0       -4.323423    2.833715    0.190883
     23          1           0       -2.347491    1.296649    0.305763
     24          1           0       -4.911981   -2.072213   -0.398101
     25          1           0       -6.896279   -0.546135   -0.515276
     26          7           0       -2.379718   -1.354640    0.027078
     27          8           0       -2.584372   -2.556902   -0.125633
     28          8           0       -1.280616   -0.844215    0.232202
 ---------------------------------------------------------------------

 SCF Done:  E(RHF) =  -868.338262399     A.U. after   16 cycles
 E2 =    -0.2599155505D+01 EUMP2 =    -0.87093741790405D+03

 The electronic state is 1-A.
 Alpha  occ. eigenvalues --  -20.61440 -20.61385 -20.60043 -20.60020 -15.86464
 Alpha  occ. eigenvalues --  -15.85082 -11.31776 -11.30389 -11.28397 -11.28293
 Alpha  occ. eigenvalues --  -11.28043 -11.27361 -11.27293 -11.27004 -11.26845
 Alpha  occ. eigenvalues --  -11.26773 -11.26075 -11.25882  -1.60478  -1.59109
 Alpha  occ. eigenvalues --   -1.40039  -1.38663  -1.19936  -1.18562  -1.09334
 Alpha  occ. eigenvalues --   -1.07998  -1.05337  -1.03934  -0.96184  -0.94837
 Alpha  occ. eigenvalues --   -0.86735  -0.85363  -0.83026  -0.81649  -0.78087
 Alpha  occ. eigenvalues --   -0.76682  -0.72690  -0.71793  -0.71307  -0.71044
 Alpha  occ. eigenvalues --   -0.70427  -0.69735  -0.65595  -0.65338  -0.64224
 Alpha  occ. eigenvalues --   -0.63948  -0.62695  -0.61272  -0.55823  -0.54543
 Alpha  occ. eigenvalues --   -0.53659  -0.53431  -0.52288  -0.52034  -0.49451
 Alpha  occ. eigenvalues --   -0.49416  -0.48068  -0.48054  -0.45455  -0.44080
 Alpha  occ. eigenvalues --   -0.37899  -0.36936  -0.36594  -0.35501
 Alpha virt. eigenvalues --    0.04453   0.05823   0.10721   0.12105   0.15957
 Alpha virt. eigenvalues --    0.17307   0.20493   0.22058   0.26208   0.27190
 Alpha virt. eigenvalues --    0.28638   0.28926   0.30535   0.31417   0.32250

 Mulliken charges:
               1
     1  C   -0.173308
     2  C   -0.211562
     3  C   -0.166850
     4  C    0.157547
     5  C   -0.172471
     6  C   -0.218574
     7  H    0.217016
     8  H    0.229137
     9  H    0.280733
    10  H    0.272862
    11  H    0.218978
    12  N    0.488076
    13  O   -0.463815
    14  O   -0.458537
    15  C   -0.170342
    16  C   -0.217927
    17  C   -0.170017
    18  C    0.159156
    19  C   -0.170276
    20  C   -0.218162
    21  H    0.227323
    22  H    0.222733
    23  H    0.268157
    24  H    0.277679
    25  H    0.225720
    26  N    0.490916
    27  O   -0.454686
    28  O   -0.469506
 Sum of Mulliken charges =  -0.00000

 Dipole moment (field-independent basis, Debye):
    X=             -7.7771    Y=              6.9320    Z=              0.4013  Tot=             10.4258
 Quadrupole moment (field-independent basis, Debye-Ang):
   XX=            -98.3040   YY=           -103.0325   ZZ=           -104.3885
   XY=              9.9830   XZ=              2.2945   YZ=             -1.0262

 Normal termination of Gaussian 16 at Thu May  6 22:55:23 2021.
