 Gaussian 16, Revision A.03,
 Gaussian 16:  EM64L-G16RevA.03 25-Dec-2016

 -------------
 #p 6-31g* mp2
 -------------

 ------------------------------------------------------
 Input file generated by CHIRIPA (05-May-2021 14:55:24)
 ------------------------------------------------------
 Symbolic Z-matrix:
 Charge =  0 Multiplicity = 1

                         Standard orientation:
 ---------------------------------------------------------------------
 Center     Atomic      Atomic             Coordinates (Angstroms)
 Number     Number       Type             X           Y           Z
 ---------------------------------------------------------------------
      1          6           0       -0.736711   -1.682050    1.880273
      2          6           0       -1.371169   -2.343800    0.823830
      3          6           0       -2.120905   -1.628043   -0.114326
      4          6           0       -2.215524   -0.245276    0.034986
      5          6           0       -1.595054    0.442729    1.076598
      6          6           0       -0.850478   -0.293346    2.003068
      7          1           0       -0.156302   -2.245959    2.604516
      8          1           0       -1.284548   -3.422208    0.725971
      9          1           0       -2.622366   -2.115034   -0.941849
     10          1           0       -1.699655    1.518553    1.147866
     11          1           0       -0.358828    0.223231    2.822503
     12          7           0       -3.006505    0.523218   -0.952013
     13          8           0       -3.074454    1.740751   -0.798280
     14          8           0       -3.543549   -0.106520   -1.860666
     15          6           0        2.589489   -0.282459   -0.211357
     16          6           0        3.659091   -1.047985   -0.991042
     17          6           0        3.486607   -2.564365   -0.898134
     18          1           0        2.620363   -0.592574    0.842124
     19          1           0        1.597373   -0.563514   -0.590974
     20          1           0        4.648958   -0.764530   -0.610999
     21          1           0        3.625794   -0.735871   -2.042752
     22          1           0        2.512312   -2.866347   -1.295822
     23          1           0        3.541288   -2.895168    0.144066
     24          1           0        4.261766   -3.091927   -1.462640
     25          6           0        2.748524    1.234610   -0.294640
     26          6           0        1.678921    2.000134    0.485045
     27          6           0        1.851405    3.516515    0.392137
     28          1           0        3.740640    1.515664    0.084978
     29          1           0        2.717649    1.544724   -1.348121
     30          1           0        1.712218    1.688022    1.536755
     31          1           0        0.689055    1.716680    0.105001
     32          1           0        1.796724    3.847318   -0.650063
     33          1           0        2.825701    3.818496    0.789825
     34          1           0        1.076246    4.044076    0.956643
 ---------------------------------------------------------------------

 SCF Done:  E(RHF) =  -669.534274687     A.U. after   15 cycles
 E2 =    -0.2094450981D+01 EUMP2 =    -0.67162872566811D+03

 The electronic state is 1-A.
 Alpha  occ. eigenvalues --  -20.60809 -20.60804 -15.85863 -11.31215 -11.27781
 Alpha  occ. eigenvalues --  -11.27754 -11.27504 -11.26787 -11.26747 -11.21889
 Alpha  occ. eigenvalues --  -11.21876 -11.21665 -11.21603 -11.21468 -11.21257
 Alpha  occ. eigenvalues --   -1.59886  -1.39439  -1.19391  -1.08791  -1.08701
 Alpha  occ. eigenvalues --   -1.04796  -1.03823  -0.96267  -0.95619  -0.87283
 Alpha  occ. eigenvalues --   -0.86185  -0.82456  -0.79915  -0.78560  -0.77478
 Alpha  occ. eigenvalues --   -0.72078  -0.71214  -0.70493  -0.65373  -0.65033
 Alpha  occ. eigenvalues --   -0.64764  -0.62150  -0.61221  -0.59642  -0.57888
 Alpha  occ. eigenvalues --   -0.55547  -0.55279  -0.53291  -0.52890  -0.52852
 Alpha  occ. eigenvalues --   -0.52697  -0.50202  -0.48837  -0.48836  -0.48236
 Alpha  occ. eigenvalues --   -0.46938  -0.46076  -0.45938  -0.44840  -0.44067
 Alpha  occ. eigenvalues --   -0.37339  -0.36262
 Alpha virt. eigenvalues --    0.05020   0.11120   0.16479   0.20625   0.22807
 Alpha virt. eigenvalues --    0.23765   0.25677   0.26609   0.27184   0.28510
 Alpha virt. eigenvalues --    0.28620   0.29541   0.31495   0.31587   0.32054

 Mulliken charges:
               1
     1  C   -0.169766
     2  C   -0.218692
     3  C   -0.172259
     4  C    0.158035
     5  C   -0.173638
     6  C   -0.211839
     7  H    0.225609
     8  H    0.223760
     9  H    0.275537
    10  H    0.276588
    11  H    0.223954
    12  N    0.488360
    13  O   -0.460919
    14  O   -0.460311
    15  C   -0.298265
    16  C   -0.300028
    17  C   -0.475138
    18  H    0.142402
    19  H    0.154591
    20  H    0.151905
    21  H    0.154492
    22  H    0.154438
    23  H    0.150877
    24  H    0.161786
    25  C   -0.298377
    26  C   -0.303953
    27  C   -0.475153
    28  H    0.148938
    29  H    0.153157
    30  H    0.141257
    31  H    0.159173
    32  H    0.160363
    33  H    0.154583
    34  H    0.158533
 Sum of Mulliken charges =  -0.00000

 Dipole moment (field-independent basis, Debye):
    X=              2.7618    Y=             -2.6878    Z=              3.4087  Tot=              5.1450
 Quadrupole moment (field-independent basis, Debye-Ang):
   XX=           -107.5549   YY=            -91.2596   ZZ=            -93.1525
   XY=              6.4605   XZ=             -6.8366   YZ=              1.1599

 Normal termination of Gaussian 16 at Thu May  6 19:19:25 2021.
