 Gaussian 16, Revision A.03,
 Gaussian 16:  EM64L-G16RevA.03 25-Dec-2016

 -------------
 #p 6-31g* mp2
 -------------

 ------------------------------------------------------
 Input file generated by CHIRIPA (05-May-2021 14:53:17)
 ------------------------------------------------------
 Symbolic Z-matrix:
 Charge =  0 Multiplicity = 1

                         Standard orientation:
 ---------------------------------------------------------------------
 Center     Atomic      Atomic             Coordinates (Angstroms)
 Number     Number       Type             X           Y           Z
 ---------------------------------------------------------------------
      1          6           0        4.387263    0.452542    0.267479
      2          6           0        5.772328    0.404652   -0.378498
      3          6           0        6.526307    1.729459   -0.259353
      4          1           0        3.799154    1.254112   -0.200025
      5          1           0        4.493898    0.720746    1.327710
      6          1           0        5.663219    0.135264   -1.436865
      7          1           0        6.357142   -0.397022    0.090466
      8          1           0        6.664523    2.000831    0.792243
      9          1           0        5.966657    2.536142   -0.743766
     10          1           0        7.513860    1.672883   -0.727752
     11          6           0        3.621195   -0.864485    0.156538
     12          6           0        2.236130   -0.816594    0.802514
     13          6           0        1.482151   -2.141402    0.683369
     14          1           0        3.514560   -1.132688   -0.903694
     15          1           0        4.209304   -1.666054    0.624041
     16          1           0        1.651316   -0.014920    0.333550
     17          1           0        2.345239   -0.547207    1.860882
     18          1           0        2.041801   -2.948084    1.167783
     19          1           0        1.343935   -2.412773   -0.368227
     20          1           0        0.494598   -2.084825    1.151769
     21          6           0       -2.372802   -2.201965   -0.626006
     22          6           0       -3.598309   -1.969678    0.007001
     23          6           0       -4.026988   -0.664636    0.267095
     24          6           0       -3.201343    0.389350   -0.121124
     25          6           0       -1.975051    0.190290   -0.753481
     26          6           0       -1.566507   -1.123140   -1.003561
     27          1           0       -2.047613   -3.219010   -0.824163
     28          1           0       -4.226553   -2.805577    0.301329
     29          1           0       -4.971068   -0.456245    0.755667
     30          1           0       -1.370533    1.043896   -1.035138
     31          1           0       -0.614272   -1.300542   -1.495317
     32          7           0       -3.644509    1.775379    0.148924
     33          8           0       -2.898756    2.686768   -0.203012
     34          8           0       -4.729224    1.924114    0.707412
 ---------------------------------------------------------------------

 SCF Done:  E(RHF) =  -669.535031731     A.U. after   15 cycles
 E2 =    -0.2092111876D+01 EUMP2 =    -0.67162714360687D+03

 The electronic state is 1-A.
 Alpha  occ. eigenvalues --  -20.60761 -20.60756 -15.85814 -11.31184 -11.27742
 Alpha  occ. eigenvalues --  -11.27734 -11.27471 -11.26770 -11.26732 -11.22214
 Alpha  occ. eigenvalues --  -11.21897 -11.21887 -11.21821 -11.21721 -11.21269
 Alpha  occ. eigenvalues --   -1.59836  -1.39390  -1.19354  -1.08887  -1.08743
 Alpha  occ. eigenvalues --   -1.04762  -1.03990  -0.96453  -0.95579  -0.87482
 Alpha  occ. eigenvalues --   -0.86142  -0.82412  -0.80062  -0.78666  -0.77463
 Alpha  occ. eigenvalues --   -0.72033  -0.71159  -0.70451  -0.65561  -0.65003
 Alpha  occ. eigenvalues --   -0.64758  -0.62180  -0.61328  -0.59822  -0.58044
 Alpha  occ. eigenvalues --   -0.55788  -0.55228  -0.53345  -0.52989  -0.52808
 Alpha  occ. eigenvalues --   -0.52759  -0.50388  -0.48789  -0.48787  -0.48368
 Alpha  occ. eigenvalues --   -0.47105  -0.46213  -0.46131  -0.44795  -0.44236
 Alpha  occ. eigenvalues --   -0.37305  -0.36331
 Alpha virt. eigenvalues --    0.05049   0.11266   0.16484   0.19934   0.22756
 Alpha virt. eigenvalues --    0.23961   0.25823   0.26202   0.27172   0.28118
 Alpha virt. eigenvalues --    0.28721   0.30011   0.31151   0.31322   0.32196

 Mulliken charges:
               1
     1  C   -0.298749
     2  C   -0.299907
     3  C   -0.476059
     4  H    0.150445
     5  H    0.151644
     6  H    0.151291
     7  H    0.152206
     8  H    0.156231
     9  H    0.156296
    10  H    0.160959
    11  C   -0.298165
    12  C   -0.300387
    13  C   -0.478940
    14  H    0.146397
    15  H    0.151127
    16  H    0.148760
    17  H    0.157112
    18  H    0.157662
    19  H    0.142777
    20  H    0.166647
    21  C   -0.172615
    22  C   -0.218718
    23  C   -0.171335
    24  C    0.158719
    25  C   -0.173498
    26  C   -0.214327
    27  H    0.226393
    28  H    0.223498
    29  H    0.275534
    30  H    0.275210
    31  H    0.226617
    32  N    0.488083
    33  O   -0.460472
    34  O   -0.460436
 Sum of Mulliken charges =  -0.00000

 Dipole moment (field-independent basis, Debye):
    X=              1.6419    Y=             -4.8643    Z=             -0.8729  Tot=              5.2076
 Quadrupole moment (field-independent basis, Debye-Ang):
   XX=           -101.3549   YY=            -99.2942   ZZ=            -93.5026
   XY=             17.5982   XZ=              1.4075   YZ=             -0.9721

 Normal termination of Gaussian 16 at Thu May  6 04:23:35 2021.
