 Gaussian 16, Revision A.03,
 Gaussian 16:  EM64L-G16RevA.03 25-Dec-2016

 -------------
 #p 6-31g* mp2
 -------------

 ------------------------------------------------------
 Input file generated by CHIRIPA (05-May-2021 14:51:08)
 ------------------------------------------------------
 Symbolic Z-matrix:
 Charge =  0 Multiplicity = 1

                         Standard orientation:
 ---------------------------------------------------------------------
 Center     Atomic      Atomic             Coordinates (Angstroms)
 Number     Number       Type             X           Y           Z
 ---------------------------------------------------------------------
      1          6           0        2.824448    0.369904    0.486074
      2          6           0        3.956439   -0.389886   -0.206240
      3          6           0        4.552642   -1.490904    0.671311
      4          1           0        3.202798    0.807882    1.419868
      5          1           0        2.036006   -0.340441    0.770968
      6          1           0        4.741888    0.321880   -0.490978
      7          1           0        3.575399   -0.825945   -1.138590
      8          1           0        3.785991   -2.223072    0.944764
      9          1           0        4.959108   -1.068726    1.596055
     10          1           0        5.360086   -2.021221    0.156861
     11          6           0        2.218255    1.473808   -0.378597
     12          6           0        1.086263    2.233598    0.313717
     13          6           0        0.490060    3.334616   -0.563834
     14          1           0        3.006697    2.184152   -0.663491
     15          1           0        1.839904    1.035829   -1.312391
     16          1           0        1.467303    2.669657    1.246067
     17          1           0        0.300814    1.521832    0.598455
     18          1           0        0.083594    2.912438   -1.488578
     19          1           0        1.256712    4.066784   -0.837287
     20          1           0       -0.317383    3.864933   -0.049384
     21          6           0       -2.863373   -0.246427    0.047504
     22          6           0       -4.376359   -0.355647    0.239668
     23          6           0       -5.046358    1.003896    0.441002
     24          1           0       -2.424409    0.254478    0.921202
     25          1           0       -2.656305    0.397283   -0.818612
     26          1           0       -4.580535   -1.000081    1.104327
     27          1           0       -4.811747   -0.856523   -0.634504
     28          1           0       -4.871976    1.651256   -0.424514
     29          1           0       -4.639450    1.506882    1.324196
     30          1           0       -6.127670    0.902461    0.576410
     31          6           0       -2.179330   -1.597285   -0.154981
     32          6           0       -0.666344   -1.488064   -0.347145
     33          6           0        0.003655   -2.847608   -0.548479
     34          1           0       -2.386397   -2.240995    0.711135
     35          1           0       -2.618294   -2.098189   -1.028679
     36          1           0       -0.230955   -0.987189    0.527027
     37          1           0       -0.462168   -0.843631   -1.211804
     38          1           0       -0.403253   -3.350595   -1.431673
     39          1           0       -0.170727   -3.494967    0.317038
     40          1           0        1.084968   -2.746173   -0.683887
 ---------------------------------------------------------------------

 SCF Done:  E(RHF) =  -470.732693153     A.U. after   11 cycles
 E2 =    -0.1584959767D+01 EUMP2 =    -0.47231765291989D+03

 The electronic state is 1-A.
 Alpha  occ. eigenvalues --  -11.21699 -11.21650 -11.21576 -11.21499 -11.21481
 Alpha  occ. eigenvalues --  -11.21421 -11.21328 -11.21267 -11.21184 -11.21099
 Alpha  occ. eigenvalues --  -11.21057 -11.21016  -1.08534  -1.08353  -1.03612
 Alpha  occ. eigenvalues --   -1.03480  -0.96062  -0.95925  -0.87073  -0.86945
 Alpha  occ. eigenvalues --   -0.79696  -0.79545  -0.78420  -0.78108  -0.65210
 Alpha  occ. eigenvalues --   -0.64979  -0.61022  -0.60886  -0.59409  -0.59299
 Alpha  occ. eigenvalues --   -0.57693  -0.57516  -0.55346  -0.55208  -0.52755
 Alpha  occ. eigenvalues --   -0.52628  -0.52476  -0.52357  -0.50026  -0.49852
 Alpha  occ. eigenvalues --   -0.48047  -0.47845  -0.46871  -0.46607  -0.46163
 Alpha  occ. eigenvalues --   -0.45859  -0.45645  -0.45064  -0.43858  -0.43723
 Alpha virt. eigenvalues --    0.19758   0.22035   0.23501   0.24340   0.25128
 Alpha virt. eigenvalues --    0.26261   0.27235   0.27909   0.27937   0.29737
 Alpha virt. eigenvalues --    0.30673   0.31110   0.31749   0.31793   0.32521

 Mulliken charges:
               1
     1  C   -0.305210
     2  C   -0.299851
     3  C   -0.476861
     4  H    0.149071
     5  H    0.157109
     6  H    0.151981
     7  H    0.151710
     8  H    0.155746
     9  H    0.155259
    10  H    0.160241
    11  C   -0.298014
    12  C   -0.305509
    13  C   -0.475105
    14  H    0.149176
    15  H    0.150163
    16  H    0.151005
    17  H    0.158259
    18  H    0.154385
    19  H    0.154797
    20  H    0.160146
    21  C   -0.300121
    22  C   -0.299731
    23  C   -0.475786
    24  H    0.150843
    25  H    0.150042
    26  H    0.152066
    27  H    0.152161
    28  H    0.155485
    29  H    0.155310
    30  H    0.160407
    31  C   -0.297731
    32  C   -0.306255
    33  C   -0.479089
    34  H    0.149728
    35  H    0.149874
    36  H    0.157080
    37  H    0.153024
    38  H    0.156050
    39  H    0.155671
    40  H    0.162473
 Sum of Mulliken charges =  -0.00000

 Dipole moment (field-independent basis, Debye):
    X=             -0.0567    Y=             -0.0339    Z=              0.0066  Tot=              0.0664
 Quadrupole moment (field-independent basis, Debye-Ang):
   XX=            -85.0435   YY=            -85.9140   ZZ=            -83.8926
   XY=              1.4342   XZ=              0.2232   YZ=              0.4590

 Normal termination of Gaussian 16 at Wed May  5 15:04:07 2021.
