 Gaussian 16, Revision A.03,
 Gaussian 16:  EM64L-G16RevA.03 25-Dec-2016

 -------------
 #p 6-31g* mp2
 -------------

 ------------------------------------------------------
 Input file generated by CHIRIPA (05-May-2021 14:51:13)
 ------------------------------------------------------
 Symbolic Z-matrix:
 Charge =  0 Multiplicity = 1

                         Standard orientation:
 ---------------------------------------------------------------------
 Center     Atomic      Atomic             Coordinates (Angstroms)
 Number     Number       Type             X           Y           Z
 ---------------------------------------------------------------------
      1          6           0       -4.546252   -0.592724    0.391016
      2          6           0       -5.415042   -1.356786   -0.608683
      3          6           0       -6.122663   -2.557607    0.019883
      4          1           0       -3.800578   -1.277561    0.817528
      5          1           0       -5.173458   -0.253546    1.227058
      6          1           0       -4.786646   -1.693229   -1.443272
      7          1           0       -6.158612   -0.670004   -1.033007
      8          1           0       -6.772748   -2.235802    0.839902
      9          1           0       -5.392987   -3.264841    0.427306
     10          1           0       -6.738215   -3.089351   -0.712377
     11          6           0       -3.832327    0.610489   -0.222432
     12          6           0       -2.963537    1.374551    0.777267
     13          6           0       -2.255916    2.575372    0.148701
     14          1           0       -3.205121    0.271311   -1.058474
     15          1           0       -4.578001    1.295326   -0.648944
     16          1           0       -2.219967    0.687769    1.201591
     17          1           0       -3.591933    1.710995    1.611857
     18          1           0       -2.985592    3.282607   -0.258721
     19          1           0       -1.605831    2.253567   -0.671318
     20          1           0       -1.640365    3.107117    0.880961
     21          6           0        4.478888   -0.715682   -0.084643
     22          6           0        5.979099   -0.756431    0.208089
     23          6           0        6.543828   -2.177297    0.203941
     24          1           0        3.949564   -1.324339    0.661210
     25          1           0        4.290022   -1.183459   -1.060813
     26          1           0        6.165233   -0.287475    1.182793
     27          1           0        6.504894   -0.147450   -0.538434
     28          1           0        6.387223   -2.651246   -0.770455
     29          1           0        6.045632   -2.792066    0.960552
     30          1           0        7.617663   -2.183127    0.415374
     31          6           0        3.899691    0.697916   -0.083942
     32          6           0        2.399480    0.738666   -0.376673
     33          6           0        1.834751    2.159531   -0.372525
     34          1           0        4.088558    1.165695    0.892229
     35          1           0        4.429015    1.306574   -0.829794
     36          1           0        1.873684    0.129685    0.369850
     37          1           0        2.213345    0.269710   -1.351378
     38          1           0        2.332947    2.774301   -1.129136
     39          1           0        1.991356    2.633481    0.601871
     40          1           0        0.760916    2.165362   -0.583958
 ---------------------------------------------------------------------

 SCF Done:  E(RHF) =  -470.733116860     A.U. after   11 cycles
 E2 =    -0.1582340284D+01 EUMP2 =    -0.47231545714485D+03

 The electronic state is 1-A.
 Alpha  occ. eigenvalues --  -11.21615 -11.21606 -11.21597 -11.21584 -11.21414
 Alpha  occ. eigenvalues --  -11.21395 -11.21354 -11.21334 -11.21077 -11.21075
 Alpha  occ. eigenvalues --  -11.21070 -11.20977  -1.08441  -1.08416  -1.03552
 Alpha  occ. eigenvalues --   -1.03499  -0.96026  -0.95924  -0.87066  -0.86918
 Alpha  occ. eigenvalues --   -0.79638  -0.79540  -0.78252  -0.78231  -0.65077
 Alpha  occ. eigenvalues --   -0.65046  -0.60988  -0.60902  -0.59410  -0.59277
 Alpha  occ. eigenvalues --   -0.57626  -0.57561  -0.55303  -0.55231  -0.52829
 Alpha  occ. eigenvalues --   -0.52549  -0.52443  -0.52305  -0.49921  -0.49881
 Alpha  occ. eigenvalues --   -0.47960  -0.47845  -0.46633  -0.46603  -0.45794
 Alpha  occ. eigenvalues --   -0.45774  -0.45716  -0.45699  -0.43841  -0.43681
 Alpha virt. eigenvalues --    0.21821   0.23064   0.23534   0.25116   0.26457
 Alpha virt. eigenvalues --    0.26639   0.27079   0.27508   0.27544   0.28957
 Alpha virt. eigenvalues --    0.30219   0.31260   0.31642   0.31829   0.32153

 Mulliken charges:
               1
     1  C   -0.298313
     2  C   -0.299674
     3  C   -0.475716
     4  H    0.149681
     5  H    0.149539
     6  H    0.151974
     7  H    0.151954
     8  H    0.155179
     9  H    0.155196
    10  H    0.160278
    11  C   -0.298518
    12  C   -0.300011
    13  C   -0.479308
    14  H    0.149660
    15  H    0.149722
    16  H    0.152133
    17  H    0.152106
    18  H    0.155556
    19  H    0.157617
    20  H    0.161776
    21  C   -0.298208
    22  C   -0.299630
    23  C   -0.475691
    24  H    0.149473
    25  H    0.149391
    26  H    0.151934
    27  H    0.151958
    28  H    0.155140
    29  H    0.155125
    30  H    0.160250
    31  C   -0.298307
    32  C   -0.299131
    33  C   -0.482759
    34  H    0.149516
    35  H    0.149680
    36  H    0.151279
    37  H    0.151278
    38  H    0.154686
    39  H    0.154637
    40  H    0.168545
 Sum of Mulliken charges =  -0.00000

 Dipole moment (field-independent basis, Debye):
    X=             -0.0318    Y=              0.0148    Z=              0.0030  Tot=              0.0352
 Quadrupole moment (field-independent basis, Debye-Ang):
   XX=            -84.8147   YY=            -86.1465   ZZ=            -83.8121
   XY=             -0.4904   XZ=             -0.2353   YZ=              0.3764

 Normal termination of Gaussian 16 at Thu May  6 02:22:45 2021.
