 Gaussian 16, Revision A.03,
 Gaussian 16:  EM64L-G16RevA.03 25-Dec-2016

 -------------
 #p 6-31g* mp2
 -------------

 ------------------------------------------------------
 Input file generated by CHIRIPA (05-May-2021 14:53:17)
 ------------------------------------------------------
 Symbolic Z-matrix:
 Charge =  0 Multiplicity = 1

                         Standard orientation:
 ---------------------------------------------------------------------
 Center     Atomic      Atomic             Coordinates (Angstroms)
 Number     Number       Type             X           Y           Z
 ---------------------------------------------------------------------
      1          6           0       -2.698706   -0.634789   -0.512522
      2          6           0       -2.157400   -2.049118   -0.301229
      3          6           0       -0.761361   -2.242482   -0.894088
      4          1           0       -2.722121   -0.414963   -1.588660
      5          1           0       -2.004356    0.087310   -0.061029
      6          1           0       -2.853263   -2.768421   -0.751779
      7          1           0       -2.135451   -2.265673    0.774521
      8          1           0       -0.049239   -1.547568   -0.437387
      9          1           0       -0.771129   -2.053173   -1.972358
     10          1           0       -0.393697   -3.260474   -0.731682
     11          6           0       -4.093467   -0.425937    0.074635
     12          6           0       -4.634773    0.988392   -0.136658
     13          6           0       -6.030812    1.181756    0.456201
     14          1           0       -4.787817   -1.148037   -0.376858
     15          1           0       -4.070052   -0.645763    1.150773
     16          1           0       -4.656722    1.204946   -1.212408
     17          1           0       -3.938910    1.707695    0.313892
     18          1           0       -6.021044    0.992446    1.534471
     19          1           0       -6.742934    0.486842   -0.000500
     20          1           0       -6.398477    2.199748    0.293795
     21          6           0        3.318518   -1.993241    0.527123
     22          6           0        2.227611   -1.458600    1.220377
     23          6           0        1.849983   -0.125913    1.030931
     24          6           0        2.588871    0.647102    0.136626
     25          6           0        3.680585    0.143363   -0.568852
     26          6           0        4.040251   -1.191965   -0.363708
     27          1           0        3.604892   -3.029531    0.680386
     28          1           0        1.665272   -2.078539    1.912832
     29          1           0        1.009688    0.313522    1.554590
     30          1           0        4.221849    0.786022   -1.252550
     31          1           0        4.887910   -1.604499   -0.903465
     32          7           0        2.198602    2.059358   -0.072241
     33          8           0        2.865861    2.719556   -0.865676
     34          8           0        1.232838    2.479343    0.561438
 ---------------------------------------------------------------------

 SCF Done:  E(RHF) =  -669.534231315     A.U. after   15 cycles
 E2 =    -0.2093109800D+01 EUMP2 =    -0.67162734111483D+03

 The electronic state is 1-A.
 Alpha  occ. eigenvalues --  -20.60832 -20.60825 -15.85883 -11.31266 -11.27807
 Alpha  occ. eigenvalues --  -11.27802 -11.27537 -11.26838 -11.26823 -11.21736
 Alpha  occ. eigenvalues --  -11.21383 -11.21345 -11.21276 -11.21109 -11.20884
 Alpha  occ. eigenvalues --   -1.59903  -1.39457  -1.19438  -1.08818  -1.08384
 Alpha  occ. eigenvalues --   -1.04855  -1.03491  -0.95945  -0.95654  -0.86966
 Alpha  occ. eigenvalues --   -0.86229  -0.82491  -0.79559  -0.78176  -0.77536
 Alpha  occ. eigenvalues --   -0.72101  -0.71226  -0.70529  -0.65100  -0.65015
 Alpha  occ. eigenvalues --   -0.64834  -0.62193  -0.60915  -0.59324  -0.57561
 Alpha  occ. eigenvalues --   -0.55357  -0.55320  -0.53285  -0.52926  -0.52617
 Alpha  occ. eigenvalues --   -0.52253  -0.49841  -0.48860  -0.48855  -0.47861
 Alpha  occ. eigenvalues --   -0.46595  -0.45722  -0.45638  -0.44852  -0.43746
 Alpha  occ. eigenvalues --   -0.37402  -0.36314
 Alpha virt. eigenvalues --    0.04972   0.11135   0.16447   0.20794   0.22996
 Alpha virt. eigenvalues --    0.24321   0.26226   0.27186   0.27555   0.28334
 Alpha virt. eigenvalues --    0.28701   0.30655   0.31526   0.31646   0.32066

 Mulliken charges:
               1
     1  C   -0.299948
     2  C   -0.299164
     3  C   -0.482436
     4  H    0.151838
     5  H    0.152853
     6  H    0.152185
     7  H    0.145405
     8  H    0.163418
     9  H    0.156673
    10  H    0.152860
    11  C   -0.297971
    12  C   -0.300771
    13  C   -0.475757
    14  H    0.148635
    15  H    0.147490
    16  H    0.152823
    17  H    0.157092
    18  H    0.154283
    19  H    0.153911
    20  H    0.161494
    21  C   -0.170144
    22  C   -0.213696
    23  C   -0.178558
    24  C    0.162215
    25  C   -0.171350
    26  C   -0.217643
    27  H    0.226010
    28  H    0.224965
    29  H    0.276081
    30  H    0.275846
    31  H    0.223892
    32  N    0.488266
    33  O   -0.459797
    34  O   -0.460999
 Sum of Mulliken charges =  -0.00000

 Dipole moment (field-independent basis, Debye):
    X=              1.4756    Y=             -4.8756    Z=              0.7114  Tot=              5.1435
 Quadrupole moment (field-independent basis, Debye-Ang):
   XX=            -85.8676   YY=           -102.0779   ZZ=            -92.2465
   XY=            -11.7010   XZ=              0.0936   YZ=             -0.5573

 Normal termination of Gaussian 16 at Wed May  5 18:47:12 2021.
