 Gaussian 16, Revision A.03,
 Gaussian 16:  EM64L-G16RevA.03 25-Dec-2016

 -------------
 #p 6-31g* mp2
 -------------

 ------------------------------------------------------
 Input file generated by CHIRIPA (05-May-2021 14:57:25)
 ------------------------------------------------------
 Symbolic Z-matrix:
 Charge =  0 Multiplicity = 1

                         Standard orientation:
 ---------------------------------------------------------------------
 Center     Atomic      Atomic             Coordinates (Angstroms)
 Number     Number       Type             X           Y           Z
 ---------------------------------------------------------------------
      1          6           0        2.017326   -0.135552    1.992312
      2          6           0        1.551445   -0.207443    0.675381
      3          6           0        2.448633   -0.196125   -0.396754
      4          6           0        3.811128   -0.111622   -0.114342
      5          6           0        4.306219   -0.038691    1.186756
      6          6           0        3.390804   -0.051553    2.243354
      7          1           0        1.313289   -0.144944    2.819137
      8          1           0        0.485333   -0.272753    0.477431
      9          1           0        2.115249   -0.250630   -1.425979
     10          1           0        5.374757    0.025621    1.352610
     11          1           0        3.755473    0.004399    3.265083
     12          7           0        4.770589   -0.098823   -1.241139
     13          8           0        5.966065   -0.023707   -0.965762
     14          8           0        4.308971   -0.164149   -2.378363
     15          6           0       -2.792690    2.481032    0.075875
     16          6           0       -2.069766    1.435898    0.660337
     17          6           0       -2.536921    0.120364    0.584948
     18          6           0       -3.736169   -0.115130   -0.085603
     19          6           0       -4.479191    0.904768   -0.678070
     20          6           0       -3.992980    2.212605   -0.590288
     21          1           0       -2.422390    3.499982    0.139253
     22          1           0       -1.137295    1.641407    1.178321
     23          1           0       -1.997337   -0.707626    1.028460
     24          1           0       -5.405441    0.668770   -1.187760
     25          1           0       -4.556516    3.022291   -1.045128
     26          7           0       -4.240813   -1.503753   -0.171974
     27          8           0       -5.300123   -1.684937   -0.768354
     28          8           0       -3.567486   -2.384680    0.358344
 ---------------------------------------------------------------------

 SCF Done:  E(RHF) =  -868.336587549     A.U. after   16 cycles
 E2 =    -0.2600851783D+01 EUMP2 =    -0.87093743933190D+03

 The electronic state is 1-A.
 Alpha  occ. eigenvalues --  -20.61430 -20.61416 -20.61088 -20.61083 -15.86486
 Alpha  occ. eigenvalues --  -15.86146 -11.31999 -11.31625 -11.28676 -11.28509
 Alpha  occ. eigenvalues --  -11.28273 -11.28221 -11.28199 -11.28045 -11.27667
 Alpha  occ. eigenvalues --  -11.27526 -11.27303 -11.27238  -1.60499  -1.60161
 Alpha  occ. eigenvalues --   -1.40050  -1.39711  -1.20174  -1.19823  -1.09518
 Alpha  occ. eigenvalues --   -1.09215  -1.05631  -1.05233  -0.96340  -0.96020
 Alpha  occ. eigenvalues --   -0.86985  -0.86659  -0.83201  -0.82835  -0.78263
 Alpha  occ. eigenvalues --   -0.77834  -0.72699  -0.72363  -0.71825  -0.71486
 Alpha  occ. eigenvalues --   -0.71261  -0.70952  -0.65865  -0.65633  -0.65477
 Alpha  occ. eigenvalues --   -0.65274  -0.63073  -0.62425  -0.56046  -0.55780
 Alpha  occ. eigenvalues --   -0.53945  -0.53761  -0.53505  -0.53283  -0.49469
 Alpha  occ. eigenvalues --   -0.49447  -0.49132  -0.49108  -0.45424  -0.45090
 Alpha  occ. eigenvalues --   -0.38112  -0.37837  -0.37226  -0.36821
 Alpha virt. eigenvalues --    0.04282   0.04675   0.10344   0.10773   0.15632
 Alpha virt. eigenvalues --    0.16142   0.18851   0.21966   0.25139   0.26815
 Alpha virt. eigenvalues --    0.27834   0.29314   0.30091   0.30841   0.31759

 Mulliken charges:
               1
     1  C   -0.174552
     2  C   -0.225514
     3  C   -0.171767
     4  C    0.159120
     5  C   -0.170212
     6  C   -0.217964
     7  H    0.223361
     8  H    0.224547
     9  H    0.278916
    10  H    0.277353
    11  H    0.225202
    12  N    0.487929
    13  O   -0.459237
    14  O   -0.458811
    15  C   -0.170589
    16  C   -0.220048
    17  C   -0.178099
    18  C    0.159846
    19  C   -0.169790
    20  C   -0.217499
    21  H    0.229403
    22  H    0.221667
    23  H    0.270129
    24  H    0.278748
    25  H    0.227310
    26  N    0.488279
    27  O   -0.456846
    28  O   -0.460880
 Sum of Mulliken charges =  -0.00000

 Dipole moment (field-independent basis, Debye):
    X=             -1.7020    Y=              4.9318    Z=              4.1290  Tot=              6.6534
 Quadrupole moment (field-independent basis, Debye-Ang):
   XX=           -136.4084   YY=           -106.4326   ZZ=           -103.2816
   XY=            -20.0250   XZ=             19.8513   YZ=             -1.6971

 Normal termination of Gaussian 16 at Fri May  7 00:25:26 2021.
