 Gaussian 16, Revision A.03,
 Gaussian 16:  EM64L-G16RevA.03 25-Dec-2016

 -------------
 #p 6-31g* mp2
 -------------

 ------------------------------------------------------
 Input file generated by CHIRIPA (05-May-2021 14:51:13)
 ------------------------------------------------------
 Symbolic Z-matrix:
 Charge =  0 Multiplicity = 1

                         Standard orientation:
 ---------------------------------------------------------------------
 Center     Atomic      Atomic             Coordinates (Angstroms)
 Number     Number       Type             X           Y           Z
 ---------------------------------------------------------------------
      1          6           0       -3.500200    0.860087   -0.057686
      2          6           0       -2.354641    1.365167   -0.935508
      3          6           0       -1.822775    2.726897   -0.487620
      4          1           0       -4.315655    1.596165   -0.070688
      5          1           0       -3.154165    0.795311    0.983208
      6          1           0       -2.702323    1.427654   -1.974656
      7          1           0       -1.541896    0.627712   -0.920567
      8          1           0       -1.449654    2.675601    0.540363
      9          1           0       -2.616674    3.480087   -0.519715
     10          1           0       -1.004467    3.068974   -1.128880
     11          6           0       -4.042564   -0.500128   -0.492866
     12          6           0       -5.188124   -1.005208    0.384957
     13          6           0       -5.719989   -2.366938   -0.062932
     14          1           0       -4.388599   -0.435352   -1.533759
     15          1           0       -3.227110   -1.236206   -0.479863
     16          1           0       -6.000868   -0.267753    0.370015
     17          1           0       -4.840442   -1.067695    1.424105
     18          1           0       -4.926090   -3.120129   -0.030837
     19          1           0       -6.093110   -2.315642   -1.090915
     20          1           0       -6.538298   -2.709015    0.578328
     21          6           0        4.493167    0.002485    0.104496
     22          6           0        5.283068   -1.155513   -0.506308
     23          6           0        6.725259   -0.774968   -0.842557
     24          1           0        4.496791    0.849670   -0.594938
     25          1           0        5.004335    0.346199    1.014421
     26          1           0        4.769817   -1.497848   -1.414051
     27          1           0        5.277402   -2.000108    0.194581
     28          1           0        7.258751   -0.453429    0.057777
     29          1           0        6.748281    0.051685   -1.559994
     30          1           0        7.271653   -1.617407   -1.277998
     31          6           0        3.049597   -0.362444    0.446056
     32          6           0        2.259696    0.795555    1.056860
     33          6           0        0.817505    0.415009    1.393109
     34          1           0        2.538429   -0.706158   -0.463869
     35          1           0        3.045974   -1.209629    1.145491
     36          1           0        2.265363    1.640149    0.355971
     37          1           0        2.772947    1.137889    1.964602
     38          1           0        0.794483   -0.411644    2.110545
     39          1           0        0.284015    0.093470    0.492775
     40          1           0        0.271112    1.257449    1.828550
 ---------------------------------------------------------------------

 SCF Done:  E(RHF) =  -470.732793700     A.U. after   11 cycles
 E2 =    -0.1583239136D+01 EUMP2 =    -0.47231603283567D+03

 The electronic state is 1-A.
 Alpha  occ. eigenvalues --  -11.21626 -11.21616 -11.21571 -11.21546 -11.21428
 Alpha  occ. eigenvalues --  -11.21367 -11.21364 -11.21303 -11.21097 -11.21081
 Alpha  occ. eigenvalues --  -11.21047 -11.21012  -1.08456  -1.08386  -1.03580
 Alpha  occ. eigenvalues --   -1.03467  -0.96039  -0.95910  -0.87034  -0.86952
 Alpha  occ. eigenvalues --   -0.79629  -0.79551  -0.78268  -0.78203  -0.65161
 Alpha  occ. eigenvalues --   -0.64965  -0.61176  -0.60709  -0.59382  -0.59299
 Alpha  occ. eigenvalues --   -0.57664  -0.57519  -0.55443  -0.55068  -0.52710
 Alpha  occ. eigenvalues --   -0.52636  -0.52456  -0.52342  -0.49975  -0.49857
 Alpha  occ. eigenvalues --   -0.47968  -0.47863  -0.46761  -0.46461  -0.45843
 Alpha  occ. eigenvalues --   -0.45764  -0.45708  -0.45561  -0.43798  -0.43741
 Alpha virt. eigenvalues --    0.20867   0.23067   0.23619   0.25318   0.25666
 Alpha virt. eigenvalues --    0.26288   0.26791   0.27653   0.27974   0.29192
 Alpha virt. eigenvalues --    0.29907   0.30866   0.31506   0.32161   0.32458

 Mulliken charges:
               1
     1  C   -0.298769
     2  C   -0.302954
     3  C   -0.477552
     4  H    0.149447
     5  H    0.150586
     6  H    0.151608
     7  H    0.155147
     8  H    0.158401
     9  H    0.154698
    10  H    0.159237
    11  C   -0.298254
    12  C   -0.299658
    13  C   -0.475702
    14  H    0.149293
    15  H    0.149506
    16  H    0.151823
    17  H    0.152133
    18  H    0.155192
    19  H    0.155061
    20  H    0.160155
    21  C   -0.298310
    22  C   -0.299686
    23  C   -0.475723
    24  H    0.149765
    25  H    0.149611
    26  H    0.151960
    27  H    0.151932
    28  H    0.155210
    29  H    0.155230
    30  H    0.160300
    31  C   -0.298534
    32  C   -0.299665
    33  C   -0.481647
    34  H    0.149379
    35  H    0.149642
    36  H    0.152713
    37  H    0.151999
    38  H    0.154704
    39  H    0.159835
    40  H    0.161886
 Sum of Mulliken charges =  -0.00000

 Dipole moment (field-independent basis, Debye):
    X=              0.0216    Y=             -0.0001    Z=              0.0145  Tot=              0.0260
 Quadrupole moment (field-independent basis, Debye-Ang):
   XX=            -85.6784   YY=            -85.5109   ZZ=            -83.6846
   XY=             -0.9945   XZ=              0.8661   YZ=             -0.6921

 Normal termination of Gaussian 16 at Wed May  5 21:37:24 2021.
