 Gaussian 16, Revision A.03,
 Gaussian 16:  EM64L-G16RevA.03 25-Dec-2016

 -------------
 #p 6-31g* mp2
 -------------

 ------------------------------------------------------
 Input file generated by CHIRIPA (05-May-2021 14:55:23)
 ------------------------------------------------------
 Symbolic Z-matrix:
 Charge =  0 Multiplicity = 1

                         Standard orientation:
 ---------------------------------------------------------------------
 Center     Atomic      Atomic             Coordinates (Angstroms)
 Number     Number       Type             X           Y           Z
 ---------------------------------------------------------------------
      1          6           0        5.001279    1.147715   -0.121709
      2          6           0        4.973201   -0.059576   -0.827530
      3          6           0        3.890122   -0.933783   -0.696193
      4          6           0        2.847452   -0.567396    0.153449
      5          6           0        2.846279    0.628343    0.870036
      6          6           0        3.939600    1.487222    0.723331
      7          1           0        5.846619    1.820866   -0.229704
      8          1           0        5.796318   -0.325843   -1.484512
      9          1           0        3.842665   -1.874704   -1.230826
     10          1           0        2.011032    0.866360    1.517438
     11          1           0        3.958710    2.424162    1.272716
     12          7           0        1.695423   -1.484767    0.300625
     13          8           0        0.789260   -1.138838    1.055501
     14          8           0        1.720440   -2.532361   -0.341683
     15          6           0       -4.296524   -0.111815   -0.195399
     16          6           0       -5.774655    0.091412    0.138990
     17          6           0       -6.579260   -1.207151    0.074664
     18          1           0       -4.211053   -0.548420   -1.199896
     19          1           0       -3.867529   -0.844971    0.501624
     20          1           0       -6.200393    0.825001   -0.557581
     21          1           0       -5.856609    0.527762    1.142732
     22          1           0       -6.181504   -1.942228    0.781808
     23          1           0       -6.527240   -1.643300   -0.928166
     24          1           0       -7.633170   -1.038850    0.317174
     25          6           0       -3.479016    1.177294   -0.135335
     26          6           0       -2.000886    0.974066   -0.469723
     27          6           0       -1.196280    2.272629   -0.405398
     28          1           0       -3.908012    1.910449   -0.832357
     29          1           0       -3.564487    1.613899    0.869162
     30          1           0       -1.918931    0.537716   -1.473465
     31          1           0       -1.575148    0.240478    0.226847
     32          1           0       -1.248300    2.708779    0.597432
     33          1           0       -1.594037    3.007706   -1.112541
     34          1           0       -0.142371    2.104329   -0.647908
 ---------------------------------------------------------------------

 SCF Done:  E(RHF) =  -669.536383824     A.U. after   15 cycles
 E2 =    -0.2091435008D+01 EUMP2 =    -0.67162781883276D+03

 The electronic state is 1-A.
 Alpha  occ. eigenvalues --  -20.60937 -20.60931 -15.85963 -11.31282 -11.27839
 Alpha  occ. eigenvalues --  -11.27834 -11.27575 -11.26849 -11.26838 -11.20992
 Alpha  occ. eigenvalues --  -11.20683 -11.20641 -11.20599 -11.20577 -11.20503
 Alpha  occ. eigenvalues --   -1.59990  -1.39548  -1.19446  -1.08851  -1.07699
 Alpha  occ. eigenvalues --   -1.04840  -1.02860  -0.95695  -0.95360  -0.86382
 Alpha  occ. eigenvalues --   -0.86238  -0.82530  -0.78905  -0.77597  -0.77472
 Alpha  occ. eigenvalues --   -0.72191  -0.71300  -0.70552  -0.65103  -0.64842
 Alpha  occ. eigenvalues --   -0.64324  -0.62187  -0.60251  -0.58724  -0.56957
 Alpha  occ. eigenvalues --   -0.55344  -0.54660  -0.53177  -0.52931  -0.52077
 Alpha  occ. eigenvalues --   -0.51779  -0.49306  -0.48952  -0.48942  -0.47239
 Alpha  occ. eigenvalues --   -0.45953  -0.45191  -0.45038  -0.44617  -0.43115
 Alpha  occ. eigenvalues --   -0.37421  -0.36437
 Alpha virt. eigenvalues --    0.04904   0.11165   0.16384   0.21233   0.23527
 Alpha virt. eigenvalues --    0.24643   0.27172   0.27421   0.27930   0.28441
 Alpha virt. eigenvalues --    0.28804   0.30967   0.31900   0.31993   0.32457

 Mulliken charges:
               1
     1  C   -0.170615
     2  C   -0.218447
     3  C   -0.170839
     4  C    0.157963
     5  C   -0.170912
     6  C   -0.218717
     7  H    0.226022
     8  H    0.223799
     9  H    0.275793
    10  H    0.276855
    11  H    0.224219
    12  N    0.489443
    13  O   -0.460870
    14  O   -0.458708
    15  C   -0.298966
    16  C   -0.299149
    17  C   -0.475438
    18  H    0.149350
    19  H    0.156051
    20  H    0.149503
    21  H    0.150536
    22  H    0.156634
    23  H    0.154813
    24  H    0.157817
    25  C   -0.297604
    26  C   -0.310405
    27  C   -0.475071
    28  H    0.145036
    29  H    0.147152
    30  H    0.149578
    31  H    0.178564
    32  H    0.150798
    33  H    0.152057
    34  H    0.153758
 Sum of Mulliken charges =  -0.00000

 Dipole moment (field-independent basis, Debye):
    X=              4.2503    Y=              3.0433    Z=             -0.4521  Tot=              5.2470
 Quadrupole moment (field-independent basis, Debye-Ang):
   XX=            -72.2357   YY=            -97.8985   ZZ=            -92.4730
   XY=              5.2538   XZ=             -2.4647   YZ=              3.1307

 Normal termination of Gaussian 16 at Wed May  5 22:20:29 2021.
