 Gaussian 16, Revision A.03,
 Gaussian 16:  EM64L-G16RevA.03 25-Dec-2016

 -------------
 #p 6-31g* mp2
 -------------

 ------------------------------------------------------
 Input file generated by CHIRIPA (05-May-2021 14:53:18)
 ------------------------------------------------------
 Symbolic Z-matrix:
 Charge =  0 Multiplicity = 1

                         Standard orientation:
 ---------------------------------------------------------------------
 Center     Atomic      Atomic             Coordinates (Angstroms)
 Number     Number       Type             X           Y           Z
 ---------------------------------------------------------------------
      1          6           0       -3.512824   -0.384598    0.200076
      2          6           0       -4.972484   -0.487693    0.643642
      3          6           0       -5.296838   -1.828839    1.302366
      4          1           0       -3.290298   -1.201760   -0.499690
      5          1           0       -2.860601   -0.533252    1.071799
      6          1           0       -5.621781   -0.337514   -0.228411
      7          1           0       -5.191614    0.329922    1.342285
      8          1           0       -4.673372   -1.983360    2.188940
      9          1           0       -5.105983   -2.654588    0.609320
     10          1           0       -6.345385   -1.881009    1.611700
     11          6           0       -3.173167    0.950444   -0.460245
     12          6           0       -1.713507    1.053538   -0.903811
     13          6           0       -1.389153    2.394684   -1.562535
     14          1           0       -3.825391    1.099098   -1.331968
     15          1           0       -3.395693    1.767606    0.239521
     16          1           0       -1.494377    0.235923   -1.602455
     17          1           0       -1.064210    0.903359   -0.031759
     18          1           0       -1.580008    3.220434   -0.869489
     19          1           0       -2.012619    2.549206   -2.449109
     20          1           0       -0.340606    2.446854   -1.871869
     21          6           0        2.704120    1.932028    1.413767
     22          6           0        1.929723    1.853220    0.251606
     23          6           0        1.871103    0.665379   -0.483340
     24          6           0        2.602782   -0.429184   -0.025224
     25          6           0        3.383463   -0.381967    1.128725
     26          6           0        3.427243    0.816151    1.847853
     27          1           0        2.743893    2.858764    1.978547
     28          1           0        1.367099    2.718234   -0.087881
     29          1           0        1.279648    0.576748   -1.386524
     30          1           0        3.933387   -1.261032    1.442167
     31          1           0        4.029494    0.874460    2.750038
     32          7           0        2.548579   -1.692137   -0.794906
     33          8           0        3.202414   -2.642284   -0.370220
     34          8           0        1.853286   -1.707980   -1.808292
 ---------------------------------------------------------------------

 SCF Done:  E(RHF) =  -669.534424188     A.U. after   15 cycles
 E2 =    -0.2093429572D+01 EUMP2 =    -0.67162785376006D+03

 The electronic state is 1-A.
 Alpha  occ. eigenvalues --  -20.60745 -20.60740 -15.85796 -11.31138 -11.27726
 Alpha  occ. eigenvalues --  -11.27678 -11.27462 -11.26732 -11.26673 -11.21998
 Alpha  occ. eigenvalues --  -11.21906 -11.21666 -11.21659 -11.21456 -11.21061
 Alpha  occ. eigenvalues --   -1.59818  -1.39373  -1.19326  -1.08723  -1.08672
 Alpha  occ. eigenvalues --   -1.04753  -1.03832  -0.96328  -0.95554  -0.87334
 Alpha  occ. eigenvalues --   -0.86120  -0.82397  -0.79917  -0.78452  -0.77435
 Alpha  occ. eigenvalues --   -0.72017  -0.71140  -0.70446  -0.65324  -0.64975
 Alpha  occ. eigenvalues --   -0.64719  -0.62284  -0.61211  -0.59605  -0.57871
 Alpha  occ. eigenvalues --   -0.55595  -0.55209  -0.53076  -0.53062  -0.52782
 Alpha  occ. eigenvalues --   -0.52715  -0.50221  -0.48772  -0.48769  -0.48223
 Alpha  occ. eigenvalues --   -0.46906  -0.45988  -0.45879  -0.44779  -0.44084
 Alpha  occ. eigenvalues --   -0.37312  -0.36263
 Alpha virt. eigenvalues --    0.05072   0.11303   0.16491   0.20216   0.22897
 Alpha virt. eigenvalues --    0.23985   0.26093   0.26550   0.27069   0.28043
 Alpha virt. eigenvalues --    0.29400   0.30176   0.31107   0.31517   0.32038

 Mulliken charges:
               1
     1  C   -0.299431
     2  C   -0.299967
     3  C   -0.475976
     4  H    0.154887
     5  H    0.149799
     6  H    0.152366
     7  H    0.150571
     8  H    0.155241
     9  H    0.157504
    10  H    0.160169
    11  C   -0.297824
    12  C   -0.311337
    13  C   -0.480798
    14  H    0.150994
    15  H    0.147994
    16  H    0.161918
    17  H    0.155557
    18  H    0.154138
    19  H    0.163236
    20  H    0.149164
    21  C   -0.171279
    22  C   -0.222928
    23  C   -0.172337
    24  C    0.157700
    25  C   -0.170997
    26  C   -0.218969
    27  H    0.225464
    28  H    0.228459
    29  H    0.281157
    30  H    0.275401
    31  H    0.223180
    32  N    0.488630
    33  O   -0.460600
    34  O   -0.461087
 Sum of Mulliken charges =  -0.00000

 Dipole moment (field-independent basis, Debye):
    X=              0.0610    Y=              4.3566    Z=              2.6913  Tot=              5.1212
 Quadrupole moment (field-independent basis, Debye-Ang):
   XX=            -92.2157   YY=            -99.0660   ZZ=            -92.5279
   XY=              9.9570   XZ=             10.1382   YZ=             -1.9748

 Normal termination of Gaussian 16 at Thu May  6 07:35:41 2021.
