 Gaussian 16, Revision A.03,
 Gaussian 16:  EM64L-G16RevA.03 25-Dec-2016

 -------------
 #p 6-31g* mp2
 -------------

 ------------------------------------------------------
 Input file generated by CHIRIPA (05-May-2021 14:51:10)
 ------------------------------------------------------
 Symbolic Z-matrix:
 Charge =  0 Multiplicity = 1

                         Standard orientation:
 ---------------------------------------------------------------------
 Center     Atomic      Atomic             Coordinates (Angstroms)
 Number     Number       Type             X           Y           Z
 ---------------------------------------------------------------------
      1          6           0        3.959125    1.078523   -0.087149
      2          6           0        2.471744    1.329464    0.163270
      3          6           0        2.098128    2.809216    0.070864
      4          1           0        4.548936    1.653189    0.640056
      5          1           0        4.226636    1.463834   -1.080813
      6          1           0        2.206814    0.942550    1.155604
      7          1           0        1.885401    0.753983   -0.564493
      8          1           0        2.334435    3.204919   -0.922201
      9          1           0        2.657675    3.394558    0.807670
     10          1           0        1.030383    2.965835    0.253211
     11          6           0        4.348100   -0.396099    0.001825
     12          6           0        5.835481   -0.647040   -0.248594
     13          6           0        6.209097   -2.126792   -0.156188
     14          1           0        4.080589   -0.781411    0.995489
     15          1           0        3.758289   -0.970766   -0.725380
     16          1           0        6.421824   -0.071559    0.479169
     17          1           0        6.100411   -0.260127   -1.240928
     18          1           0        5.649550   -2.712134   -0.892994
     19          1           0        5.972790   -2.522495    0.836877
     20          1           0        7.276842   -2.283411   -0.338535
     21          6           0       -4.766444    0.052682   -0.186939
     22          6           0       -6.085642   -0.679867    0.060191
     23          6           0       -7.302509    0.120852   -0.404434
     24          1           0       -4.789519    1.021150    0.331215
     25          1           0       -4.673272    0.274012   -1.259192
     26          1           0       -6.175653   -0.900974    1.131464
     27          1           0       -6.059349   -1.646786   -0.458453
     28          1           0       -7.239650    0.329425   -1.477349
     29          1           0       -7.356616    1.079476    0.121602
     30          1           0       -8.234818   -0.421373   -0.218281
     31          6           0       -3.540781   -0.735106    0.272263
     32          6           0       -2.221583   -0.002556    0.025134
     33          6           0       -1.004716   -0.803276    0.489758
     34          1           0       -3.633952   -0.956436    1.344516
     35          1           0       -3.517706   -1.703574   -0.245890
     36          1           0       -2.247877    0.964363    0.543778
     37          1           0       -2.131572    0.218550   -1.046140
     38          1           0       -0.950609   -1.761899   -0.036279
     39          1           0       -1.067575   -1.011850    1.562673
     40          1           0       -0.072407   -0.261050    0.303606
 ---------------------------------------------------------------------

 SCF Done:  E(RHF) =  -470.733022513     A.U. after   11 cycles
 E2 =    -0.1582692468D+01 EUMP2 =    -0.47231571498113D+03

 The electronic state is 1-A.
 Alpha  occ. eigenvalues --  -11.21634 -11.21602 -11.21582 -11.21555 -11.21416
 Alpha  occ. eigenvalues --  -11.21373 -11.21354 -11.21313 -11.21102 -11.21067
 Alpha  occ. eigenvalues --  -11.21057 -11.20921  -1.08451  -1.08392  -1.03565
 Alpha  occ. eigenvalues --   -1.03474  -0.96003  -0.95922  -0.87024  -0.86937
 Alpha  occ. eigenvalues --   -0.79679  -0.79503  -0.78269  -0.78207  -0.65080
 Alpha  occ. eigenvalues --   -0.65025  -0.60959  -0.60879  -0.59576  -0.59146
 Alpha  occ. eigenvalues --   -0.57732  -0.57400  -0.55279  -0.55216  -0.52747
 Alpha  occ. eigenvalues --   -0.52606  -0.52411  -0.52345  -0.49937  -0.49871
 Alpha  occ. eigenvalues --   -0.48069  -0.47724  -0.46652  -0.46582  -0.45808
 Alpha  occ. eigenvalues --   -0.45740  -0.45720  -0.45678  -0.43835  -0.43643
 Alpha virt. eigenvalues --    0.21961   0.23043   0.23470   0.25026   0.26477
 Alpha virt. eigenvalues --    0.26624   0.26772   0.27368   0.27978   0.28875
 Alpha virt. eigenvalues --    0.30712   0.31160   0.31392   0.31555   0.32199

 Mulliken charges:
               1
     1  C   -0.297104
     2  C   -0.304892
     3  C   -0.476363
     4  H    0.149703
     5  H    0.149487
     6  H    0.153663
     7  H    0.154590
     8  H    0.155359
     9  H    0.155470
    10  H    0.160936
    11  C   -0.298566
    12  C   -0.299658
    13  C   -0.475702
    14  H    0.149876
    15  H    0.149829
    16  H    0.151924
    17  H    0.151875
    18  H    0.155245
    19  H    0.155295
    20  H    0.160222
    21  C   -0.298196
    22  C   -0.299606
    23  C   -0.475677
    24  H    0.149519
    25  H    0.149383
    26  H    0.151885
    27  H    0.151887
    28  H    0.155131
    29  H    0.155143
    30  H    0.160181
    31  C   -0.298181
    32  C   -0.298855
    33  C   -0.486027
    34  H    0.149431
    35  H    0.149536
    36  H    0.151197
    37  H    0.151267
    38  H    0.154141
    39  H    0.154189
    40  H    0.172462
 Sum of Mulliken charges =  -0.00000

 Dipole moment (field-independent basis, Debye):
    X=              0.0542    Y=              0.0161    Z=             -0.0000  Tot=              0.0565
 Quadrupole moment (field-independent basis, Debye-Ang):
   XX=            -85.9705   YY=            -85.8753   ZZ=            -82.9800
   XY=              0.8640   XZ=             -0.1441   YZ=              0.7057

 Normal termination of Gaussian 16 at Thu May  6 00:37:24 2021.
