 Gaussian 16, Revision A.03,
 Gaussian 16:  EM64L-G16RevA.03 25-Dec-2016

 -------------
 #p 6-31g* mp2
 -------------

 ------------------------------------------------------
 Input file generated by CHIRIPA (05-May-2021 14:51:11)
 ------------------------------------------------------
 Symbolic Z-matrix:
 Charge =  0 Multiplicity = 1

                         Standard orientation:
 ---------------------------------------------------------------------
 Center     Atomic      Atomic             Coordinates (Angstroms)
 Number     Number       Type             X           Y           Z
 ---------------------------------------------------------------------
      1          6           0       -3.464557   -0.371306    0.004982
      2          6           0       -3.599425    0.401413   -1.307535
      3          6           0       -5.006114    0.960763   -1.522360
      4          1           0       -4.193186   -1.193457    0.015600
      5          1           0       -3.728430    0.291022    0.841097
      6          1           0       -3.334042   -0.261773   -2.140824
      7          1           0       -2.870260    1.221704   -1.315111
      8          1           0       -5.277198    1.643758   -0.710799
      9          1           0       -5.743616    0.151852   -1.541203
     10          1           0       -5.080136    1.509409   -2.466483
     11          6           0       -2.063958   -0.936644    0.233987
     12          6           0       -1.929091   -1.709363    1.546504
     13          6           0       -0.522402   -2.268712    1.761330
     14          1           0       -1.800086   -1.598972   -0.602127
     15          1           0       -1.335330   -0.114493    0.223369
     16          1           0       -2.658256   -2.529654    1.554081
     17          1           0       -2.194474   -1.046177    2.379794
     18          1           0        0.215100   -1.459802    1.780173
     19          1           0       -0.251318   -2.951707    0.949768
     20          1           0       -0.448379   -2.817359    2.705452
     21          6           0        2.659933    1.145977    0.455391
     22          6           0        1.405022    2.005269    0.297906
     23          6           0        1.209984    2.984559    1.455811
     24          1           0        2.599818    0.590355    1.401233
     25          1           0        3.537778    1.802223    0.533633
     26          1           0        0.529954    1.347559    0.218595
     27          1           0        1.468042    2.558764   -0.647762
     28          1           0        2.064733    3.664224    1.533658
     29          1           0        1.121315    2.446138    2.404937
     30          1           0        0.307127    3.588742    1.322874
     31          6           0        2.868584    0.161974   -0.694360
     32          6           0        4.123494   -0.697319   -0.536876
     33          6           0        4.318532   -1.676610   -1.694780
     34          1           0        1.990737   -0.494273   -0.772603
     35          1           0        2.928697    0.717595   -1.640202
     36          1           0        4.060474   -1.250814    0.408792
     37          1           0        4.998562   -0.039610   -0.457565
     38          1           0        4.407200   -1.138188   -2.643907
     39          1           0        3.463782   -2.356274   -1.772627
     40          1           0        5.221390   -2.280793   -1.561844
 ---------------------------------------------------------------------

 SCF Done:  E(RHF) =  -470.733410657     A.U. after   11 cycles
 E2 =    -0.1583596445D+01 EUMP2 =    -0.47231700710161D+03

 The electronic state is 1-A.
 Alpha  occ. eigenvalues --  -11.21663 -11.21626 -11.21615 -11.21574 -11.21444
 Alpha  occ. eigenvalues --  -11.21407 -11.21383 -11.21333 -11.21162 -11.21116
 Alpha  occ. eigenvalues --  -11.21081 -11.21046  -1.08483  -1.08424  -1.03575
 Alpha  occ. eigenvalues --   -1.03534  -0.96028  -0.95980  -0.87043  -0.86998
 Alpha  occ. eigenvalues --   -0.79647  -0.79593  -0.78355  -0.78178  -0.65246
 Alpha  occ. eigenvalues --   -0.64942  -0.61043  -0.60861  -0.59394  -0.59350
 Alpha  occ. eigenvalues --   -0.57646  -0.57584  -0.55374  -0.55216  -0.52719
 Alpha  occ. eigenvalues --   -0.52680  -0.52472  -0.52387  -0.49994  -0.49916
 Alpha  occ. eigenvalues --   -0.48008  -0.47903  -0.46820  -0.46597  -0.46089
 Alpha  occ. eigenvalues --   -0.45771  -0.45750  -0.45254  -0.43826  -0.43785
 Alpha virt. eigenvalues --    0.19461   0.22929   0.24045   0.24663   0.25440
 Alpha virt. eigenvalues --    0.26297   0.26951   0.27671   0.28364   0.29737
 Alpha virt. eigenvalues --    0.31003   0.31611   0.31729   0.31913   0.32007

 Mulliken charges:
               1
     1  C   -0.297538
     2  C   -0.299971
     3  C   -0.475749
     4  H    0.149826
     5  H    0.149584
     6  H    0.152049
     7  H    0.152273
     8  H    0.155211
     9  H    0.155192
    10  H    0.160380
    11  C   -0.309151
    12  C   -0.299016
    13  C   -0.478253
    14  H    0.149537
    15  H    0.159384
    16  H    0.152414
    17  H    0.152100
    18  H    0.156275
    19  H    0.155248
    20  H    0.160802
    21  C   -0.298415
    22  C   -0.310401
    23  C   -0.475125
    24  H    0.149927
    25  H    0.149781
    26  H    0.160392
    27  H    0.152399
    28  H    0.155665
    29  H    0.154836
    30  H    0.159853
    31  C   -0.299888
    32  C   -0.299673
    33  C   -0.475687
    34  H    0.151630
    35  H    0.149504
    36  H    0.152382
    37  H    0.151705
    38  H    0.155013
    39  H    0.155332
    40  H    0.160174
 Sum of Mulliken charges =  -0.00000

 Dipole moment (field-independent basis, Debye):
    X=             -0.0152    Y=             -0.0073    Z=             -0.0040  Tot=              0.0173
 Quadrupole moment (field-independent basis, Debye-Ang):
   XX=            -85.4077   YY=            -84.3234   ZZ=            -84.9708
   XY=              1.2984   XZ=             -0.2257   YZ=             -0.4055

 Normal termination of Gaussian 16 at Wed May  5 21:29:27 2021.
