 Gaussian 16, Revision A.03,
 Gaussian 16:  EM64L-G16RevA.03 25-Dec-2016

 -------------
 #p 6-31g* mp2
 -------------

 ------------------------------------------------------
 Input file generated by CHIRIPA (05-May-2021 14:51:10)
 ------------------------------------------------------
 Symbolic Z-matrix:
 Charge =  0 Multiplicity = 1

                         Standard orientation:
 ---------------------------------------------------------------------
 Center     Atomic      Atomic             Coordinates (Angstroms)
 Number     Number       Type             X           Y           Z
 ---------------------------------------------------------------------
      1          6           0        2.396983   -0.638682    0.665622
      2          6           0        1.794497   -2.039490    0.552783
      3          6           0        0.629369   -2.261365    1.517689
      4          1           0        2.737126   -0.474767    1.697310
      5          1           0        1.612994    0.106695    0.472830
      6          1           0        2.579703   -2.782027    0.744369
      7          1           0        1.455923   -2.200160   -0.478802
      8          1           0       -0.173581   -1.542844    1.323786
      9          1           0        0.956584   -2.128017    2.553908
     10          1           0        0.213696   -3.269120    1.420193
     11          6           0        3.562807   -0.401633   -0.292705
     12          6           0        4.165293    0.999175   -0.179865
     13          6           0        5.330421    1.221050   -1.144771
     14          1           0        4.346796   -1.147010   -0.099912
     15          1           0        3.222664   -0.565548   -1.324393
     16          1           0        4.503867    1.159845    0.851720
     17          1           0        3.380087    1.741712   -0.371452
     18          1           0        5.003206    1.087702   -2.180990
     19          1           0        6.133371    0.502528   -0.950869
     20          1           0        5.746094    2.228805   -1.047275
     21          6           0       -2.469444    1.064370   -0.023041
     22          6           0       -3.107125    2.413869    0.308923
     23          6           0       -2.073130    3.492388    0.633646
     24          1           0       -1.852258    0.738987    0.825578
     25          1           0       -1.787741    1.188686   -0.875813
     26          1           0       -3.788472    2.286763    1.159937
     27          1           0       -3.723017    2.735984   -0.540509
     28          1           0       -1.399555    3.648338   -0.215223
     29          1           0       -1.465382    3.196564    1.494885
     30          1           0       -2.550729    4.448873    0.867944
     31          6           0       -3.490346   -0.024054   -0.349877
     32          6           0       -2.852665   -1.373553   -0.681840
     33          6           0       -3.886660   -2.452073   -1.006564
     34          1           0       -4.172049   -0.148371    0.502895
     35          1           0       -4.107532    0.301327   -1.198496
     36          1           0       -2.236773   -1.695670    0.167591
     37          1           0       -2.171317   -1.246448   -1.532854
     38          1           0       -4.494408   -2.156249   -1.867802
     39          1           0       -4.560235   -2.608023   -0.157695
     40          1           0       -3.409060   -3.408558   -1.240862
 ---------------------------------------------------------------------

 SCF Done:  E(RHF) =  -470.733191200     A.U. after   11 cycles
 E2 =    -0.1583147902D+01 EUMP2 =    -0.47231633910169D+03

 The electronic state is 1-A.
 Alpha  occ. eigenvalues --  -11.21640 -11.21583 -11.21580 -11.21571 -11.21453
 Alpha  occ. eigenvalues --  -11.21381 -11.21379 -11.21321 -11.21101 -11.21064
 Alpha  occ. eigenvalues --  -11.21059 -11.21048  -1.08465  -1.08405  -1.03556
 Alpha  occ. eigenvalues --   -1.03503  -0.96000  -0.95966  -0.87029  -0.86973
 Alpha  occ. eigenvalues --   -0.79650  -0.79546  -0.78309  -0.78191  -0.65146
 Alpha  occ. eigenvalues --   -0.64995  -0.61035  -0.60833  -0.59375  -0.59324
 Alpha  occ. eigenvalues --   -0.57618  -0.57566  -0.55296  -0.55260  -0.52697
 Alpha  occ. eigenvalues --   -0.52660  -0.52434  -0.52381  -0.50030  -0.49869
 Alpha  occ. eigenvalues --   -0.47971  -0.47858  -0.46796  -0.46534  -0.45927
 Alpha  occ. eigenvalues --   -0.45755  -0.45732  -0.45398  -0.43806  -0.43765
 Alpha virt. eigenvalues --    0.20898   0.23275   0.23729   0.24241   0.25600
 Alpha virt. eigenvalues --    0.26408   0.27326   0.27745   0.27901   0.29314
 Alpha virt. eigenvalues --    0.31165   0.31428   0.31756   0.31822   0.32015

 Mulliken charges:
               1
     1  C   -0.299480
     2  C   -0.299159
     3  C   -0.482419
     4  H    0.149327
     5  H    0.151029
     6  H    0.151783
     7  H    0.152427
     8  H    0.161704
     9  H    0.154802
    10  H    0.159908
    11  C   -0.298264
    12  C   -0.299695
    13  C   -0.475689
    14  H    0.149429
    15  H    0.149526
    16  H    0.151902
    17  H    0.152145
    18  H    0.155062
    19  H    0.155133
    20  H    0.160240
    21  C   -0.301623
    22  C   -0.299589
    23  C   -0.475876
    24  H    0.151676
    25  H    0.149112
    26  H    0.152264
    27  H    0.152267
    28  H    0.154904
    29  H    0.155521
    30  H    0.160504
    31  C   -0.297947
    32  C   -0.306760
    33  C   -0.475223
    34  H    0.149622
    35  H    0.149719
    36  H    0.160443
    37  H    0.150906
    38  H    0.154951
    39  H    0.155190
    40  H    0.160224
 Sum of Mulliken charges =  -0.00000

 Dipole moment (field-independent basis, Debye):
    X=             -0.0158    Y=              0.0054    Z=              0.0085  Tot=              0.0187
 Quadrupole moment (field-independent basis, Debye-Ang):
   XX=            -85.5102   YY=            -85.4900   ZZ=            -83.7920
   XY=             -1.0378   XZ=              0.7678   YZ=             -0.5214

 Normal termination of Gaussian 16 at Thu May  6 00:38:25 2021.
