 Gaussian 16, Revision A.03,
 Gaussian 16:  EM64L-G16RevA.03 25-Dec-2016

 -------------
 #p 6-31g* mp2
 -------------

 ------------------------------------------------------
 Input file generated by CHIRIPA (05-May-2021 14:53:13)
 ------------------------------------------------------
 Symbolic Z-matrix:
 Charge =  0 Multiplicity = 1

                         Standard orientation:
 ---------------------------------------------------------------------
 Center     Atomic      Atomic             Coordinates (Angstroms)
 Number     Number       Type             X           Y           Z
 ---------------------------------------------------------------------
      1          6           0       -3.691536   -0.521741   -0.269908
      2          6           0       -2.731785   -1.710633   -0.211607
      3          6           0       -3.456777   -3.056754   -0.223283
      4          1           0       -4.383062   -0.574782    0.582104
      5          1           0       -4.306626   -0.600124   -1.177055
      6          1           0       -2.117734   -1.629295    0.694451
      7          1           0       -2.042340   -1.654650   -1.063750
      8          1           0       -4.055906   -3.163751   -1.133337
      9          1           0       -4.131728   -3.138251    0.634854
     10          1           0       -2.751760   -3.892830   -0.180994
     11          6           0       -2.981719    0.830948   -0.258977
     12          6           0       -3.941471    2.019840   -0.317278
     13          6           0       -3.216478    3.365961   -0.305602
     14          1           0       -2.366629    0.909331    0.648170
     15          1           0       -2.290193    0.883989   -1.110989
     16          1           0       -4.630916    1.963857    0.534865
     17          1           0       -4.555522    1.938502   -1.223337
     18          1           0       -2.541527    3.447459   -1.163740
     19          1           0       -2.617350    3.472958    0.604452
     20          1           0       -3.921495    4.202037   -0.347891
     21          6           0        0.564572   -0.721781    1.560951
     22          6           0        0.838061   -1.399736    0.368430
     23          6           0        1.966692   -1.075103   -0.390090
     24          6           0        2.804169   -0.062681    0.075662
     25          6           0        2.558677    0.631026    1.259634
     26          6           0        1.424238    0.289653    2.001969
     27          1           0       -0.314430   -0.980467    2.143901
     28          1           0        0.172194   -2.185665    0.023492
     29          1           0        2.202232   -1.583852   -1.316973
     30          1           0        3.240990    1.409895    1.577801
     31          1           0        1.214339    0.817849    2.927710
     32          7           0        4.002074    0.289855   -0.718783
     33          8           0        4.724238    1.185668   -0.286770
     34          8           0        4.196147   -0.336317   -1.758437
 ---------------------------------------------------------------------

 SCF Done:  E(RHF) =  -669.533833600     A.U. after   15 cycles
 E2 =    -0.2093462731D+01 EUMP2 =    -0.67162729633192D+03

 The electronic state is 1-A.
 Alpha  occ. eigenvalues --  -20.60724 -20.60719 -15.85775 -11.31130 -11.27689
 Alpha  occ. eigenvalues --  -11.27665 -11.27421 -11.26726 -11.26624 -11.22753
 Alpha  occ. eigenvalues --  -11.22226 -11.22136 -11.22065 -11.22029 -11.21493
 Alpha  occ. eigenvalues --   -1.59799  -1.39353  -1.19295  -1.09245  -1.08691
 Alpha  occ. eigenvalues --   -1.04704  -1.04315  -0.96727  -0.95541  -0.87749
 Alpha  occ. eigenvalues --   -0.86109  -0.82369  -0.80467  -0.79028  -0.77395
 Alpha  occ. eigenvalues --   -0.71995  -0.71122  -0.70449  -0.65873  -0.64947
 Alpha  occ. eigenvalues --   -0.64725  -0.62084  -0.61716  -0.60094  -0.58340
 Alpha  occ. eigenvalues --   -0.55994  -0.55231  -0.53464  -0.53150  -0.53015
 Alpha  occ. eigenvalues --   -0.52784  -0.50668  -0.48822  -0.48752  -0.48616
 Alpha  occ. eigenvalues --   -0.47478  -0.46523  -0.46446  -0.44761  -0.44553
 Alpha  occ. eigenvalues --   -0.37235  -0.36275
 Alpha virt. eigenvalues --    0.05080   0.11309   0.16462   0.19995   0.22542
 Alpha virt. eigenvalues --    0.23624   0.24796   0.26046   0.26584   0.28307
 Alpha virt. eigenvalues --    0.29258   0.29788   0.30895   0.31576   0.31936

 Mulliken charges:
               1
     1  C   -0.298417
     2  C   -0.305004
     3  C   -0.476567
     4  H    0.150332
     5  H    0.153478
     6  H    0.142420
     7  H    0.153121
     8  H    0.160616
     9  H    0.157833
    10  H    0.157863
    11  C   -0.298654
    12  C   -0.300508
    13  C   -0.475706
    14  H    0.145570
    15  H    0.153636
    16  H    0.151481
    17  H    0.153789
    18  H    0.157975
    19  H    0.153816
    20  H    0.162024
    21  C   -0.172740
    22  C   -0.217144
    23  C   -0.173588
    24  C    0.158785
    25  C   -0.171180
    26  C   -0.218996
    27  H    0.225587
    28  H    0.230138
    29  H    0.275068
    30  H    0.275275
    31  H    0.222898
    32  N    0.488052
    33  O   -0.460590
    34  O   -0.460661
 Sum of Mulliken charges =  -0.00000

 Dipole moment (field-independent basis, Debye):
    X=             -4.3924    Y=             -1.1911    Z=              2.7006  Tot=              5.2920
 Quadrupole moment (field-independent basis, Debye-Ang):
   XX=           -118.6046   YY=            -93.5445   ZZ=            -91.3929
   XY=             -2.6565   XZ=              8.7412   YZ=              2.4977

 Normal termination of Gaussian 16 at Thu May  6 17:02:53 2021.
