 Gaussian 16, Revision A.03,
 Gaussian 16:  EM64L-G16RevA.03 25-Dec-2016

 -------------
 #p 6-31g* mp2
 -------------

 ------------------------------------------------------
 Input file generated by CHIRIPA (05-May-2021 14:55:22)
 ------------------------------------------------------
 Symbolic Z-matrix:
 Charge =  0 Multiplicity = 1

                         Standard orientation:
 ---------------------------------------------------------------------
 Center     Atomic      Atomic             Coordinates (Angstroms)
 Number     Number       Type             X           Y           Z
 ---------------------------------------------------------------------
      1          6           0        3.016695    1.325498   -1.901280
      2          6           0        2.053662    1.752486   -0.981079
      3          6           0        1.722893    0.957965    0.120682
      4          6           0        2.377737   -0.263319    0.272124
      5          6           0        3.341553   -0.716321   -0.627397
      6          6           0        3.656440    0.094628   -1.721818
      7          1           0        3.267476    1.949081   -2.754303
      8          1           0        1.555214    2.707928   -1.117921
      9          1           0        0.981158    1.264186    0.848333
     10          1           0        3.821423   -1.673686   -0.464322
     11          1           0        4.404744   -0.239528   -2.434858
     12          7           0        2.035973   -1.113138    1.434624
     13          8           0        2.627250   -2.184925    1.545532
     14          8           0        1.183294   -0.691347    2.212870
     15          6           0       -3.133546    0.919770   -0.152747
     16          6           0       -2.450594    1.620269    1.022354
     17          6           0       -2.494710    3.144381    0.908653
     18          1           0       -2.651229    1.233170   -1.088747
     19          1           0       -4.178642    1.253822   -0.212560
     20          1           0       -1.407478    1.283948    1.080776
     21          1           0       -2.934468    1.305018    1.955680
     22          1           0       -3.530150    3.498237    0.873264
     23          1           0       -1.994483    3.477049   -0.006611
     24          1           0       -2.000860    3.624863    1.759011
     25          6           0       -3.097657   -0.604229   -0.053409
     26          6           0       -3.780608   -1.304728   -1.228510
     27          6           0       -3.736492   -2.828840   -1.114809
     28          1           0       -2.052560   -0.938281    0.006404
     29          1           0       -3.579973   -0.917628    0.882592
     30          1           0       -3.296735   -0.989476   -2.161837
     31          1           0       -4.823724   -0.968407   -1.286933
     32          1           0       -4.236719   -3.161506   -0.199545
     33          1           0       -2.701052   -3.182696   -1.079420
     34          1           0       -4.230343   -3.309321   -1.965167
 ---------------------------------------------------------------------

 SCF Done:  E(RHF) =  -669.535589185     A.U. after   15 cycles
 E2 =    -0.2091766335D+01 EUMP2 =    -0.67162735552043D+03

 The electronic state is 1-A.
 Alpha  occ. eigenvalues --  -20.60832 -20.60827 -15.85877 -11.31245 -11.27811
 Alpha  occ. eigenvalues --  -11.27798 -11.27553 -11.26831 -11.26821 -11.21675
 Alpha  occ. eigenvalues --  -11.21456 -11.21400 -11.21350 -11.21168 -11.20850
 Alpha  occ. eigenvalues --   -1.59902  -1.39455  -1.19418  -1.08812  -1.08379
 Alpha  occ. eigenvalues --   -1.04821  -1.03519  -0.95968  -0.95646  -0.86982
 Alpha  occ. eigenvalues --   -0.86220  -0.82476  -0.79576  -0.78159  -0.77519
 Alpha  occ. eigenvalues --   -0.72094  -0.71223  -0.70533  -0.65081  -0.65064
 Alpha  occ. eigenvalues --   -0.64785  -0.62201  -0.60900  -0.59337  -0.57562
 Alpha  occ. eigenvalues --   -0.55342  -0.55246  -0.53149  -0.52927  -0.52671
 Alpha  occ. eigenvalues --   -0.52377  -0.49909  -0.48857  -0.48853  -0.47876
 Alpha  occ. eigenvalues --   -0.46612  -0.45702  -0.45626  -0.44836  -0.43751
 Alpha  occ. eigenvalues --   -0.37398  -0.36418
 Alpha virt. eigenvalues --    0.04977   0.11168   0.16493   0.20153   0.23034
 Alpha virt. eigenvalues --    0.24052   0.25934   0.26816   0.27542   0.28178
 Alpha virt. eigenvalues --    0.29109   0.30253   0.31481   0.31773   0.32149

 Mulliken charges:
               1
     1  C   -0.170696
     2  C   -0.220915
     3  C   -0.176677
     4  C    0.157379
     5  C   -0.170645
     6  C   -0.218523
     7  H    0.225881
     8  H    0.224283
     9  H    0.285030
    10  H    0.275775
    11  H    0.223705
    12  N    0.487507
    13  O   -0.459847
    14  O   -0.461172
    15  C   -0.297913
    16  C   -0.305507
    17  C   -0.476683
    18  H    0.144955
    19  H    0.149628
    20  H    0.153685
    21  H    0.158816
    22  H    0.158080
    23  H    0.147128
    24  H    0.160980
    25  C   -0.298548
    26  C   -0.299727
    27  C   -0.475698
    28  H    0.153569
    29  H    0.153177
    30  H    0.149260
    31  H    0.150872
    32  H    0.156955
    33  H    0.157147
    34  H    0.158740
 Sum of Mulliken charges =  -0.00000

 Dipole moment (field-independent basis, Debye):
    X=              1.1878    Y=              2.9020    Z=             -4.0114  Tot=              5.0916
 Quadrupole moment (field-independent basis, Debye-Ang):
   XX=            -86.2348   YY=            -95.7906   ZZ=            -96.8810
   XY=              4.2917   XZ=            -11.6405   YZ=              2.9782

 Normal termination of Gaussian 16 at Thu May  6 15:52:18 2021.
