 Gaussian 16, Revision A.03,
 Gaussian 16:  EM64L-G16RevA.03 25-Dec-2016

 -------------
 #p 6-31g* mp2
 -------------

 ------------------------------------------------------
 Input file generated by CHIRIPA (05-May-2021 14:55:23)
 ------------------------------------------------------
 Symbolic Z-matrix:
 Charge =  0 Multiplicity = 1

                         Standard orientation:
 ---------------------------------------------------------------------
 Center     Atomic      Atomic             Coordinates (Angstroms)
 Number     Number       Type             X           Y           Z
 ---------------------------------------------------------------------
      1          6           0        0.490071   -0.220099    1.340919
      2          6           0        0.682826    0.771417    0.373312
      3          6           0        1.913947    0.899374   -0.276699
      4          6           0        2.935127    0.014881    0.067038
      5          6           0        2.773984   -0.983237    1.026768
      6          6           0        1.534424   -1.092723    1.663990
      7          1           0       -0.469572   -0.312324    1.840896
      8          1           0       -0.126444    1.450502    0.120390
      9          1           0        2.090441    1.657930   -1.029601
     10          1           0        3.599549   -1.645491    1.257595
     11          1           0        1.387586   -1.863694    2.415047
     12          7           0        4.242927    0.140566   -0.614330
     13          8           0        5.126678   -0.651077   -0.293516
     14          8           0        4.359466    1.028341   -1.456298
     15          6           0       -3.871650   -0.644244   -0.307982
     16          6           0       -2.978311   -1.860941   -0.552068
     17          6           0       -3.774259   -3.157199   -0.706924
     18          1           0       -4.475258   -0.815517    0.593831
     19          1           0       -4.578795   -0.543865   -1.143007
     20          1           0       -2.272146   -1.958186    0.282492
     21          1           0       -2.376620   -1.686672   -1.453298
     22          1           0       -4.467428   -3.085100   -1.551269
     23          1           0       -4.362360   -3.358158    0.194383
     24          1           0       -3.116017   -4.014179   -0.880592
     25          6           0       -3.090489    0.659178   -0.151117
     26          6           0       -3.983828    1.875875    0.092970
     27          6           0       -3.187881    3.172131    0.247825
     28          1           0       -2.383344    0.558798    0.683908
     29          1           0       -2.486881    0.830450   -1.052930
     30          1           0       -4.585519    1.701605    0.994199
     31          1           0       -4.689993    1.973119   -0.741590
     32          1           0       -2.599779    3.373090   -0.653482
     33          1           0       -2.494711    3.100033    1.092170
     34          1           0       -3.846123    4.029112    0.421494
 ---------------------------------------------------------------------

 SCF Done:  E(RHF) =  -669.534538276     A.U. after   15 cycles
 E2 =    -0.2093304284D+01 EUMP2 =    -0.67162784255992D+03

 The electronic state is 1-A.
 Alpha  occ. eigenvalues --  -20.60700 -20.60695 -15.85751 -11.31099 -11.27662
 Alpha  occ. eigenvalues --  -11.27637 -11.27383 -11.26691 -11.26587 -11.22659
 Alpha  occ. eigenvalues --  -11.22598 -11.22436 -11.22320 -11.22149 -11.21737
 Alpha  occ. eigenvalues --   -1.59776  -1.39330  -1.19263  -1.09477  -1.08660
 Alpha  occ. eigenvalues --   -1.04661  -1.04465  -0.96937  -0.95508  -0.87947
 Alpha  occ. eigenvalues --   -0.86069  -0.82338  -0.80545  -0.79337  -0.77369
 Alpha  occ. eigenvalues --   -0.71971  -0.71098  -0.70418  -0.66107  -0.64911
 Alpha  occ. eigenvalues --   -0.64661  -0.62032  -0.61849  -0.60291  -0.58541
 Alpha  occ. eigenvalues --   -0.56255  -0.55176  -0.53578  -0.53375  -0.52985
 Alpha  occ. eigenvalues --   -0.52752  -0.50876  -0.48871  -0.48728  -0.48693
 Alpha  occ. eigenvalues --   -0.47587  -0.46772  -0.46729  -0.44748  -0.44740
 Alpha  occ. eigenvalues --   -0.37221  -0.36253
 Alpha virt. eigenvalues --    0.05115   0.11343   0.16512   0.19461   0.22243
 Alpha virt. eigenvalues --    0.23045   0.24737   0.25934   0.26513   0.28366
 Alpha virt. eigenvalues --    0.30146   0.30268   0.30913   0.31367   0.31562

 Mulliken charges:
               1
     1  C   -0.173381
     2  C   -0.222019
     3  C   -0.172814
     4  C    0.158759
     5  C   -0.171331
     6  C   -0.218851
     7  H    0.226436
     8  H    0.231905
     9  H    0.275239
    10  H    0.275134
    11  H    0.222827
    12  N    0.488045
    13  O   -0.460727
    14  O   -0.460660
    15  C   -0.298892
    16  C   -0.300291
    17  C   -0.476525
    18  H    0.150626
    19  H    0.154068
    20  H    0.146110
    21  H    0.156330
    22  H    0.157757
    23  H    0.155164
    24  H    0.163028
    25  C   -0.304338
    26  C   -0.299028
    27  C   -0.479920
    28  H    0.140241
    29  H    0.151880
    30  H    0.154391
    31  H    0.156926
    32  H    0.155031
    33  H    0.151905
    34  H    0.166973
 Sum of Mulliken charges =  -0.00000

 Dipole moment (field-independent basis, Debye):
    X=             -4.8744    Y=             -0.4426    Z=              2.2916  Tot=              5.4043
 Quadrupole moment (field-independent basis, Debye-Ang):
   XX=           -121.1643   YY=            -92.7408   ZZ=            -92.5572
   XY=             -3.5344   XZ=              8.1419   YZ=             -2.6176

 Normal termination of Gaussian 16 at Thu May  6 09:27:20 2021.
