 Gaussian 16, Revision A.03,
 Gaussian 16:  EM64L-G16RevA.03 25-Dec-2016

 -------------
 #p 6-31g* mp2
 -------------

 ------------------------------------------------------
 Input file generated by CHIRIPA (05-May-2021 14:53:14)
 ------------------------------------------------------
 Symbolic Z-matrix:
 Charge =  0 Multiplicity = 1

                         Standard orientation:
 ---------------------------------------------------------------------
 Center     Atomic      Atomic             Coordinates (Angstroms)
 Number     Number       Type             X           Y           Z
 ---------------------------------------------------------------------
      1          6           0        2.931606   -0.177767    0.228411
      2          6           0        3.225620   -1.250773   -0.820492
      3          6           0        3.314981   -2.654556   -0.221159
      4          1           0        3.716279   -0.200598    0.996989
      5          1           0        1.988539   -0.420944    0.737218
      6          1           0        4.167149   -1.004903   -1.328122
      7          1           0        2.440259   -1.225257   -1.586764
      8          1           0        2.374075   -2.924765    0.269029
      9          1           0        4.110777   -2.703160    0.529140
     10          1           0        3.525787   -3.406001   -0.988460
     11          6           0        2.839294    1.230915   -0.355388
     12          6           0        2.545279    2.303921    0.693515
     13          6           0        2.455918    3.707705    0.094182
     14          1           0        3.782361    1.474093   -0.864195
     15          1           0        2.054620    1.253746   -1.123966
     16          1           0        3.330641    2.278405    1.459787
     17          1           0        1.603751    2.058051    1.201145
     18          1           0        1.660123    3.756308   -0.656117
     19          1           0        3.396825    3.977913   -0.396006
     20          1           0        2.245112    4.459149    0.861483
     21          6           0       -0.629510   -2.240424    0.666641
     22          6           0       -0.886932   -1.957359   -0.678769
     23          6           0       -1.785264   -0.946141   -1.032298
     24          6           0       -2.411332   -0.234562   -0.010053
     25          6           0       -2.175788   -0.492929    1.339412
     26          6           0       -1.273624   -1.508595    1.669669
     27          1           0        0.069825   -3.027691    0.932233
     28          1           0       -0.388155   -2.524083   -1.459852
     29          1           0       -2.003022   -0.706129   -2.065929
     30          1           0       -2.688275    0.089121    2.095713
     31          1           0       -1.075643   -1.726239    2.715365
     32          7           0       -3.364386    0.838325   -0.372000
     33          8           0       -3.903050    1.450779    0.547444
     34          8           0       -3.554677    1.046483   -1.568285
 ---------------------------------------------------------------------

 SCF Done:  E(RHF) =  -669.535388355     A.U. after   15 cycles
 E2 =    -0.2093229072D+01 EUMP2 =    -0.67162861742708D+03

 The electronic state is 1-A.
 Alpha  occ. eigenvalues --  -20.60851 -20.60846 -15.85906 -11.31304 -11.27875
 Alpha  occ. eigenvalues --  -11.27872 -11.27615 -11.26900 -11.26890 -11.22253
 Alpha  occ. eigenvalues --  -11.22009 -11.21774 -11.21754 -11.21618 -11.21094
 Alpha  occ. eigenvalues --   -1.59927  -1.39479  -1.19485  -1.08905  -1.08783
 Alpha  occ. eigenvalues --   -1.04886  -1.03953  -0.96407  -0.95702  -0.87427
 Alpha  occ. eigenvalues --   -0.86279  -0.82532  -0.80031  -0.78587  -0.77567
 Alpha  occ. eigenvalues --   -0.72123  -0.71251  -0.70619  -0.65482  -0.65130
 Alpha  occ. eigenvalues --   -0.64861  -0.62233  -0.61350  -0.59805  -0.58008
 Alpha  occ. eigenvalues --   -0.55849  -0.55268  -0.53218  -0.53106  -0.52970
 Alpha  occ. eigenvalues --   -0.52822  -0.50351  -0.48885  -0.48876  -0.48337
 Alpha  occ. eigenvalues --   -0.47054  -0.46135  -0.46026  -0.44877  -0.44171
 Alpha  occ. eigenvalues --   -0.37413  -0.36483
 Alpha virt. eigenvalues --    0.04928   0.11081   0.16306   0.19825   0.22844
 Alpha virt. eigenvalues --    0.24117   0.25665   0.26096   0.26983   0.27828
 Alpha virt. eigenvalues --    0.28851   0.29985   0.31137   0.31657   0.32192

 Mulliken charges:
               1
     1  C   -0.302278
     2  C   -0.299170
     3  C   -0.477877
     4  H    0.148864
     5  H    0.152505
     6  H    0.155287
     7  H    0.148834
     8  H    0.142991
     9  H    0.159468
    10  H    0.161323
    11  C   -0.298263
    12  C   -0.300151
    13  C   -0.476271
    14  H    0.149713
    15  H    0.151085
    16  H    0.150858
    17  H    0.152637
    18  H    0.158302
    19  H    0.154722
    20  H    0.161655
    21  C   -0.171885
    22  C   -0.218905
    23  C   -0.171655
    24  C    0.158645
    25  C   -0.170911
    26  C   -0.219772
    27  H    0.229921
    28  H    0.225490
    29  H    0.276085
    30  H    0.276183
    31  H    0.224680
    32  N    0.488020
    33  O   -0.459991
    34  O   -0.460139
 Sum of Mulliken charges =  -0.00000

 Dipole moment (field-independent basis, Debye):
    X=              3.3236    Y=             -3.6980    Z=              1.2744  Tot=              5.1328
 Quadrupole moment (field-independent basis, Debye-Ang):
   XX=           -110.5312   YY=            -94.6193   ZZ=            -90.1339
   XY=              8.5748   XZ=             -3.9700   YZ=              1.0399

 Normal termination of Gaussian 16 at Thu May  6 08:59:01 2021.
