 Gaussian 16, Revision A.03,
 Gaussian 16:  EM64L-G16RevA.03 25-Dec-2016

 -------------
 #p 6-31g* mp2
 -------------

 ------------------------------------------------------
 Input file generated by CHIRIPA (05-May-2021 14:57:23)
 ------------------------------------------------------
 Symbolic Z-matrix:
 Charge =  0 Multiplicity = 1

                         Standard orientation:
 ---------------------------------------------------------------------
 Center     Atomic      Atomic             Coordinates (Angstroms)
 Number     Number       Type             X           Y           Z
 ---------------------------------------------------------------------
      1          6           0        5.018284    1.266393   -1.378910
      2          6           0        4.898147   -0.125915   -1.438630
      3          6           0        4.023277   -0.800475   -0.581822
      4          6           0        3.280427   -0.047949    0.326565
      5          6           0        3.377929    1.340135    0.410260
      6          6           0        4.259130    1.993692   -0.456282
      7          1           0        5.700364    1.782250   -2.048280
      8          1           0        5.486466   -0.693326   -2.154151
      9          1           0        3.910687   -1.877565   -0.606708
     10          1           0        2.778293    1.878568    1.134100
     11          1           0        4.350378    3.075060   -0.407665
     12          7           0        2.350890   -0.750958    1.238782
     13          8           0        1.707557   -0.065026    2.030145
     14          8           0        2.283252   -1.974598    1.145140
     15          6           0       -5.462961    1.424105   -0.029275
     16          6           0       -4.277307    1.789390    0.616720
     17          6           0       -3.146712    0.970405    0.542105
     18          6           0       -3.237437   -0.212158   -0.190427
     19          6           0       -4.404329   -0.603496   -0.845033
     20          6           0       -5.522583    0.230931   -0.756807
     21          1           0       -6.336442    2.066311    0.033974
     22          1           0       -4.228106    2.715449    1.182440
     23          1           0       -2.216105    1.229023    1.032520
     24          1           0       -4.422848   -1.532704   -1.401493
     25          1           0       -6.442047   -0.055287   -1.259511
     26          7           0       -2.047059   -1.087355   -0.276623
     27          8           0       -2.152760   -2.124074   -0.928298
     28          8           0       -1.030880   -0.720045    0.309124
 ---------------------------------------------------------------------

 SCF Done:  E(RHF) =  -868.336335579     A.U. after   16 cycles
 E2 =    -0.2600516266D+01 EUMP2 =    -0.87093685184461D+03

 The electronic state is 1-A.
 Alpha  occ. eigenvalues --  -20.60026 -20.59963 -20.59489 -20.59462 -15.85052
 Alpha  occ. eigenvalues --  -15.84552 -11.30640 -11.30299 -11.27259 -11.27205
 Alpha  occ. eigenvalues --  -11.27048 -11.26950 -11.26889 -11.26756 -11.26324
 Alpha  occ. eigenvalues --  -11.26301 -11.26061 -11.26016  -1.59073  -1.58504
 Alpha  occ. eigenvalues --   -1.38618  -1.38070  -1.18841  -1.18509  -1.08201
 Alpha  occ. eigenvalues --   -1.07832  -1.04276  -1.03982  -0.94994  -0.94607
 Alpha  occ. eigenvalues --   -0.85664  -0.85362  -0.81822  -0.81455  -0.76826
 Alpha  occ. eigenvalues --   -0.76427  -0.71345  -0.70788  -0.70412  -0.69965
 Alpha  occ. eigenvalues --   -0.69697  -0.69637  -0.64486  -0.64285  -0.64167
 Alpha  occ. eigenvalues --   -0.64003  -0.61614  -0.61334  -0.54783  -0.54486
 Alpha  occ. eigenvalues --   -0.52599  -0.52372  -0.52276  -0.52092  -0.48070
 Alpha  occ. eigenvalues --   -0.48007  -0.47526  -0.47500  -0.43975  -0.43381
 Alpha  occ. eigenvalues --   -0.36846  -0.36507  -0.35892  -0.35603
 Alpha virt. eigenvalues --    0.05697   0.06164   0.11759   0.12049   0.17149
 Alpha virt. eigenvalues --    0.17569   0.21857   0.22087   0.27754   0.27956
 Alpha virt. eigenvalues --    0.28767   0.29035   0.31369   0.31605   0.33042

 Mulliken charges:
               1
     1  C   -0.172338
     2  C   -0.218644
     3  C   -0.169920
     4  C    0.163253
     5  C   -0.171077
     6  C   -0.218784
     7  H    0.221992
     8  H    0.221079
     9  H    0.276767
    10  H    0.271736
    11  H    0.219086
    12  N    0.494784
    13  O   -0.462447
    14  O   -0.455187
    15  C   -0.171581
    16  C   -0.218946
    17  C   -0.171899
    18  C    0.158132
    19  C   -0.171436
    20  C   -0.218804
    21  H    0.223443
    22  H    0.221766
    23  H    0.280449
    24  H    0.274680
    25  H    0.221488
    26  N    0.488530
    27  O   -0.463378
    28  O   -0.452743
 Sum of Mulliken charges =  -0.00000

 Dipole moment (field-independent basis, Debye):
    X=             -0.9527    Y=              5.3576    Z=             -2.7811  Tot=              6.1111
 Quadrupole moment (field-independent basis, Debye-Ang):
   XX=            -57.6580   YY=           -101.2511   ZZ=           -106.0731
   XY=             -1.0726   XZ=             -8.7811   YZ=              4.4483

 Normal termination of Gaussian 16 at Thu May  6 05:00:32 2021.
