 Gaussian 16, Revision A.03,
 Gaussian 16:  EM64L-G16RevA.03 25-Dec-2016

 -------------
 #p 6-31g* mp2
 -------------

 ------------------------------------------------------
 Input file generated by CHIRIPA (05-May-2021 14:51:13)
 ------------------------------------------------------
 Symbolic Z-matrix:
 Charge =  0 Multiplicity = 1

                         Standard orientation:
 ---------------------------------------------------------------------
 Center     Atomic      Atomic             Coordinates (Angstroms)
 Number     Number       Type             X           Y           Z
 ---------------------------------------------------------------------
      1          6           0        3.450501   -0.680035   -0.451773
      2          6           0        4.467148   -1.416074    0.421532
      3          6           0        4.634801   -2.883169    0.024895
      4          1           0        2.480895   -1.192325   -0.385676
      5          1           0        3.766317   -0.743017   -1.502339
      6          1           0        4.150235   -1.350539    1.470287
      7          1           0        5.434398   -0.901862    0.353499
      8          1           0        4.974013   -2.965351   -1.012786
      9          1           0        3.682554   -3.416577    0.110348
     10          1           0        5.366077   -3.390259    0.662042
     11          6           0        3.271871    0.787671   -0.067512
     12          6           0        2.255224    1.523710   -0.940816
     13          6           0        2.087571    2.990805   -0.544180
     14          1           0        2.956055    0.850653    0.983054
     15          1           0        4.241477    1.299961   -0.133608
     16          1           0        1.287974    1.009498   -0.872783
     17          1           0        2.572136    1.458175   -1.989572
     18          1           0        3.039818    3.524213   -0.629632
     19          1           0        1.748359    3.072987    0.493501
     20          1           0        1.356295    3.497895   -1.181327
     21          6           0       -3.787978   -0.631286   -0.000764
     22          6           0       -5.248276   -0.246196   -0.239970
     23          6           0       -6.089366   -1.411988   -0.760825
     24          1           0       -3.356060   -1.006674   -0.938568
     25          1           0       -3.748070   -1.462684    0.716578
     26          1           0       -5.285349    0.585143   -0.955593
     27          1           0       -5.676713    0.128499    0.698465
     28          1           0       -6.082166   -2.241596   -0.046471
     29          1           0       -5.688579   -1.782357   -1.709928
     30          1           0       -7.129795   -1.114582   -0.924892
     31          6           0       -2.934394    0.523649    0.520049
     32          6           0       -1.474095    0.138560    0.759255
     33          6           0       -0.633006    1.304353    1.280109
     34          1           0       -2.974302    1.355047   -0.197293
     35          1           0       -3.366312    0.899038    1.457853
     36          1           0       -1.045659   -0.236135   -0.179181
     37          1           0       -1.437022   -0.692779    1.474878
     38          1           0       -1.033793    1.674722    2.229213
     39          1           0       -0.640205    2.133960    0.565757
     40          1           0        0.407423    1.006946    1.444177
 ---------------------------------------------------------------------

 SCF Done:  E(RHF) =  -470.731614805     A.U. after   11 cycles
 E2 =    -0.1584625144D+01 EUMP2 =    -0.47231623994877D+03

 The electronic state is 1-A.
 Alpha  occ. eigenvalues --  -11.21667 -11.21624 -11.21595 -11.21492 -11.21443
 Alpha  occ. eigenvalues --  -11.21392 -11.21382 -11.21333 -11.21088 -11.21064
 Alpha  occ. eigenvalues --  -11.21056 -11.20956  -1.08495  -1.08388  -1.03651
 Alpha  occ. eigenvalues --   -1.03421  -0.96088  -0.95883  -0.87056  -0.86952
 Alpha  occ. eigenvalues --   -0.79656  -0.79546  -0.78296  -0.78211  -0.65288
 Alpha  occ. eigenvalues --   -0.64956  -0.61375  -0.60670  -0.59332  -0.59239
 Alpha  occ. eigenvalues --   -0.57612  -0.57558  -0.55582  -0.54943  -0.52684
 Alpha  occ. eigenvalues --   -0.52635  -0.52447  -0.52358  -0.50044  -0.49767
 Alpha  occ. eigenvalues --   -0.47937  -0.47853  -0.46718  -0.46531  -0.45870
 Alpha  occ. eigenvalues --   -0.45765  -0.45739  -0.45619  -0.43797  -0.43747
 Alpha virt. eigenvalues --    0.20572   0.23030   0.23822   0.24848   0.26012
 Alpha virt. eigenvalues --    0.26096   0.26760   0.27417   0.28257   0.29468
 Alpha virt. eigenvalues --    0.30361   0.31106   0.31612   0.31985   0.32276

 Mulliken charges:
               1
     1  C   -0.298699
     2  C   -0.299582
     3  C   -0.475731
     4  H    0.149774
     5  H    0.149681
     6  H    0.151765
     7  H    0.152006
     8  H    0.155158
     9  H    0.155257
    10  H    0.160222
    11  C   -0.301001
    12  C   -0.306327
    13  C   -0.477742
    14  H    0.149937
    15  H    0.150265
    16  H    0.159990
    17  H    0.151973
    18  H    0.154583
    19  H    0.159713
    20  H    0.158178
    21  C   -0.298375
    22  C   -0.299688
    23  C   -0.475737
    24  H    0.149740
    25  H    0.149554
    26  H    0.152018
    27  H    0.151998
    28  H    0.155200
    29  H    0.155248
    30  H    0.160349
    31  C   -0.298360
    32  C   -0.303343
    33  C   -0.483525
    34  H    0.149828
    35  H    0.150000
    36  H    0.153204
    37  H    0.151967
    38  H    0.155747
    39  H    0.160477
    40  H    0.164275
 Sum of Mulliken charges =  -0.00000

 Dipole moment (field-independent basis, Debye):
    X=             -0.0319    Y=              0.0082    Z=              0.0122  Tot=              0.0352
 Quadrupole moment (field-independent basis, Debye-Ang):
   XX=            -84.8383   YY=            -86.3945   ZZ=            -83.6591
   XY=             -0.0951   XZ=             -0.8976   YZ=             -0.8291

 Normal termination of Gaussian 16 at Wed May  5 23:14:18 2021.
