 Gaussian 16, Revision A.03,
 Gaussian 16:  EM64L-G16RevA.03 25-Dec-2016

 -------------
 #p 6-31g* mp2
 -------------

 ------------------------------------------------------
 Input file generated by CHIRIPA (05-May-2021 14:57:24)
 ------------------------------------------------------
 Symbolic Z-matrix:
 Charge =  0 Multiplicity = 1

                         Standard orientation:
 ---------------------------------------------------------------------
 Center     Atomic      Atomic             Coordinates (Angstroms)
 Number     Number       Type             X           Y           Z
 ---------------------------------------------------------------------
      1          6           0        6.797555    0.793732   -0.514250
      2          6           0        6.635949   -0.432980    0.138118
      3          6           0        5.357672   -0.928888    0.411304
      4          6           0        4.258087   -0.168512    0.016294
      5          6           0        4.386478    1.057162   -0.635264
      6          6           0        5.674284    1.533583   -0.898182
      7          1           0        7.794253    1.171396   -0.722479
      8          1           0        7.506487   -1.009707    0.437439
      9          1           0        5.203777   -1.875504    0.914944
     10          1           0        3.499622    1.609421   -0.921471
     11          1           0        5.796773    2.486585   -1.404966
     12          7           0        2.899788   -0.683193    0.300069
     13          8           0        1.947145    0.005823   -0.058212
     14          8           0        2.813517   -1.765870    0.875399
     15          6           0       -2.060145    0.304808    0.702697
     16          6           0       -2.434422   -0.629092   -0.269037
     17          6           0       -3.773360   -0.760258   -0.649286
     18          6           0       -4.716082    0.062309   -0.034513
     19          6           0       -4.374510    1.002139    0.936744
     20          6           0       -3.029673    1.116012    1.301431
     21          1           0       -1.017735    0.399984    0.992039
     22          1           0       -1.683624   -1.260411   -0.735710
     23          1           0       -4.090759   -1.474991   -1.398843
     24          1           0       -5.145595    1.617489    1.384168
     25          1           0       -2.741901    1.842156    2.056379
     26          7           0       -6.136678   -0.067396   -0.428828
     27          8           0       -6.948093    0.669089    0.127797
     28          8           0       -6.411827   -0.903090   -1.287050
 ---------------------------------------------------------------------

 SCF Done:  E(RHF) =  -868.340841299     A.U. after   16 cycles
 E2 =    -0.2597945072D+01 EUMP2 =    -0.87093878637078D+03

 The electronic state is 1-A.
 Alpha  occ. eigenvalues --  -20.61948 -20.61918 -20.59975 -20.59969 -15.86948
 Alpha  occ. eigenvalues --  -15.85022 -11.31991 -11.30157 -11.28525 -11.28508
 Alpha  occ. eigenvalues --  -11.28195 -11.27458 -11.27446 -11.26750 -11.26685
 Alpha  occ. eigenvalues --  -11.26170 -11.25652 -11.25503  -1.60993  -1.59057
 Alpha  occ. eigenvalues --   -1.40554  -1.38617  -1.20131  -1.18290  -1.09586
 Alpha  occ. eigenvalues --   -1.07678  -1.05484  -1.03669  -0.96476  -0.94558
 Alpha  occ. eigenvalues --   -0.86896  -0.85044  -0.83320  -0.81417  -0.78401
 Alpha  occ. eigenvalues --   -0.76537  -0.73191  -0.72286  -0.71243  -0.71231
 Alpha  occ. eigenvalues --   -0.70379  -0.69262  -0.65786  -0.65480  -0.63915
 Alpha  occ. eigenvalues --   -0.63634  -0.62833  -0.61029  -0.55993  -0.53994
 Alpha  occ. eigenvalues --   -0.53829  -0.53567  -0.52007  -0.51732  -0.49955
 Alpha  occ. eigenvalues --   -0.49909  -0.48013  -0.47976  -0.46026  -0.44075
 Alpha  occ. eigenvalues --   -0.38090  -0.37072  -0.36191  -0.35300
 Alpha virt. eigenvalues --    0.04099   0.06001   0.10588   0.12376   0.15659
 Alpha virt. eigenvalues --    0.17579   0.20765   0.22724   0.26704   0.27619
 Alpha virt. eigenvalues --    0.28449   0.29665   0.30398   0.31814   0.32467

 Mulliken charges:
               1
     1  C   -0.169576
     2  C   -0.218558
     3  C   -0.170245
     4  C    0.157307
     5  C   -0.170718
     6  C   -0.218511
     7  H    0.228371
     8  H    0.225961
     9  H    0.276676
    10  H    0.275077
    11  H    0.225761
    12  N    0.490335
    13  O   -0.471645
    14  O   -0.457134
    15  C   -0.175864
    16  C   -0.221076
    17  C   -0.172860
    18  C    0.156910
    19  C   -0.172295
    20  C   -0.220554
    21  H    0.246343
    22  H    0.231197
    23  H    0.272327
    24  H    0.271534
    25  H    0.219651
    26  N    0.488326
    27  O   -0.463740
    28  O   -0.463000
 Sum of Mulliken charges =  -0.00000

 Dipole moment (field-independent basis, Debye):
    X=             10.5263    Y=              2.2094    Z=              0.3918  Tot=             10.7628
 Quadrupole moment (field-independent basis, Debye-Ang):
   XX=           -111.6309   YY=           -100.0779   ZZ=           -103.1901
   XY=              2.5253   XZ=            -10.9759   YZ=              0.7735

 Normal termination of Gaussian 16 at Thu May  6 09:46:44 2021.
