 Gaussian 16, Revision A.03,
 Gaussian 16:  EM64L-G16RevA.03 25-Dec-2016

 -------------
 #p 6-31g* mp2
 -------------

 ------------------------------------------------------
 Input file generated by CHIRIPA (05-May-2021 14:51:11)
 ------------------------------------------------------
 Symbolic Z-matrix:
 Charge =  0 Multiplicity = 1

                         Standard orientation:
 ---------------------------------------------------------------------
 Center     Atomic      Atomic             Coordinates (Angstroms)
 Number     Number       Type             X           Y           Z
 ---------------------------------------------------------------------
      1          6           0        3.454341    0.147676   -0.301282
      2          6           0        4.526446   -0.476712    0.592428
      3          6           0        5.219299   -1.672067   -0.062457
      4          1           0        2.707389   -0.616693   -0.555738
      5          1           0        3.914175    0.462793   -1.248197
      6          1           0        4.064998   -0.789303    1.537927
      7          1           0        5.270831    0.289280    0.844943
      8          1           0        5.705536   -1.371454   -0.996163
      9          1           0        4.492852   -2.456164   -0.299242
     10          1           0        5.981897   -2.103052    0.593710
     11          6           0        2.752726    1.343818    0.339582
     12          6           0        1.680621    1.968206   -0.554127
     13          6           0        0.987768    3.163561    0.100758
     14          1           0        2.292893    1.028701    1.286498
     15          1           0        3.499679    2.108186    0.594039
     16          1           0        0.936237    1.202214   -0.806643
     17          1           0        2.142070    2.280797   -1.499626
     18          1           0        1.714216    3.947658    0.337542
     19          1           0        0.501532    2.862947    1.034463
     20          1           0        0.225170    3.594546   -0.555410
     21          6           0       -2.632296   -1.296496    0.221769
     22          6           0       -1.303407   -1.330924   -0.533781
     23          6           0       -0.371393   -2.438055   -0.040419
     24          1           0       -2.433919   -1.160170    1.293686
     25          1           0       -3.130714   -2.270201    0.117493
     26          1           0       -0.808289   -0.356989   -0.429265
     27          1           0       -1.504979   -1.466993   -1.604048
     28          1           0       -0.841771   -3.419392   -0.160106
     29          1           0       -0.141122   -2.303081    1.021352
     30          1           0        0.572641   -2.444530   -0.594148
     31          6           0       -3.574772   -0.194997   -0.260069
     32          6           0       -4.903660   -0.160569    0.495480
     33          6           0       -5.835674    0.946560    0.002118
     34          1           0       -3.076354    0.778707   -0.155793
     35          1           0       -3.773149   -0.331323   -1.331986
     36          1           0       -4.702088   -0.024502    1.565747
     37          1           0       -5.398778   -1.134504    0.390964
     38          1           0       -6.065944    0.811587   -1.059653
     39          1           0       -5.365296    1.927897    0.121806
     40          1           0       -6.779710    0.953037    0.555847
 ---------------------------------------------------------------------

 SCF Done:  E(RHF) =  -470.733296843     A.U. after   11 cycles
 E2 =    -0.1583389791D+01 EUMP2 =    -0.47231668663367D+03

 The electronic state is 1-A.
 Alpha  occ. eigenvalues --  -11.21659 -11.21622 -11.21590 -11.21588 -11.21444
 Alpha  occ. eigenvalues --  -11.21400 -11.21381 -11.21339 -11.21164 -11.21101
 Alpha  occ. eigenvalues --  -11.21082 -11.21059  -1.08480  -1.08421  -1.03584
 Alpha  occ. eigenvalues --   -1.03525  -0.96028  -0.95979  -0.87048  -0.86991
 Alpha  occ. eigenvalues --   -0.79696  -0.79545  -0.78319  -0.78208  -0.65223
 Alpha  occ. eigenvalues --   -0.64963  -0.61090  -0.60822  -0.59403  -0.59342
 Alpha  occ. eigenvalues --   -0.57644  -0.57586  -0.55324  -0.55260  -0.52734
 Alpha  occ. eigenvalues --   -0.52672  -0.52471  -0.52385  -0.50028  -0.49880
 Alpha  occ. eigenvalues --   -0.48099  -0.47819  -0.46895  -0.46450  -0.45935
 Alpha  occ. eigenvalues --   -0.45795  -0.45743  -0.45437  -0.43823  -0.43782
 Alpha virt. eigenvalues --    0.19973   0.22955   0.23675   0.24436   0.25899
 Alpha virt. eigenvalues --    0.26778   0.27180   0.27279   0.28305   0.29410
 Alpha virt. eigenvalues --    0.29961   0.31535   0.31679   0.31807   0.32420

 Mulliken charges:
               1
     1  C   -0.302241
     2  C   -0.299414
     3  C   -0.475779
     4  H    0.153417
     5  H    0.149450
     6  H    0.152073
     7  H    0.151854
     8  H    0.155081
     9  H    0.155202
    10  H    0.160281
    11  C   -0.297511
    12  C   -0.308380
    13  C   -0.475644
    14  H    0.149110
    15  H    0.149716
    16  H    0.159740
    17  H    0.152318
    18  H    0.155593
    19  H    0.154387
    20  H    0.160243
    21  C   -0.297513
    22  C   -0.308348
    23  C   -0.477972
    24  H    0.149472
    25  H    0.149763
    26  H    0.159520
    27  H    0.152426
    28  H    0.155934
    29  H    0.155004
    30  H    0.161783
    31  C   -0.298577
    32  C   -0.299673
    33  C   -0.475780
    34  H    0.149856
    35  H    0.149771
    36  H    0.151961
    37  H    0.151962
    38  H    0.155203
    39  H    0.155388
    40  H    0.160323
 Sum of Mulliken charges =  -0.00000

 Dipole moment (field-independent basis, Debye):
    X=             -0.0186    Y=             -0.0090    Z=             -0.0084  Tot=              0.0223
 Quadrupole moment (field-independent basis, Debye-Ang):
   XX=            -85.0808   YY=            -85.3124   ZZ=            -84.3306
   XY=              1.8265   XZ=              0.0118   YZ=              0.0778

 Normal termination of Gaussian 16 at Thu May  6 05:28:59 2021.
