 Gaussian 16, Revision A.03,
 Gaussian 16:  EM64L-G16RevA.03 25-Dec-2016

 -------------
 #p 6-31g* mp2
 -------------

 ------------------------------------------------------
 Input file generated by CHIRIPA (05-May-2021 14:53:16)
 ------------------------------------------------------
 Symbolic Z-matrix:
 Charge =  0 Multiplicity = 1

                         Standard orientation:
 ---------------------------------------------------------------------
 Center     Atomic      Atomic             Coordinates (Angstroms)
 Number     Number       Type             X           Y           Z
 ---------------------------------------------------------------------
      1          6           0        2.257860    1.381290   -0.409429
      2          6           0        1.289580    2.226821    0.418518
      3          6           0        0.463828    3.188017   -0.437069
      4          1           0        2.929989    2.046700   -0.968373
      5          1           0        1.689003    0.811634   -1.157284
      6          1           0        1.859955    2.793660    1.165499
      7          1           0        0.619803    1.559318    0.975704
      8          1           0       -0.130021    2.635880   -1.172657
      9          1           0        1.117177    3.877235   -0.981783
     10          1           0       -0.221598    3.782564    0.174948
     11          6           0        3.090436    0.415444    0.431812
     12          6           0        4.058716   -0.430087   -0.396135
     13          6           0        4.884468   -1.391283    0.459453
     14          1           0        3.659294    0.985100    1.179668
     15          1           0        2.418308   -0.249966    0.990756
     16          1           0        4.728493    0.237416   -0.953320
     17          1           0        3.488341   -0.996927   -1.143116
     18          1           0        4.231119   -2.080501    1.004167
     19          1           0        5.478318   -0.839146    1.195040
     20          1           0        5.569894   -1.985830   -0.152565
     21          6           0       -4.266471    0.522575    0.346370
     22          6           0       -3.843825    0.207452   -0.949234
     23          6           0       -2.639216   -0.470740   -1.157859
     24          6           0       -1.878686   -0.820222   -0.043075
     25          6           0       -2.272783   -0.520386    1.260028
     26          6           0       -3.480986    0.158292    1.444929
     27          1           0       -5.203636    1.049598    0.499220
     28          1           0       -4.451802    0.489113   -1.804263
     29          1           0       -2.288198   -0.727164   -2.150053
     30          1           0       -1.645215   -0.814280    2.092616
     31          1           0       -3.806722    0.401713    2.452246
     32          7           0       -0.601518   -1.538450   -0.251379
     33          8           0        0.050354   -1.835269    0.747420
     34          8           0       -0.276530   -1.790980   -1.409502
 ---------------------------------------------------------------------

 SCF Done:  E(RHF) =  -669.536985472     A.U. after   15 cycles
 E2 =    -0.2093338003D+01 EUMP2 =    -0.67163032347409D+03

 The electronic state is 1-A.
 Alpha  occ. eigenvalues --  -20.61129 -20.61124 -15.86129 -11.31393 -11.27936
 Alpha  occ. eigenvalues --  -11.27932 -11.27650 -11.26926 -11.26916 -11.21095
 Alpha  occ. eigenvalues --  -11.20785 -11.20497 -11.20335 -11.20093 -11.19905
 Alpha  occ. eigenvalues --   -1.60168  -1.39728  -1.19542  -1.08958  -1.07481
 Alpha  occ. eigenvalues --   -1.04926  -1.02668  -0.95812  -0.95126  -0.86332
 Alpha  occ. eigenvalues --   -0.86155  -0.82648  -0.78778  -0.77715  -0.77215
 Alpha  occ. eigenvalues --   -0.72352  -0.71495  -0.70646  -0.65200  -0.64927
 Alpha  occ. eigenvalues --   -0.64071  -0.62274  -0.60062  -0.58551  -0.56727
 Alpha  occ. eigenvalues --   -0.55430  -0.54428  -0.53228  -0.53016  -0.51892
 Alpha  occ. eigenvalues --   -0.51552  -0.49201  -0.49117  -0.48991  -0.47090
 Alpha  occ. eigenvalues --   -0.45858  -0.45406  -0.44768  -0.44267  -0.42880
 Alpha  occ. eigenvalues --   -0.37500  -0.36513
 Alpha virt. eigenvalues --    0.04766   0.11066   0.16234   0.21219   0.23350
 Alpha virt. eigenvalues --    0.25150   0.27023   0.27330   0.28179   0.28543
 Alpha virt. eigenvalues --    0.28802   0.31020   0.31978   0.32225   0.32331

 Mulliken charges:
               1
     1  C   -0.302268
     2  C   -0.300667
     3  C   -0.473981
     4  H    0.146043
     5  H    0.155473
     6  H    0.150417
     7  H    0.147794
     8  H    0.152123
     9  H    0.155041
    10  H    0.155368
    11  C   -0.306264
    12  C   -0.299913
    13  C   -0.476687
    14  H    0.141533
    15  H    0.170836
    16  H    0.144759
    17  H    0.163194
    18  H    0.162432
    19  H    0.149337
    20  H    0.156588
    21  C   -0.170087
    22  C   -0.218065
    23  C   -0.171256
    24  C    0.159406
    25  C   -0.171148
    26  C   -0.218246
    27  H    0.226494
    28  H    0.224365
    29  H    0.276060
    30  H    0.276127
    31  H    0.224368
    32  N    0.488946
    33  O   -0.459287
    34  O   -0.458836
 Sum of Mulliken charges =  -0.00000

 Dipole moment (field-independent basis, Debye):
    X=             -4.7482    Y=              2.2703    Z=              0.7183  Tot=              5.3118
 Quadrupole moment (field-independent basis, Debye-Ang):
   XX=            -78.8967   YY=           -100.1871   ZZ=            -90.1212
   XY=             -0.5887   XZ=             -0.6957   YZ=             -0.3885

 Normal termination of Gaussian 16 at Thu May  6 04:19:21 2021.
