 Gaussian 16, Revision A.03,
 Gaussian 16:  EM64L-G16RevA.03 25-Dec-2016

 -------------
 #p 6-31g* mp2
 -------------

 ------------------------------------------------------
 Input file generated by CHIRIPA (05-May-2021 14:53:12)
 ------------------------------------------------------
 Symbolic Z-matrix:
 Charge =  0 Multiplicity = 1

                         Standard orientation:
 ---------------------------------------------------------------------
 Center     Atomic      Atomic             Coordinates (Angstroms)
 Number     Number       Type             X           Y           Z
 ---------------------------------------------------------------------
      1          6           0       -3.952339   -0.456005   -0.292224
      2          6           0       -4.547634    0.923937   -0.573952
      3          6           0       -5.684858    0.879915   -1.595018
      4          1           0       -3.585832   -0.889216   -1.232940
      5          1           0       -4.746510   -1.123119    0.070609
      6          1           0       -3.752299    1.588636   -0.934831
      7          1           0       -4.912593    1.353993    0.367575
      8          1           0       -6.497821    0.238974   -1.238807
      9          1           0       -5.330935    0.474950   -2.548613
     10          1           0       -6.095802    1.877019   -1.781483
     11          6           0       -2.814351   -0.428363    0.726572
     12          6           0       -2.219057   -1.808305    1.008300
     13          6           0       -1.081833   -1.764284    2.029366
     14          1           0       -2.020181    0.238751    0.363739
     15          1           0       -3.180858    0.004848    1.667288
     16          1           0       -1.854097   -2.238362    0.066773
     17          1           0       -3.014391   -2.473004    1.369179
     18          1           0       -1.435756   -1.359318    2.982961
     19          1           0       -0.268870   -1.123342    1.673155
     20          1           0       -0.670889   -2.761388    2.215831
     21          6           0        3.960327   -1.564130   -1.161979
     22          6           0        2.563676   -1.626070   -1.116710
     23          6           0        1.823678   -0.573860   -0.569165
     24          6           0        2.515908    0.530068   -0.073734
     25          6           0        3.906595    0.621333   -0.104531
     26          6           0        4.626156   -0.442603   -0.656635
     27          1           0        4.527238   -2.386066   -1.589096
     28          1           0        2.043917   -2.495816   -1.508422
     29          1           0        0.741704   -0.595735   -0.521497
     30          1           0        4.396602    1.501473    0.293797
     31          1           0        5.710736   -0.391767   -0.690468
     32          7           0        1.743322    1.650203    0.508341
     33          8           0        2.376914    2.611676    0.938188
     34          8           0        0.518809    1.545482    0.523703
 ---------------------------------------------------------------------

 SCF Done:  E(RHF) =  -669.535650564     A.U. after   15 cycles
 E2 =    -0.2093021801D+01 EUMP2 =    -0.67162867236534D+03

 The electronic state is 1-A.
 Alpha  occ. eigenvalues --  -20.60989 -20.60979 -15.86012 -11.31305 -11.27860
 Alpha  occ. eigenvalues --  -11.27854 -11.27592 -11.26866 -11.26855 -11.21383
 Alpha  occ. eigenvalues --  -11.21071 -11.20927 -11.20756 -11.20677 -11.20676
 Alpha  occ. eigenvalues --   -1.60042  -1.39602  -1.19472  -1.08879  -1.07968
 Alpha  occ. eigenvalues --   -1.04864  -1.03151  -0.95731  -0.95573  -0.86603
 Alpha  occ. eigenvalues --   -0.86264  -0.82566  -0.79207  -0.77819  -0.77540
 Alpha  occ. eigenvalues --   -0.72243  -0.71351  -0.70590  -0.65137  -0.64936
 Alpha  occ. eigenvalues --   -0.64558  -0.62249  -0.60530  -0.58941  -0.57176
 Alpha  occ. eigenvalues --   -0.55388  -0.54863  -0.53191  -0.52948  -0.52312
 Alpha  occ. eigenvalues --   -0.51977  -0.49536  -0.49040  -0.48976  -0.47504
 Alpha  occ. eigenvalues --   -0.46246  -0.45321  -0.45195  -0.44887  -0.43361
 Alpha  occ. eigenvalues --   -0.37445  -0.36448
 Alpha virt. eigenvalues --    0.04880   0.11101   0.16403   0.20073   0.23003
 Alpha virt. eigenvalues --    0.24365   0.26663   0.27462   0.27934   0.28414
 Alpha virt. eigenvalues --    0.29189   0.30837   0.31576   0.31964   0.32237

 Mulliken charges:
               1
     1  C   -0.297101
     2  C   -0.300097
     3  C   -0.475394
     4  H    0.143913
     5  H    0.146711
     6  H    0.157366
     7  H    0.153039
     8  H    0.153490
     9  H    0.152885
    10  H    0.160166
    11  C   -0.310942
    12  C   -0.299841
    13  C   -0.480773
    14  H    0.174675
    15  H    0.151608
    16  H    0.139200
    17  H    0.151492
    18  H    0.159613
    19  H    0.160336
    20  H    0.153954
    21  C   -0.170370
    22  C   -0.220168
    23  C   -0.171552
    24  C    0.157585
    25  C   -0.170563
    26  C   -0.218481
    27  H    0.226132
    28  H    0.224465
    29  H    0.280262
    30  H    0.275808
    31  H    0.223910
    32  N    0.494795
    33  O   -0.458161
    34  O   -0.467960
 Sum of Mulliken charges =  -0.00000

 Dipole moment (field-independent basis, Debye):
    X=              2.8951    Y=             -3.7143    Z=             -1.9978  Tot=              5.1155
 Quadrupole moment (field-independent basis, Debye-Ang):
   XX=            -78.0187   YY=            -98.6058   ZZ=            -95.0588
   XY=             -6.5002   XZ=             -5.9802   YZ=              0.0006

 Normal termination of Gaussian 16 at Thu May  6 08:52:07 2021.
