 Gaussian 16, Revision A.03,
 Gaussian 16:  EM64L-G16RevA.03 25-Dec-2016

 -------------
 #p 6-31g* mp2
 -------------

 ------------------------------------------------------
 Input file generated by CHIRIPA (05-May-2021 14:53:18)
 ------------------------------------------------------
 Symbolic Z-matrix:
 Charge =  0 Multiplicity = 1

                         Standard orientation:
 ---------------------------------------------------------------------
 Center     Atomic      Atomic             Coordinates (Angstroms)
 Number     Number       Type             X           Y           Z
 ---------------------------------------------------------------------
      1          6           0       -3.323526   -0.344529    0.064835
      2          6           0       -4.300944   -1.343563   -0.555302
      3          6           0       -4.421750   -2.633827    0.256127
      4          1           0       -2.335446   -0.816115    0.155660
      5          1           0       -3.651603   -0.107037    1.086284
      6          1           0       -3.971888   -1.578041   -1.575772
      7          1           0       -5.286765   -0.869479   -0.644838
      8          1           0       -4.772340   -2.419359    1.270864
      9          1           0       -3.449992   -3.131947    0.334641
     10          1           0       -5.125479   -3.333746   -0.205110
     11          6           0       -3.191947    0.950388   -0.734919
     12          6           0       -2.214529    1.949422   -0.114781
     13          6           0       -2.093723    3.239686   -0.926210
     14          1           0       -2.863870    0.712896   -1.756368
     15          1           0       -4.180027    1.421974   -0.825744
     16          1           0       -1.228708    1.475338   -0.025246
     17          1           0       -2.543585    2.183900    0.905688
     18          1           0       -3.065481    3.737806   -1.004724
     19          1           0       -1.743133    3.025218   -1.940947
     20          1           0       -1.389994    3.939605   -0.464973
     21          6           0        4.540762   -0.675322   -1.218405
     22          6           0        3.495228   -1.602668   -1.160022
     23          6           0        2.384591   -1.370008   -0.343380
     24          6           0        2.352174   -0.194256    0.404848
     25          6           0        3.378063    0.748875    0.368141
     26          6           0        4.478952    0.495425   -0.455482
     27          1           0        5.399745   -0.864132   -1.855503
     28          1           0        3.540532   -2.512747   -1.751418
     29          1           0        1.561228   -2.070994   -0.279244
     30          1           0        3.304475    1.647014    0.969263
     31          1           0        5.289466    1.217389   -0.498838
     32          7           0        1.181553    0.063055    1.273085
     33          8           0        1.176991    1.106554    1.922490
     34          8           0        0.290746   -0.783636    1.287764
 ---------------------------------------------------------------------

 SCF Done:  E(RHF) =  -669.535895210     A.U. after   15 cycles
 E2 =    -0.2092359223D+01 EUMP2 =    -0.67162825443323D+03

 The electronic state is 1-A.
 Alpha  occ. eigenvalues --  -20.61032 -20.61019 -15.86036 -11.31349 -11.27913
 Alpha  occ. eigenvalues --  -11.27904 -11.27641 -11.26910 -11.26899 -11.20681
 Alpha  occ. eigenvalues --  -11.20410 -11.20324 -11.20256 -11.20211 -11.20020
 Alpha  occ. eigenvalues --   -1.60081  -1.39636  -1.19515  -1.08922  -1.07330
 Alpha  occ. eigenvalues --   -1.04907  -1.02546  -0.95767  -0.95008  -0.86309
 Alpha  occ. eigenvalues --   -0.86033  -0.82604  -0.78583  -0.77663  -0.77091
 Alpha  occ. eigenvalues --   -0.72262  -0.71406  -0.70623  -0.65171  -0.64909
 Alpha  occ. eigenvalues --   -0.63969  -0.62255  -0.59965  -0.58370  -0.56597
 Alpha  occ. eigenvalues --   -0.55411  -0.54317  -0.53241  -0.52998  -0.51747
 Alpha  occ. eigenvalues --   -0.51427  -0.49049  -0.49029  -0.48969  -0.46900
 Alpha  occ. eigenvalues --   -0.45624  -0.45193  -0.44644  -0.44331  -0.42757
 Alpha  occ. eigenvalues --   -0.37489  -0.36507
 Alpha virt. eigenvalues --    0.04815   0.11149   0.16280   0.21251   0.23901
 Alpha virt. eigenvalues --    0.25169   0.27168   0.27511   0.28086   0.28696
 Alpha virt. eigenvalues --    0.29080   0.30995   0.32110   0.32408   0.32742

 Mulliken charges:
               1
     1  C   -0.305398
     2  C   -0.298760
     3  C   -0.474303
     4  H    0.170519
     5  H    0.150445
     6  H    0.146301
     7  H    0.148173
     8  H    0.155881
     9  H    0.155666
    10  H    0.155172
    11  C   -0.298162
    12  C   -0.296791
    13  C   -0.476047
    14  H    0.142465
    15  H    0.144875
    16  H    0.156660
    17  H    0.156478
    18  H    0.152130
    19  H    0.149150
    20  H    0.159734
    21  C   -0.170441
    22  C   -0.218532
    23  C   -0.170758
    24  C    0.157639
    25  C   -0.170511
    26  C   -0.218558
    27  H    0.226265
    28  H    0.224044
    29  H    0.275357
    30  H    0.276111
    31  H    0.224106
    32  N    0.488501
    33  O   -0.457026
    34  O   -0.460384
 Sum of Mulliken charges =  -0.00000

 Dipole moment (field-independent basis, Debye):
    X=              4.4447    Y=             -0.9450    Z=             -2.8444  Tot=              5.3609
 Quadrupole moment (field-independent basis, Debye-Ang):
   XX=            -75.3993   YY=            -92.1691   ZZ=            -97.6493
   XY=             -1.5045   XZ=             -6.0279   YZ=              2.7066

 Normal termination of Gaussian 16 at Thu May  6 01:15:59 2021.
