 Gaussian 16, Revision A.03,
 Gaussian 16:  EM64L-G16RevA.03 25-Dec-2016

 -------------
 #p 6-31g* mp2
 -------------

 ------------------------------------------------------
 Input file generated by CHIRIPA (05-May-2021 14:53:15)
 ------------------------------------------------------
 Symbolic Z-matrix:
 Charge =  0 Multiplicity = 1

                         Standard orientation:
 ---------------------------------------------------------------------
 Center     Atomic      Atomic             Coordinates (Angstroms)
 Number     Number       Type             X           Y           Z
 ---------------------------------------------------------------------
      1          6           0        4.885164   -0.259771    0.343372
      2          6           0        5.420791   -1.484850   -0.398430
      3          6           0        6.638819   -2.105055    0.286807
      4          1           0        5.683797    0.490315    0.424007
      5          1           0        4.622030   -0.547834    1.370589
      6          1           0        5.681541   -1.194872   -1.424363
      7          1           0        4.620734   -2.232029   -0.477476
      8          1           0        6.388590   -2.421827    1.304472
      9          1           0        7.455424   -1.378777    0.352205
     10          1           0        7.005338   -2.979313   -0.260182
     11          6           0        3.667511    0.371382   -0.329454
     12          6           0        3.131884    1.596461    0.412348
     13          6           0        1.913857    2.216666   -0.272888
     14          1           0        3.930646    0.659446   -1.356671
     15          1           0        2.868878   -0.378704   -0.410089
     16          1           0        3.931941    2.343640    0.491395
     17          1           0        2.871134    1.306483    1.438281
     18          1           0        1.097251    1.490388   -0.338287
     19          1           0        2.164085    2.533439   -1.290553
     20          1           0        1.547337    3.090924    0.274100
     21          6           0       -5.157896   -1.789862    0.116931
     22          6           0       -4.584579   -1.461405   -1.115929
     23          6           0       -3.577117   -0.495372   -1.195612
     24          6           0       -3.165227    0.125225   -0.017267
     25          6           0       -3.716905   -0.180231    1.225971
     26          6           0       -4.722995   -1.149356    1.281893
     27          1           0       -5.939983   -2.541500    0.169602
     28          1           0       -4.920348   -1.957206   -2.022287
     29          1           0       -3.116041   -0.221861   -2.136897
     30          1           0       -3.361325    0.331117    2.112257
     31          1           0       -5.166433   -1.402424    2.240727
     32          7           0       -2.099398    1.149556   -0.089046
     33          8           0       -1.754141    1.681858    0.963612
     34          8           0       -1.629440    1.400730   -1.196606
 ---------------------------------------------------------------------

 SCF Done:  E(RHF) =  -669.535981125     A.U. after   15 cycles
 E2 =    -0.2091290791D+01 EUMP2 =    -0.67162727191581D+03

 The electronic state is 1-A.
 Alpha  occ. eigenvalues --  -20.60957 -20.60949 -15.85974 -11.31311 -11.27872
 Alpha  occ. eigenvalues --  -11.27868 -11.27610 -11.26878 -11.26868 -11.21055
 Alpha  occ. eigenvalues --  -11.20664 -11.20638 -11.20427 -11.20295 -11.19151
 Alpha  occ. eigenvalues --   -1.60009  -1.39563  -1.19477  -1.08879  -1.07557
 Alpha  occ. eigenvalues --   -1.04873  -1.02533  -0.95720  -0.94941  -0.86273
 Alpha  occ. eigenvalues --   -0.85949  -0.82550  -0.78641  -0.77605  -0.77311
 Alpha  occ. eigenvalues --   -0.72180  -0.71335  -0.70584  -0.65129  -0.64875
 Alpha  occ. eigenvalues --   -0.64202  -0.62219  -0.59939  -0.58417  -0.56547
 Alpha  occ. eigenvalues --   -0.55382  -0.54243  -0.53204  -0.52963  -0.51610
 Alpha  occ. eigenvalues --   -0.51381  -0.49228  -0.48943  -0.48612  -0.46903
 Alpha  occ. eigenvalues --   -0.45692  -0.45004  -0.44813  -0.44716  -0.42784
 Alpha  occ. eigenvalues --   -0.37455  -0.36474
 Alpha virt. eigenvalues --    0.04891   0.11181   0.16393   0.21322   0.23651
 Alpha virt. eigenvalues --    0.25374   0.27239   0.27473   0.28189   0.28305
 Alpha virt. eigenvalues --    0.29168   0.30880   0.32400   0.32452   0.32570

 Mulliken charges:
               1
     1  C   -0.297272
     2  C   -0.298732
     3  C   -0.475118
     4  H    0.148416
     5  H    0.147802
     6  H    0.151184
     7  H    0.150135
     8  H    0.154077
     9  H    0.154708
    10  H    0.158066
    11  C   -0.296613
    12  C   -0.301398
    13  C   -0.472438
    14  H    0.147964
    15  H    0.147496
    16  H    0.146210
    17  H    0.149391
    18  H    0.169902
    19  H    0.148050
    20  H    0.162958
    21  C   -0.170559
    22  C   -0.218588
    23  C   -0.170877
    24  C    0.159508
    25  C   -0.170952
    26  C   -0.218606
    27  H    0.226060
    28  H    0.223922
    29  H    0.276031
    30  H    0.275866
    31  H    0.223870
    32  N    0.486579
    33  O   -0.458796
    34  O   -0.458245
 Sum of Mulliken charges =  -0.00000

 Dipole moment (field-independent basis, Debye):
    X=             -4.1343    Y=             -3.5555    Z=              0.2402  Tot=              5.4582
 Quadrupole moment (field-independent basis, Debye-Ang):
   XX=            -73.2571   YY=            -96.3731   ZZ=            -89.7478
   XY=             12.1746   XZ=             -1.8086   YZ=              0.7209

 Normal termination of Gaussian 16 at Thu May  6 09:00:52 2021.
