 Gaussian 16, Revision A.03,
 Gaussian 16:  EM64L-G16RevA.03 25-Dec-2016

 -------------
 #p 6-31g* mp2
 -------------

 ------------------------------------------------------
 Input file generated by CHIRIPA (05-May-2021 14:55:21)
 ------------------------------------------------------
 Symbolic Z-matrix:
 Charge =  0 Multiplicity = 1

                         Standard orientation:
 ---------------------------------------------------------------------
 Center     Atomic      Atomic             Coordinates (Angstroms)
 Number     Number       Type             X           Y           Z
 ---------------------------------------------------------------------
      1          6           0        1.102711    2.470356    1.005978
      2          6           0        2.313550    1.834555    1.299487
      3          6           0        2.738925    0.735459    0.547429
      4          6           0        1.924969    0.296648   -0.495745
      5          6           0        0.713405    0.908947   -0.812751
      6          6           0        0.307904    2.006341   -0.047347
      7          1           0        0.779988    3.323500    1.595379
      8          1           0        2.932848    2.192742    2.116932
      9          1           0        3.671749    0.224568    0.752968
     10          1           0        0.117567    0.528988   -1.633742
     11          1           0       -0.632928    2.498155   -0.277563
     12          7           0        2.364775   -0.866015   -1.298980
     13          8           0        1.629520   -1.233273   -2.212850
     14          8           0        3.436422   -1.388036   -0.999476
     15          6           0       -2.741157   -0.559593   -0.199932
     16          6           0       -3.786249    0.556533   -0.205214
     17          6           0       -4.517970    0.674907   -1.542513
     18          1           0       -2.013783   -0.375945   -1.002518
     19          1           0       -3.232592   -1.513672   -0.435770
     20          1           0       -3.293224    1.508010    0.031924
     21          1           0       -4.511111    0.370309    0.597601
     22          1           0       -5.035464   -0.259541   -1.782528
     23          1           0       -3.810657    0.884623   -2.351419
     24          1           0       -5.260419    1.478830   -1.524122
     25          6           0       -2.001202   -0.690376    1.130140
     26          6           0       -0.956109   -1.806502    1.135421
     27          6           0       -0.224389   -1.924876    2.472720
     28          1           0       -1.509767    0.263704    1.365977
     29          1           0       -2.728577   -0.874023    1.932727
     30          1           0       -0.231248   -1.620279    0.332606
     31          1           0       -1.449135   -2.757978    0.898283
     32          1           0       -0.931702   -2.134592    3.281627
     33          1           0        0.293105   -0.990428    2.712736
     34          1           0        0.518059   -2.728799    2.454330
 ---------------------------------------------------------------------

 SCF Done:  E(RHF) =  -669.533501239     A.U. after   15 cycles
 E2 =    -0.2097420058D+01 EUMP2 =    -0.67163092129762D+03

 The electronic state is 1-A.
 Alpha  occ. eigenvalues --  -20.60923 -20.60905 -15.85946 -11.31303 -11.27889
 Alpha  occ. eigenvalues --  -11.27864 -11.27636 -11.26906 -11.26886 -11.22129
 Alpha  occ. eigenvalues --  -11.21708 -11.21505 -11.21494 -11.21424 -11.21004
 Alpha  occ. eigenvalues --   -1.59978  -1.39532  -1.19513  -1.08900  -1.08676
 Alpha  occ. eigenvalues --   -1.04913  -1.03734  -0.96187  -0.95727  -0.87202
 Alpha  occ. eigenvalues --   -0.86314  -0.82562  -0.79827  -0.78456  -0.77611
 Alpha  occ. eigenvalues --   -0.72170  -0.71317  -0.70620  -0.65445  -0.65130
 Alpha  occ. eigenvalues --   -0.64914  -0.62228  -0.61182  -0.59557  -0.57779
 Alpha  occ. eigenvalues --   -0.55530  -0.55373  -0.53189  -0.53047  -0.52840
 Alpha  occ. eigenvalues --   -0.52589  -0.50153  -0.48938  -0.48926  -0.48119
 Alpha  occ. eigenvalues --   -0.46911  -0.46010  -0.45929  -0.44858  -0.43978
 Alpha  occ. eigenvalues --   -0.37410  -0.36408
 Alpha virt. eigenvalues --    0.04897   0.11002   0.16319   0.19444   0.23269
 Alpha virt. eigenvalues --    0.23824   0.25322   0.25731   0.27554   0.28479
 Alpha virt. eigenvalues --    0.29590   0.30448   0.31390   0.31508   0.32159

 Mulliken charges:
               1
     1  C   -0.171832
     2  C   -0.218707
     3  C   -0.170621
     4  C    0.159814
     5  C   -0.173424
     6  C   -0.219904
     7  H    0.226718
     8  H    0.224389
     9  H    0.276391
    10  H    0.278510
    11  H    0.227517
    12  N    0.489562
    13  O   -0.459723
    14  O   -0.458961
    15  C   -0.300907
    16  C   -0.300298
    17  C   -0.475202
    18  H    0.144830
    19  H    0.155329
    20  H    0.141398
    21  H    0.155202
    22  H    0.159569
    23  H    0.152816
    24  H    0.160467
    25  C   -0.302678
    26  C   -0.301049
    27  C   -0.478480
    28  H    0.150309
    29  H    0.149093
    30  H    0.154563
    31  H    0.154634
    32  H    0.153584
    33  H    0.153274
    34  H    0.163819
 Sum of Mulliken charges =  -0.00000

 Dipole moment (field-independent basis, Debye):
    X=             -1.4663    Y=              4.0387    Z=              2.7966  Tot=              5.1266
 Quadrupole moment (field-independent basis, Debye-Ang):
   XX=            -97.1036   YY=            -92.4455   ZZ=            -97.4101
   XY=              8.0145   XZ=              8.2606   YZ=             -1.2729

 Normal termination of Gaussian 16 at Wed May  5 22:14:42 2021.
