 Gaussian 16, Revision A.03,
 Gaussian 16:  EM64L-G16RevA.03 25-Dec-2016

 -------------
 #p 6-31g* mp2
 -------------

 ------------------------------------------------------
 Input file generated by CHIRIPA (05-May-2021 14:57:24)
 ------------------------------------------------------
 Symbolic Z-matrix:
 Charge =  0 Multiplicity = 1

                         Standard orientation:
 ---------------------------------------------------------------------
 Center     Atomic      Atomic             Coordinates (Angstroms)
 Number     Number       Type             X           Y           Z
 ---------------------------------------------------------------------
      1          6           0       -5.937758    0.399924   -1.314800
      2          6           0       -5.637408   -0.937327   -1.035388
      3          6           0       -4.519104   -1.267672   -0.264145
      4          6           0       -3.719231   -0.230816    0.213792
      5          6           0       -3.992141    1.111038   -0.047431
      6          6           0       -5.115615    1.418043   -0.820801
      7          1           0       -6.808492    0.647479   -1.914746
      8          1           0       -6.274115   -1.730091   -1.417716
      9          1           0       -4.263345   -2.294528   -0.032690
     10          1           0       -3.338681    1.879398    0.347577
     11          1           0       -5.346435    2.457450   -1.036209
     12          7           0       -2.532596   -0.568184    1.031398
     13          8           0       -1.843744    0.363782    1.440739
     14          8           0       -2.313832   -1.758191    1.247416
     15          6           0        2.507340    2.152960    0.609066
     16          6           0        3.628152    2.341263   -0.206312
     17          6           0        4.415244    1.252727   -0.593770
     18          6           0        4.050871   -0.015987   -0.145564
     19          6           0        2.940115   -0.235893    0.667548
     20          6           0        2.167497    0.867250    1.042629
     21          1           0        1.901530    3.004235    0.905245
     22          1           0        3.894462    3.338627   -0.544525
     23          1           0        5.288177    1.370009   -1.224365
     24          1           0        2.699766   -1.242075    0.988873
     25          1           0        1.297609    0.718025    1.675931
     26          7           0        4.876468   -1.176104   -0.549198
     27          8           0        4.534245   -2.283745   -0.140968
     28          8           0        5.850161   -0.955794   -1.266151
 ---------------------------------------------------------------------

 SCF Done:  E(RHF) =  -868.340055836     A.U. after   16 cycles
 E2 =    -0.2598326347D+01 EUMP2 =    -0.87093838218291D+03

 The electronic state is 1-A.
 Alpha  occ. eigenvalues --  -20.61620 -20.61583 -20.60048 -20.60032 -15.86628
 Alpha  occ. eigenvalues --  -15.85086 -11.31759 -11.30305 -11.28325 -11.28273
 Alpha  occ. eigenvalues --  -11.27992 -11.27272 -11.27238 -11.26896 -11.26723
 Alpha  occ. eigenvalues --  -11.26534 -11.25927 -11.25591  -1.60660  -1.59121
 Alpha  occ. eigenvalues --   -1.40221  -1.38678  -1.19907  -1.18442  -1.09345
 Alpha  occ. eigenvalues --   -1.07870  -1.05276  -1.03794  -0.96221  -0.94735
 Alpha  occ. eigenvalues --   -0.86685  -0.85199  -0.83064  -0.81551  -0.78138
 Alpha  occ. eigenvalues --   -0.76615  -0.72867  -0.71955  -0.71309  -0.71013
 Alpha  occ. eigenvalues --   -0.70443  -0.69564  -0.65566  -0.65277  -0.64081
 Alpha  occ. eigenvalues --   -0.63749  -0.62629  -0.61115  -0.55783  -0.54326
 Alpha  occ. eigenvalues --   -0.53614  -0.53366  -0.52173  -0.51850  -0.49629
 Alpha  occ. eigenvalues --   -0.49587  -0.48072  -0.48050  -0.45672  -0.44116
 Alpha  occ. eigenvalues --   -0.37869  -0.36867  -0.36442  -0.35396
 Alpha virt. eigenvalues --    0.04380   0.05868   0.10792   0.12248   0.15918
 Alpha virt. eigenvalues --    0.17409   0.20942   0.22477   0.26869   0.27767
 Alpha virt. eigenvalues --    0.28565   0.29202   0.30536   0.31929   0.32139

 Mulliken charges:
               1
     1  C   -0.169842
     2  C   -0.218423
     3  C   -0.169964
     4  C    0.158253
     5  C   -0.170325
     6  C   -0.218370
     7  H    0.227613
     8  H    0.225809
     9  H    0.277399
    10  H    0.272768
    11  H    0.224269
    12  N    0.490501
    13  O   -0.471039
    14  O   -0.456076
    15  C   -0.173434
    16  C   -0.218952
    17  C   -0.173546
    18  C    0.157985
    19  C   -0.173788
    20  C   -0.224270
    21  H    0.223332
    22  H    0.218837
    23  H    0.271972
    24  H    0.278623
    25  H    0.247040
    26  N    0.487957
    27  O   -0.460353
    28  O   -0.463977
 Sum of Mulliken charges =  -0.00000

 Dipole moment (field-independent basis, Debye):
    X=             -7.6025    Y=              5.1327    Z=             -1.3917  Tot=              9.2778
 Quadrupole moment (field-independent basis, Debye-Ang):
   XX=            -96.6789   YY=            -99.4560   ZZ=           -106.4484
   XY=             16.4077   XZ=             15.2466   YZ=             -1.0343

 Normal termination of Gaussian 16 at Thu May  6 22:48:47 2021.
