 Gaussian 16, Revision A.03,
 Gaussian 16:  EM64L-G16RevA.03 25-Dec-2016

 -------------
 #p 6-31g* mp2
 -------------

 ------------------------------------------------------
 Input file generated by CHIRIPA (05-May-2021 14:57:22)
 ------------------------------------------------------
 Symbolic Z-matrix:
 Charge =  0 Multiplicity = 1

                         Standard orientation:
 ---------------------------------------------------------------------
 Center     Atomic      Atomic             Coordinates (Angstroms)
 Number     Number       Type             X           Y           Z
 ---------------------------------------------------------------------
      1          6           0       -5.087037    1.867574   -0.694665
      2          6           0       -5.572715    0.557325   -0.632322
      3          6           0       -4.764341   -0.477457   -0.152420
      4          6           0       -3.469508   -0.164912    0.258691
      5          6           0       -2.956841    1.130455    0.208801
      6          6           0       -3.782950    2.149460   -0.274645
      7          1           0       -5.721890    2.665290   -1.068841
      8          1           0       -6.585073    0.335477   -0.957834
      9          1           0       -5.114946   -1.500690   -0.093370
     10          1           0       -1.943323    1.320715    0.540466
     11          1           0       -3.403105    3.166086   -0.321931
     12          7           0       -2.604331   -1.252038    0.768618
     13          8           0       -1.467252   -0.950606    1.124748
     14          8           0       -3.079666   -2.384974    0.802513
     15          6           0        5.250802    1.778771    0.507714
     16          6           0        3.882474    2.064199    0.455464
     17          6           0        2.965439    1.078464    0.078736
     18          6           0        3.453676   -0.187604   -0.240618
     19          6           0        4.810923   -0.502819   -0.198110
     20          6           0        5.709850    0.498430    0.181335
     21          1           0        5.956143    2.550539    0.801420
     22          1           0        3.523115    3.057643    0.708395
     23          1           0        1.900785    1.272223    0.029859
     24          1           0        5.139061   -1.502457   -0.455922
     25          1           0        6.771952    0.273911    0.221029
     26          7           0        2.492437   -1.239369   -0.640881
     27          8           0        2.947978   -2.346905   -0.917438
     28          8           0        1.301679   -0.936291   -0.670472
 ---------------------------------------------------------------------

 SCF Done:  E(RHF) =  -868.335623392     A.U. after   16 cycles
 E2 =    -0.2600462247D+01 EUMP2 =    -0.87093608563922D+03

 The electronic state is 1-A.
 Alpha  occ. eigenvalues --  -20.60033 -20.59941 -20.59934 -20.59834 -15.85042
 Alpha  occ. eigenvalues --  -15.84939 -11.30712 -11.30628 -11.27342 -11.27309
 Alpha  occ. eigenvalues --  -11.27266 -11.27225 -11.27126 -11.27053 -11.26427
 Alpha  occ. eigenvalues --  -11.26391 -11.26357 -11.26315  -1.59055  -1.58941
 Alpha  occ. eigenvalues --   -1.38603  -1.38487  -1.18915  -1.18832  -1.08255
 Alpha  occ. eigenvalues --   -1.08168  -1.04370  -1.04293  -0.95046  -0.94944
 Alpha  occ. eigenvalues --   -0.85752  -0.85675  -0.81898  -0.81764  -0.76897
 Alpha  occ. eigenvalues --   -0.76753  -0.71360  -0.71077  -0.70390  -0.70234
 Alpha  occ. eigenvalues --   -0.70027  -0.69949  -0.64570  -0.64479  -0.64386
 Alpha  occ. eigenvalues --   -0.64311  -0.61723  -0.61645  -0.54866  -0.54791
 Alpha  occ. eigenvalues --   -0.52674  -0.52591  -0.52476  -0.52400  -0.48065
 Alpha  occ. eigenvalues --   -0.48029  -0.47927  -0.47874  -0.44053  -0.43669
 Alpha  occ. eigenvalues --   -0.36909  -0.36823  -0.35985  -0.35908
 Alpha virt. eigenvalues --    0.05609   0.05859   0.11669   0.11745   0.17042
 Alpha virt. eigenvalues --    0.17283   0.21327   0.21981   0.26618   0.27819
 Alpha virt. eigenvalues --    0.28171   0.29181   0.30614   0.31672   0.32295

 Mulliken charges:
               1
     1  C   -0.171717
     2  C   -0.218430
     3  C   -0.170904
     4  C    0.160994
     5  C   -0.168470
     6  C   -0.218338
     7  H    0.223143
     8  H    0.221884
     9  H    0.275724
    10  H    0.271962
    11  H    0.219125
    12  N    0.488816
    13  O   -0.450925
    14  O   -0.462644
    15  C   -0.171637
    16  C   -0.218300
    17  C   -0.169053
    18  C    0.160049
    19  C   -0.171033
    20  C   -0.218451
    21  H    0.223498
    22  H    0.219686
    23  H    0.272799
    24  H    0.275707
    25  H    0.222109
    26  N    0.488133
    27  O   -0.462775
    28  O   -0.450953
 Sum of Mulliken charges =  -0.00000

 Dipole moment (field-independent basis, Debye):
    X=              0.3428    Y=              7.3238    Z=             -0.3670  Tot=              7.3410
 Quadrupole moment (field-independent basis, Debye-Ang):
   XX=            -56.6952   YY=           -104.4035   ZZ=           -108.0966
   XY=             -0.5585   XZ=              9.8694   YZ=              1.0980

 Normal termination of Gaussian 16 at Thu May  6 16:13:31 2021.
