 Gaussian 16, Revision A.03,
 Gaussian 16:  EM64L-G16RevA.03 25-Dec-2016

 -------------
 #p 6-31g* mp2
 -------------

 ------------------------------------------------------
 Input file generated by CHIRIPA (05-May-2021 14:53:16)
 ------------------------------------------------------
 Symbolic Z-matrix:
 Charge =  0 Multiplicity = 1

                         Standard orientation:
 ---------------------------------------------------------------------
 Center     Atomic      Atomic             Coordinates (Angstroms)
 Number     Number       Type             X           Y           Z
 ---------------------------------------------------------------------
      1          6           0       -3.355429   -0.151205   -0.618197
      2          6           0       -3.582664   -1.356562    0.294745
      3          6           0       -4.149384   -2.564793   -0.451445
      4          1           0       -4.306029    0.123616   -1.095458
      5          1           0       -2.670312   -0.437510   -1.428160
      6          1           0       -4.266060   -1.067678    1.103530
      7          1           0       -2.631452   -1.628427    0.770035
      8          1           0       -3.467251   -2.880697   -1.247373
      9          1           0       -5.111146   -2.316762   -0.911983
     10          1           0       -4.304047   -3.415047    0.220126
     11          6           0       -2.789140    1.064538    0.113249
     12          6           0       -2.561905    2.269894   -0.799693
     13          6           0       -1.995185    3.478125   -0.053503
     14          1           0       -3.474257    1.350843    0.923212
     15          1           0       -1.838540    0.789716    0.590510
     16          1           0       -3.513117    2.541759   -1.274984
     17          1           0       -1.878509    1.981011   -1.608478
     18          1           0       -1.033423    3.230095    0.407035
     19          1           0       -2.677318    3.794029    0.742424
     20          1           0       -1.840522    4.328379   -0.725074
     21          6           0        0.267638   -0.843121    1.454810
     22          6           0        1.244205   -0.019792    2.024868
     23          6           0        2.429653    0.256509    1.337176
     24          6           0        2.606392   -0.309752    0.075668
     25          6           0        1.652213   -1.133927   -0.518947
     26          6           0        0.474394   -1.396585    0.186958
     27          1           0       -0.650284   -1.052460    1.996099
     28          1           0        1.086341    0.411408    3.009343
     29          1           0        3.202266    0.890487    1.754978
     30          1           0        1.838093   -1.549314   -1.501963
     31          1           0       -0.282283   -2.036351   -0.258222
     32          7           0        3.857335   -0.024466   -0.662000
     33          8           0        3.988972   -0.535546   -1.772003
     34          8           0        4.682501    0.704819   -0.116214
 ---------------------------------------------------------------------

 SCF Done:  E(RHF) =  -669.534194354     A.U. after   15 cycles
 E2 =    -0.2094415192D+01 EUMP2 =    -0.67162860954630D+03

 The electronic state is 1-A.
 Alpha  occ. eigenvalues --  -20.60815 -20.60810 -15.85871 -11.31258 -11.27841
 Alpha  occ. eigenvalues --  -11.27837 -11.27547 -11.26848 -11.26832 -11.22752
 Alpha  occ. eigenvalues --  -11.22211 -11.22048 -11.22045 -11.21942 -11.21435
 Alpha  occ. eigenvalues --   -1.59891  -1.39444  -1.19447  -1.09227  -1.08818
 Alpha  occ. eigenvalues --   -1.04848  -1.04265  -0.96684  -0.95671  -0.87707
 Alpha  occ. eigenvalues --   -0.86248  -0.82500  -0.80381  -0.78993  -0.77533
 Alpha  occ. eigenvalues --   -0.72089  -0.71215  -0.70595  -0.65968  -0.65082
 Alpha  occ. eigenvalues --   -0.64759  -0.62232  -0.61606  -0.60078  -0.58298
 Alpha  occ. eigenvalues --   -0.55996  -0.55374  -0.53389  -0.53269  -0.53020
 Alpha  occ. eigenvalues --   -0.52933  -0.50643  -0.48849  -0.48843  -0.48667
 Alpha  occ. eigenvalues --   -0.47438  -0.46503  -0.46403  -0.44844  -0.44498
 Alpha  occ. eigenvalues --   -0.37326  -0.36453
 Alpha virt. eigenvalues --    0.04967   0.11118   0.16368   0.19260   0.22763
 Alpha virt. eigenvalues --    0.23499   0.25420   0.25789   0.27291   0.27970
 Alpha virt. eigenvalues --    0.29419   0.29971   0.31042   0.31372   0.32029

 Mulliken charges:
               1
     1  C   -0.298515
     2  C   -0.304796
     3  C   -0.476033
     4  H    0.154118
     5  H    0.148612
     6  H    0.156000
     7  H    0.139649
     8  H    0.153379
     9  H    0.160788
    10  H    0.161998
    11  C   -0.306597
    12  C   -0.299189
    13  C   -0.476729
    14  H    0.148019
    15  H    0.154299
    16  H    0.152751
    17  H    0.154549
    18  H    0.156018
    19  H    0.154052
    20  H    0.163227
    21  C   -0.174766
    22  C   -0.219772
    23  C   -0.170627
    24  C    0.158418
    25  C   -0.171149
    26  C   -0.219985
    27  H    0.231357
    28  H    0.224520
    29  H    0.276074
    30  H    0.275943
    31  H    0.226707
    32  N    0.488076
    33  O   -0.460260
    34  O   -0.460138
 Sum of Mulliken charges =  -0.00000

 Dipole moment (field-independent basis, Debye):
    X=             -4.4632    Y=             -0.9527    Z=              2.5531  Tot=              5.2294
 Quadrupole moment (field-independent basis, Debye-Ang):
   XX=           -116.6857   YY=            -93.7596   ZZ=            -91.8280
   XY=             -0.8448   XZ=              7.7543   YZ=              1.2661

 Normal termination of Gaussian 16 at Thu May  6 09:06:14 2021.
