 Gaussian 16, Revision A.03,
 Gaussian 16:  EM64L-G16RevA.03 25-Dec-2016

 -------------
 #p 6-31g* mp2
 -------------

 ------------------------------------------------------
 Input file generated by CHIRIPA (05-May-2021 14:57:23)
 ------------------------------------------------------
 Symbolic Z-matrix:
 Charge =  0 Multiplicity = 1

                         Standard orientation:
 ---------------------------------------------------------------------
 Center     Atomic      Atomic             Coordinates (Angstroms)
 Number     Number       Type             X           Y           Z
 ---------------------------------------------------------------------
      1          6           0        1.644881    2.306518   -1.219374
      2          6           0        2.619846    2.195774   -0.222529
      3          6           0        3.049156    0.939003    0.214240
      4          6           0        2.479615   -0.191175   -0.370235
      5          6           0        1.506434   -0.113579   -1.365316
      6          6           0        1.092261    1.153520   -1.786586
      7          1           0        1.317262    3.286819   -1.552647
      8          1           0        3.050771    3.089488    0.219764
      9          1           0        3.802353    0.824380    0.984288
     10          1           0        1.095336   -1.022586   -1.787361
     11          1           0        0.334924    1.236497   -2.560925
     12          7           0        2.926094   -1.527130    0.083949
     13          8           0        2.408735   -2.507530   -0.446893
     14          8           0        3.784949   -1.568555    0.962179
     15          6           0       -4.317025   -0.913445   -0.944797
     16          6           0       -3.289951   -1.772261   -0.539735
     17          6           0       -2.226175   -1.293148    0.230574
     18          6           0       -2.221282    0.056499    0.579459
     19          6           0       -3.229800    0.937123    0.191281
     20          6           0       -4.283731    0.436126   -0.578643
     21          1           0       -5.139568   -1.294131   -1.543042
     22          1           0       -3.313193   -2.820821   -0.822623
     23          1           0       -1.418006   -1.935986    0.557745
     24          1           0       -3.179070    1.977473    0.488797
     25          1           0       -5.080002    1.105403   -0.891796
     26          7           0       -1.100321    0.575296    1.394747
     27          8           0       -1.119281    1.768480    1.689013
     28          8           0       -0.223977   -0.221075    1.724065
 ---------------------------------------------------------------------

 SCF Done:  E(RHF) =  -868.338700700     A.U. after   16 cycles
 E2 =    -0.2602589150D+01 EUMP2 =    -0.87094128985048D+03

 The electronic state is 1-A.
 Alpha  occ. eigenvalues --  -20.61019 -20.60979 -20.60021 -20.59971 -15.86036
 Alpha  occ. eigenvalues --  -15.85046 -11.31418 -11.30281 -11.28015 -11.27908
 Alpha  occ. eigenvalues --  -11.27725 -11.27031 -11.26974 -11.26956 -11.26826
 Alpha  occ. eigenvalues --  -11.26680 -11.26018 -11.25855  -1.60056  -1.59053
 Alpha  occ. eigenvalues --   -1.39617  -1.38623  -1.19590  -1.18480  -1.08981
 Alpha  occ. eigenvalues --   -1.07902  -1.04986  -1.03918  -0.95814  -0.94764
 Alpha  occ. eigenvalues --   -0.86379  -0.85321  -0.82647  -0.81628  -0.77689
 Alpha  occ. eigenvalues --   -0.76675  -0.72289  -0.71407  -0.71298  -0.70681
 Alpha  occ. eigenvalues --   -0.70291  -0.69661  -0.65236  -0.64975  -0.64178
 Alpha  occ. eigenvalues --   -0.63964  -0.62315  -0.61297  -0.55483  -0.54454
 Alpha  occ. eigenvalues --   -0.53336  -0.53060  -0.52190  -0.52045  -0.49021
 Alpha  occ. eigenvalues --   -0.49011  -0.48051  -0.48027  -0.45055  -0.44067
 Alpha  occ. eigenvalues --   -0.37615  -0.36612  -0.36337  -0.35466
 Alpha virt. eigenvalues --    0.04783   0.05931   0.10962   0.12229   0.16301
 Alpha virt. eigenvalues --    0.17432   0.21225   0.22117   0.27101   0.27844
 Alpha virt. eigenvalues --    0.28204   0.29041   0.30746   0.31491   0.32407

 Mulliken charges:
               1
     1  C   -0.166276
     2  C   -0.212898
     3  C   -0.162766
     4  C    0.176162
     5  C   -0.176148
     6  C   -0.225861
     7  H    0.222470
     8  H    0.222635
     9  H    0.275183
    10  H    0.267656
    11  H    0.217470
    12  N    0.490157
    13  O   -0.469760
    14  O   -0.459159
    15  C   -0.171618
    16  C   -0.220105
    17  C   -0.175625
    18  C    0.158445
    19  C   -0.173529
    20  C   -0.219479
    21  H    0.226283
    22  H    0.226910
    23  H    0.283720
    24  H    0.273717
    25  H    0.222974
    26  N    0.490905
    27  O   -0.463337
    28  O   -0.458128
 Sum of Mulliken charges =  -0.00000

 Dipole moment (field-independent basis, Debye):
    X=             -5.4424    Y=              2.8807    Z=             -4.1839  Tot=              7.4447
 Quadrupole moment (field-independent basis, Debye-Ang):
   XX=            -93.0404   YY=           -102.4217   ZZ=           -106.5001
   XY=             15.9043   XZ=              3.7103   YZ=             -1.1225

 Normal termination of Gaussian 16 at Thu May  6 16:17:27 2021.
