 Gaussian 16, Revision A.03,
 Gaussian 16:  EM64L-G16RevA.03 25-Dec-2016

 -------------
 #p 6-31g* mp2
 -------------

 ------------------------------------------------------
 Input file generated by CHIRIPA (05-May-2021 14:51:10)
 ------------------------------------------------------
 Symbolic Z-matrix:
 Charge =  0 Multiplicity = 1

                         Standard orientation:
 ---------------------------------------------------------------------
 Center     Atomic      Atomic             Coordinates (Angstroms)
 Number     Number       Type             X           Y           Z
 ---------------------------------------------------------------------
      1          6           0       -2.506511   -0.204933   -0.097193
      2          6           0       -3.569922   -1.303245   -0.067981
      3          6           0       -2.978773   -2.703106   -0.237475
      4          1           0       -1.957512   -0.260112   -1.047193
      5          1           0       -1.773052   -0.393107    0.699063
      6          1           0       -4.301922   -1.112290   -0.863171
      7          1           0       -4.116581   -1.245324    0.881980
      8          1           0       -2.263239   -2.918590    0.562636
      9          1           0       -2.449633   -2.784799   -1.192430
     10          1           0       -3.756413   -3.472888   -0.213568
     11          6           0       -3.082001    1.200143    0.071036
     12          6           0       -2.018591    2.298456    0.041824
     13          6           0       -2.609740    3.698316    0.211318
     14          1           0       -3.815461    1.388317   -0.725220
     15          1           0       -3.631001    1.255322    1.021036
     16          1           0       -1.471932    2.240534   -0.908137
     17          1           0       -1.286591    2.107500    0.837014
     18          1           0       -3.138880    3.780010    1.166273
     19          1           0       -3.325274    3.913800   -0.588793
     20          1           0       -1.832100    4.468098    0.187411
     21          6           0        3.428806   -0.095111    0.150106
     22          6           0        3.357475    1.343119   -0.364083
     23          6           0        4.634369    2.135607   -0.082480
     24          1           0        3.622979   -0.082005    1.231341
     25          1           0        4.285830   -0.601417   -0.315256
     26          1           0        2.500021    1.846144    0.101058
     27          1           0        3.163259    1.326590   -1.444186
     28          1           0        5.496628    1.659315   -0.560242
     29          1           0        4.829622    2.181820    0.993783
     30          1           0        4.561663    3.160907   -0.458421
     31          6           0        2.159706   -0.900099   -0.123949
     32          6           0        2.231038   -2.338330    0.390240
     33          6           0        0.954144   -3.130817    0.108637
     34          1           0        1.302683   -0.393794    0.341413
     35          1           0        1.965534   -0.913205   -1.205184
     36          1           0        2.425253   -2.321800    1.470343
     37          1           0        3.088491   -2.841354   -0.074901
     38          1           0        0.758891   -3.177030   -0.967626
     39          1           0        0.091885   -2.654525    0.586399
     40          1           0        1.026850   -4.156118    0.484578
 ---------------------------------------------------------------------

 SCF Done:  E(RHF) =  -470.732915826     A.U. after   11 cycles
 E2 =    -0.1583535749D+01 EUMP2 =    -0.47231645157473D+03

 The electronic state is 1-A.
 Alpha  occ. eigenvalues --  -11.21620 -11.21583 -11.21570 -11.21541 -11.21416
 Alpha  occ. eigenvalues --  -11.21361 -11.21356 -11.21298 -11.21085 -11.21051
 Alpha  occ. eigenvalues --  -11.20985 -11.20962  -1.08441  -1.08380  -1.03541
 Alpha  occ. eigenvalues --   -1.03466  -0.96003  -0.95899  -0.87043  -0.86893
 Alpha  occ. eigenvalues --   -0.79676  -0.79465  -0.78328  -0.78110  -0.65111
 Alpha  occ. eigenvalues --   -0.64978  -0.61011  -0.60809  -0.59376  -0.59270
 Alpha  occ. eigenvalues --   -0.57713  -0.57428  -0.55377  -0.55113  -0.52693
 Alpha  occ. eigenvalues --   -0.52657  -0.52547  -0.52140  -0.50051  -0.49745
 Alpha  occ. eigenvalues --   -0.48146  -0.47630  -0.46754  -0.46467  -0.46060
 Alpha  occ. eigenvalues --   -0.45770  -0.45651  -0.45290  -0.43780  -0.43737
 Alpha virt. eigenvalues --    0.20924   0.22945   0.23462   0.24587   0.25192
 Alpha virt. eigenvalues --    0.26372   0.26704   0.27402   0.28961   0.29539
 Alpha virt. eigenvalues --    0.30207   0.31395   0.31801   0.31937   0.32224

 Mulliken charges:
               1
     1  C   -0.300207
     2  C   -0.300197
     3  C   -0.477890
     4  H    0.151014
     5  H    0.150013
     6  H    0.151800
     7  H    0.151487
     8  H    0.158884
     9  H    0.156186
    10  H    0.159687
    11  C   -0.298370
    12  C   -0.299893
    13  C   -0.475715
    14  H    0.149815
    15  H    0.149511
    16  H    0.152799
    17  H    0.151094
    18  H    0.155131
    19  H    0.155337
    20  H    0.160314
    21  C   -0.298238
    22  C   -0.299743
    23  C   -0.475665
    24  H    0.149316
    25  H    0.149419
    26  H    0.152390
    27  H    0.151717
    28  H    0.155106
    29  H    0.155054
    30  H    0.160125
    31  C   -0.299881
    32  C   -0.299964
    33  C   -0.479070
    34  H    0.151762
    35  H    0.149200
    36  H    0.151173
    37  H    0.151505
    38  H    0.154922
    39  H    0.160605
    40  H    0.159467
 Sum of Mulliken charges =  -0.00000

 Dipole moment (field-independent basis, Debye):
    X=             -0.0330    Y=             -0.0048    Z=             -0.0156  Tot=              0.0368
 Quadrupole moment (field-independent basis, Debye-Ang):
   XX=            -85.5824   YY=            -86.3563   ZZ=            -82.9371
   XY=             -0.3936   XZ=             -0.3117   YZ=             -0.0178

 Normal termination of Gaussian 16 at Thu May  6 03:46:26 2021.
