 Gaussian 16, Revision A.03,
 Gaussian 16:  EM64L-G16RevA.03 25-Dec-2016

 -------------
 #p 6-31g* mp2
 -------------

 ------------------------------------------------------
 Input file generated by CHIRIPA (05-May-2021 14:51:09)
 ------------------------------------------------------
 Symbolic Z-matrix:
 Charge =  0 Multiplicity = 1

                         Standard orientation:
 ---------------------------------------------------------------------
 Center     Atomic      Atomic             Coordinates (Angstroms)
 Number     Number       Type             X           Y           Z
 ---------------------------------------------------------------------
      1          6           0       -3.950328   -0.253206   -0.391562
      2          6           0       -5.428913   -0.348057   -0.013709
      3          6           0       -6.359140    0.030876   -1.166481
      4          1           0       -3.727992    0.770442   -0.722704
      5          1           0       -3.756015   -0.909054   -1.251504
      6          1           0       -5.620089    0.306721    0.846136
      7          1           0       -5.647712   -1.371550    0.316755
      8          1           0       -6.197422   -0.629115   -2.024887
      9          1           0       -6.169642    1.058691   -1.492497
     10          1           0       -7.411292   -0.043902   -0.874515
     11          6           0       -3.007879   -0.628965    0.750508
     12          6           0       -1.529293   -0.534114    0.372655
     13          6           0       -0.599067   -0.913047    1.525427
     14          1           0       -3.202192    0.026883    1.610451
     15          1           0       -3.230215   -1.652613    1.081651
     16          1           0       -1.310495    0.489379    0.042192
     17          1           0       -1.338118   -1.188892   -0.487190
     18          1           0       -0.788565   -1.940862    1.851443
     19          1           0       -0.760785   -0.253056    2.383833
     20          1           0        0.453085   -0.838269    1.233461
     21          6           0        3.869603   -0.036479   -0.629889
     22          6           0        4.801576   -0.971663    0.141371
     23          6           0        5.575896   -1.921028   -0.773466
     24          1           0        3.163480   -0.637185   -1.219369
     25          1           0        4.460424    0.546918   -1.349593
     26          1           0        4.209367   -1.552131    0.860372
     27          1           0        5.505439   -0.368661    0.729233
     28          1           0        6.190921   -1.356966   -1.482111
     29          1           0        4.887485   -2.547160   -1.350227
     30          1           0        6.235961   -2.580505   -0.201395
     31          6           0        3.088604    0.918650    0.270942
     32          6           0        2.156631    1.853834   -0.500318
     33          6           0        1.382311    2.803200    0.414520
     34          1           0        2.497782    0.335253    0.990646
     35          1           0        3.794727    1.519356    0.860424
     36          1           0        1.452767    1.250832   -1.088179
     37          1           0        2.748839    2.434302   -1.219318
     38          1           0        2.070721    3.429331    0.991281
     39          1           0        0.767285    2.239137    1.123165
     40          1           0        0.722246    3.462676   -0.157551
 ---------------------------------------------------------------------

 SCF Done:  E(RHF) =  -470.733171153     A.U. after   11 cycles
 E2 =    -0.1583486603D+01 EUMP2 =    -0.47231665775534D+03

 The electronic state is 1-A.
 Alpha  occ. eigenvalues --  -11.21653 -11.21618 -11.21598 -11.21588 -11.21435
 Alpha  occ. eigenvalues --  -11.21394 -11.21375 -11.21332 -11.21140 -11.21083
 Alpha  occ. eigenvalues --  -11.21067 -11.21060  -1.08474  -1.08417  -1.03594
 Alpha  occ. eigenvalues --   -1.03500  -0.96024  -0.95974  -0.87050  -0.86983
 Alpha  occ. eigenvalues --   -0.79649  -0.79571  -0.78283  -0.78230  -0.65173
 Alpha  occ. eigenvalues --   -0.65025  -0.61130  -0.60808  -0.59395  -0.59303
 Alpha  occ. eigenvalues --   -0.57638  -0.57562  -0.55394  -0.55185  -0.52753
 Alpha  occ. eigenvalues --   -0.52667  -0.52469  -0.52362  -0.49963  -0.49912
 Alpha  occ. eigenvalues --   -0.47959  -0.47898  -0.46673  -0.46600  -0.45844
 Alpha  occ. eigenvalues --   -0.45768  -0.45734  -0.45674  -0.43786  -0.43768
 Alpha virt. eigenvalues --    0.19762   0.22964   0.23627   0.25230   0.26023
 Alpha virt. eigenvalues --    0.26466   0.26761   0.27622   0.27852   0.29065
 Alpha virt. eigenvalues --    0.30992   0.31391   0.31733   0.31929   0.32068

 Mulliken charges:
               1
     1  C   -0.298357
     2  C   -0.299687
     3  C   -0.475735
     4  H    0.149892
     5  H    0.149487
     6  H    0.152047
     7  H    0.151950
     8  H    0.155180
     9  H    0.155261
    10  H    0.160325
    11  C   -0.298415
    12  C   -0.302758
    13  C   -0.482630
    14  H    0.149753
    15  H    0.149750
    16  H    0.155735
    17  H    0.151602
    18  H    0.155596
    19  H    0.155282
    20  H    0.166106
    21  C   -0.298491
    22  C   -0.299628
    23  C   -0.475690
    24  H    0.149542
    25  H    0.149686
    26  H    0.151797
    27  H    0.152054
    28  H    0.155179
    29  H    0.155156
    30  H    0.160289
    31  C   -0.304606
    32  C   -0.300928
    33  C   -0.478779
    34  H    0.154843
    35  H    0.150041
    36  H    0.153672
    37  H    0.152025
    38  H    0.155119
    39  H    0.158750
    40  H    0.159583
 Sum of Mulliken charges =  -0.00000

 Dipole moment (field-independent basis, Debye):
    X=             -0.0143    Y=             -0.0023    Z=              0.0052  Tot=              0.0154
 Quadrupole moment (field-independent basis, Debye-Ang):
   XX=            -85.2329   YY=            -83.9950   ZZ=            -85.5142
   XY=              1.1952   XZ=             -0.2950   YZ=              0.0446

 Normal termination of Gaussian 16 at Wed May  5 15:07:32 2021.
