 Gaussian 16, Revision A.03,
 Gaussian 16:  EM64L-G16RevA.03 25-Dec-2016

 -------------
 #p 6-31g* mp2
 -------------

 ------------------------------------------------------
 Input file generated by CHIRIPA (05-May-2021 14:53:12)
 ------------------------------------------------------
 Symbolic Z-matrix:
 Charge =  0 Multiplicity = 1

                         Standard orientation:
 ---------------------------------------------------------------------
 Center     Atomic      Atomic             Coordinates (Angstroms)
 Number     Number       Type             X           Y           Z
 ---------------------------------------------------------------------
      1          6           0       -3.111853   -0.672963   -0.295672
      2          6           0       -4.181441   -1.755191   -0.446497
      3          6           0       -3.587903   -3.143123   -0.689710
      4          1           0       -2.488852   -0.653509   -1.200347
      5          1           0       -2.445840   -0.938978    0.536829
      6          1           0       -4.846067   -1.486517   -1.277582
      7          1           0       -4.802088   -1.771941    0.458562
      8          1           0       -2.940247   -3.436433    0.142823
      9          1           0       -2.984476   -3.149386   -1.603186
     10          1           0       -4.370044   -3.901489   -0.794574
     11          6           0       -3.689647    0.720061   -0.052021
     12          6           0       -2.620059    1.802289    0.098805
     13          6           0       -3.213597    3.190220    0.342018
     14          1           0       -4.355660    0.986076   -0.884521
     15          1           0       -4.312648    0.700607    0.852654
     16          1           0       -1.999412    1.819039   -0.806255
     17          1           0       -1.955433    1.533614    0.929890
     18          1           0       -3.817024    3.196484    1.255494
     19          1           0       -3.861253    3.483530   -0.490516
     20          1           0       -2.431456    3.948586    0.446881
     21          6           0        1.765408   -0.414665    2.462672
     22          6           0        2.953892   -1.028911    2.054347
     23          6           0        3.457145   -0.816521    0.767423
     24          6           0        2.743016    0.019913   -0.089135
     25          6           0        1.556159    0.646203    0.288250
     26          6           0        1.071557    0.419460    1.579877
     27          1           0        1.381714   -0.585230    3.464212
     28          1           0        3.494856   -1.677201    2.737810
     29          1           0        4.374810   -1.279429    0.425335
     30          1           0        1.039146    1.287214   -0.415469
     31          1           0        0.148311    0.897814    1.894265
     32          7           0        3.265914    0.252357   -1.454033
     33          8           0        2.617982    0.993677   -2.189741
     34          8           0        4.313793   -0.311174   -1.762287
 ---------------------------------------------------------------------

 SCF Done:  E(RHF) =  -669.535574492     A.U. after   15 cycles
 E2 =    -0.2091647843D+01 EUMP2 =    -0.67162722233502D+03

 The electronic state is 1-A.
 Alpha  occ. eigenvalues --  -20.60732 -20.60726 -15.85784 -11.31132 -11.27711
 Alpha  occ. eigenvalues --  -11.27686 -11.27453 -11.26725 -11.26688 -11.22434
 Alpha  occ. eigenvalues --  -11.21953 -11.21940 -11.21813 -11.21678 -11.21323
 Alpha  occ. eigenvalues --   -1.59807  -1.39361  -1.19307  -1.08962  -1.08708
 Alpha  occ. eigenvalues --   -1.04707  -1.04041  -0.96451  -0.95544  -0.87470
 Alpha  occ. eigenvalues --   -0.86110  -0.82381  -0.80146  -0.78771  -0.77412
 Alpha  occ. eigenvalues --   -0.72004  -0.71129  -0.70420  -0.65626  -0.64960
 Alpha  occ. eigenvalues --   -0.64703  -0.62089  -0.61418  -0.59832  -0.58071
 Alpha  occ. eigenvalues --   -0.55724  -0.55221  -0.53168  -0.53033  -0.52885
 Alpha  occ. eigenvalues --   -0.52802  -0.50388  -0.48768  -0.48759  -0.48427
 Alpha  occ. eigenvalues --   -0.47172  -0.46292  -0.46204  -0.44770  -0.44286
 Alpha  occ. eigenvalues --   -0.37295  -0.36299
 Alpha virt. eigenvalues --    0.05103   0.11310   0.16547   0.19720   0.22774
 Alpha virt. eigenvalues --    0.23817   0.24855   0.25565   0.27565   0.28268
 Alpha virt. eigenvalues --    0.29301   0.29507   0.31399   0.31473   0.32027

 Mulliken charges:
               1
     1  C   -0.299566
     2  C   -0.300095
     3  C   -0.476037
     4  H    0.153869
     5  H    0.145658
     6  H    0.153930
     7  H    0.151216
     8  H    0.153974
     9  H    0.158066
    10  H    0.161308
    11  C   -0.297878
    12  C   -0.306750
    13  C   -0.475512
    14  H    0.153739
    15  H    0.149778
    16  H    0.156332
    17  H    0.142270
    18  H    0.155719
    19  H    0.160050
    20  H    0.160814
    21  C   -0.171697
    22  C   -0.218633
    23  C   -0.170817
    24  C    0.158478
    25  C   -0.173191
    26  C   -0.223073
    27  H    0.225494
    28  H    0.223128
    29  H    0.275391
    30  H    0.277409
    31  H    0.229873
    32  N    0.488126
    33  O   -0.460715
    34  O   -0.460659
 Sum of Mulliken charges =  -0.00000

 Dipole moment (field-independent basis, Debye):
    X=             -1.9994    Y=             -0.8216    Z=              4.7082  Tot=              5.1807
 Quadrupole moment (field-independent basis, Debye-Ang):
   XX=           -101.7490   YY=            -94.4284   ZZ=            -95.0687
   XY=             -4.8620   XZ=             14.7110   YZ=             -0.9540

 Normal termination of Gaussian 16 at Wed May  5 20:07:26 2021.
