 Gaussian 16, Revision A.03,
 Gaussian 16:  EM64L-G16RevA.03 25-Dec-2016

 -------------
 #p 6-31g* mp2
 -------------

 ------------------------------------------------------
 Input file generated by CHIRIPA (05-May-2021 14:53:13)
 ------------------------------------------------------
 Symbolic Z-matrix:
 Charge =  0 Multiplicity = 1

                         Standard orientation:
 ---------------------------------------------------------------------
 Center     Atomic      Atomic             Coordinates (Angstroms)
 Number     Number       Type             X           Y           Z
 ---------------------------------------------------------------------
      1          6           0        4.065809    0.487535   -0.127767
      2          6           0        5.491381    0.003638    0.139770
      3          6           0        6.422984    1.129250    0.590223
      4          1           0        4.090188    1.274125   -0.894335
      5          1           0        3.666547    0.952276    0.784374
      6          1           0        5.887337   -0.461291   -0.772193
      7          1           0        5.463585   -0.782026    0.905652
      8          1           0        6.054264    1.588347    1.513194
      9          1           0        6.480423    1.910904   -0.174184
     10          1           0        7.436834    0.761167    0.775915
     11          6           0        3.122611   -0.626282   -0.578894
     12          6           0        1.697040   -0.142385   -0.846430
     13          6           0        0.765437   -1.267997   -1.296883
     14          1           0        3.521874   -1.091023   -1.491034
     15          1           0        3.098232   -1.412872    0.187674
     16          1           0        1.724835    0.643278   -1.612313
     17          1           0        1.301084    0.322544    0.065532
     18          1           0        0.707998   -2.049651   -0.532476
     19          1           0        1.134157   -1.727094   -2.219855
     20          1           0       -0.248414   -0.899914   -1.482576
     21          6           0       -1.963272   -2.242729    0.889654
     22          6           0       -1.476973   -1.115766    1.560465
     23          6           0       -1.937871    0.161780    1.228804
     24          6           0       -2.889639    0.276257    0.216718
     25          6           0       -3.393458   -0.827338   -0.469968
     26          6           0       -2.918279   -2.095179   -0.121639
     27          1           0       -1.599688   -3.231388    1.153770
     28          1           0       -0.735277   -1.227347    2.346265
     29          1           0       -1.578430    1.051203    1.731942
     30          1           0       -4.132552   -0.684405   -1.248894
     31          1           0       -3.297730   -2.968615   -0.644296
     32          7           0       -3.385131    1.623600   -0.143219
     33          8           0       -4.223865    1.697687   -1.038582
     34          8           0       -2.925381    2.580048    0.476839
 ---------------------------------------------------------------------

 SCF Done:  E(RHF) =  -669.534322248     A.U. after   15 cycles
 E2 =    -0.2093928777D+01 EUMP2 =    -0.67162825102488D+03

 The electronic state is 1-A.
 Alpha  occ. eigenvalues --  -20.60808 -20.60802 -15.85864 -11.31255 -11.27831
 Alpha  occ. eigenvalues --  -11.27819 -11.27526 -11.26812 -11.26802 -11.21798
 Alpha  occ. eigenvalues --  -11.21775 -11.21636 -11.21561 -11.21220 -11.21175
 Alpha  occ. eigenvalues --   -1.59884  -1.39436  -1.19430  -1.08819  -1.08630
 Alpha  occ. eigenvalues --   -1.04830  -1.03706  -0.96159  -0.95644  -0.87178
 Alpha  occ. eigenvalues --   -0.86222  -0.82476  -0.79776  -0.78453  -0.77521
 Alpha  occ. eigenvalues --   -0.72079  -0.71210  -0.70529  -0.65286  -0.65073
 Alpha  occ. eigenvalues --   -0.64823  -0.62176  -0.61143  -0.59564  -0.57793
 Alpha  occ. eigenvalues --   -0.55569  -0.55320  -0.53501  -0.52914  -0.52619
 Alpha  occ. eigenvalues --   -0.52271  -0.50081  -0.48841  -0.48833  -0.48093
 Alpha  occ. eigenvalues --   -0.46831  -0.45993  -0.45935  -0.44837  -0.43954
 Alpha  occ. eigenvalues --   -0.37313  -0.36408
 Alpha virt. eigenvalues --    0.04980   0.11179   0.16422   0.20913   0.22778
 Alpha virt. eigenvalues --    0.24168   0.26181   0.26856   0.27495   0.27703
 Alpha virt. eigenvalues --    0.28443   0.30831   0.31321   0.31519   0.31836

 Mulliken charges:
               1
     1  C   -0.298075
     2  C   -0.299553
     3  C   -0.475774
     4  H    0.152118
     5  H    0.148109
     6  H    0.152390
     7  H    0.150168
     8  H    0.155077
     9  H    0.156509
    10  H    0.160424
    11  C   -0.297921
    12  C   -0.300149
    13  C   -0.473593
    14  H    0.150378
    15  H    0.144800
    16  H    0.155626
    17  H    0.147554
    18  H    0.146001
    19  H    0.152570
    20  H    0.166092
    21  C   -0.167530
    22  C   -0.214930
    23  C   -0.170645
    24  C    0.158327
    25  C   -0.172929
    26  C   -0.217412
    27  H    0.225653
    28  H    0.223229
    29  H    0.275800
    30  H    0.276067
    31  H    0.223974
    32  N    0.488088
    33  O   -0.460346
    34  O   -0.460099
 Sum of Mulliken charges =  -0.00000

 Dipole moment (field-independent basis, Debye):
    X=              1.6654    Y=             -4.7305    Z=              1.2598  Tot=              5.1709
 Quadrupole moment (field-independent basis, Debye-Ang):
   XX=           -104.1139   YY=            -97.5944   ZZ=            -91.3836
   XY=             15.4941   XZ=             -1.4982   YZ=              0.4070

 Normal termination of Gaussian 16 at Thu May  6 18:41:50 2021.
