 Gaussian 16, Revision A.03,
 Gaussian 16:  EM64L-G16RevA.03 25-Dec-2016

 -------------
 #p 6-31g* mp2
 -------------

 ------------------------------------------------------
 Input file generated by CHIRIPA (05-May-2021 14:57:25)
 ------------------------------------------------------
 Symbolic Z-matrix:
 Charge =  0 Multiplicity = 1

                         Standard orientation:
 ---------------------------------------------------------------------
 Center     Atomic      Atomic             Coordinates (Angstroms)
 Number     Number       Type             X           Y           Z
 ---------------------------------------------------------------------
      1          6           0       -1.443263    0.820984   -0.512874
      2          6           0       -2.500515    1.733742   -0.437958
      3          6           0       -3.814078    1.286333   -0.267892
      4          6           0       -4.035267   -0.086960   -0.176068
      5          6           0       -3.003076   -1.021211   -0.247110
      6          6           0       -1.697470   -0.551160   -0.417380
      7          1           0       -0.425945    1.177337   -0.645065
      8          1           0       -2.306062    2.799940   -0.511813
      9          1           0       -4.651252    1.971035   -0.206717
     10          1           0       -3.228184   -2.078016   -0.170251
     11          1           0       -0.878352   -1.262318   -0.475228
     12          7           0       -5.421666   -0.572598    0.004081
     13          8           0       -5.590135   -1.787565    0.082246
     14          8           0       -6.313605    0.270923    0.063706
     15          6           0        1.662271    0.866591    1.219667
     16          6           0        1.975545   -0.494581    1.294445
     17          6           0        3.160989   -0.982036    0.736182
     18          6           0        4.014095   -0.076188    0.107738
     19          6           0        3.729961    1.285546    0.016975
     20          6           0        2.538934    1.750752    0.582295
     21          1           0        0.739221    1.236615    1.656081
     22          1           0        1.296598   -1.183539    1.788828
     23          1           0        3.428211   -2.030899    0.779724
     24          1           0        4.426587    1.948030   -0.482270
     25          1           0        2.298230    2.808370    0.522718
     26          7           0        5.272026   -0.580457   -0.487005
     27          8           0        6.006881    0.238114   -1.035246
     28          8           0        5.499319   -1.784726   -0.393663
 ---------------------------------------------------------------------

 SCF Done:  E(RHF) =  -868.336686995     A.U. after   16 cycles
 E2 =    -0.2601805617D+01 EUMP2 =    -0.87093849261190D+03

 The electronic state is 1-A.
 Alpha  occ. eigenvalues --  -20.61553 -20.61548 -20.61277 -20.61272 -15.86615
 Alpha  occ. eigenvalues --  -15.86335 -11.32193 -11.31819 -11.28807 -11.28798
 Alpha  occ. eigenvalues --  -11.28566 -11.28405 -11.28399 -11.28090 -11.27871
 Alpha  occ. eigenvalues --  -11.27839 -11.27451 -11.27421  -1.60625  -1.60351
 Alpha  occ. eigenvalues --   -1.40172  -1.39901  -1.20418  -1.20008  -1.09797
 Alpha  occ. eigenvalues --   -1.09368  -1.05837  -1.05425  -0.96595  -0.96166
 Alpha  occ. eigenvalues --   -0.87229  -0.86807  -0.83403  -0.83001  -0.78381
 Alpha  occ. eigenvalues --   -0.78046  -0.72827  -0.72548  -0.71954  -0.71742
 Alpha  occ. eigenvalues --   -0.71677  -0.70896  -0.66055  -0.65853  -0.65649
 Alpha  occ. eigenvalues --   -0.65399  -0.63160  -0.62754  -0.56524  -0.55824
 Alpha  occ. eigenvalues --   -0.54112  -0.53913  -0.53708  -0.53492  -0.49603
 Alpha  occ. eigenvalues --   -0.49569  -0.49318  -0.49298  -0.45529  -0.45280
 Alpha  occ. eigenvalues --   -0.38587  -0.37838  -0.37461  -0.37028
 Alpha virt. eigenvalues --    0.03997   0.04589   0.09923   0.10676   0.15288
 Alpha virt. eigenvalues --    0.16112   0.19931   0.21459   0.25434   0.27130
 Alpha virt. eigenvalues --    0.27285   0.28288   0.29879   0.30651   0.31654

 Mulliken charges:
               1
     1  C   -0.180975
     2  C   -0.221011
     3  C   -0.169828
     4  C    0.158911
     5  C   -0.170413
     6  C   -0.225000
     7  H    0.231415
     8  H    0.222725
     9  H    0.277255
    10  H    0.277071
    11  H    0.224766
    12  N    0.487982
    13  O   -0.458975
    14  O   -0.458951
    15  C   -0.181695
    16  C   -0.224437
    17  C   -0.170652
    18  C    0.159198
    19  C   -0.168761
    20  C   -0.223544
    21  H    0.232784
    22  H    0.227014
    23  H    0.278936
    24  H    0.279010
    25  H    0.224756
    26  N    0.487997
    27  O   -0.457816
    28  O   -0.457759
 Sum of Mulliken charges =  -0.00000

 Dipole moment (field-independent basis, Debye):
    X=              0.6192    Y=              3.4214    Z=              1.4666  Tot=              3.7736
 Quadrupole moment (field-independent basis, Debye-Ang):
   XX=           -178.7138   YY=            -96.6396   ZZ=           -105.1956
   XY=             -0.4208   XZ=              9.3743   YZ=             -1.8585

 Normal termination of Gaussian 16 at Fri May  7 00:23:37 2021.
