 Gaussian 16, Revision A.03,
 Gaussian 16:  EM64L-G16RevA.03 25-Dec-2016

 -------------
 #p 6-31g* mp2
 -------------

 ------------------------------------------------------
 Input file generated by CHIRIPA (05-May-2021 14:57:25)
 ------------------------------------------------------
 Symbolic Z-matrix:
 Charge =  0 Multiplicity = 1

                         Standard orientation:
 ---------------------------------------------------------------------
 Center     Atomic      Atomic             Coordinates (Angstroms)
 Number     Number       Type             X           Y           Z
 ---------------------------------------------------------------------
      1          6           0        5.652036    0.860380    0.894638
      2          6           0        5.593559   -0.533905    0.799399
      3          6           0        4.443530   -1.164933    0.315886
      4          6           0        3.365637   -0.367331   -0.065253
      5          6           0        3.393346    1.023938    0.017769
      6          6           0        4.553679    1.633489    0.504207
      7          1           0        6.549409    1.342235    1.271379
      8          1           0        6.445038   -1.136840    1.101886
      9          1           0        4.371300   -2.242481    0.231684
     10          1           0        2.528540    1.598334   -0.291422
     11          1           0        4.596268    2.716504    0.577074
     12          7           0        2.142698   -1.024003   -0.578675
     13          8           0        1.206588   -0.298824   -0.907995
     14          8           0        2.143424   -2.251448   -0.642054
     15          6           0       -5.213198   -1.295773    1.093713
     16          6           0       -5.088086    0.024979    1.536977
     17          6           0       -4.179344    0.895325    0.927689
     18          6           0       -3.408062    0.409423   -0.126974
     19          6           0       -3.509665   -0.901037   -0.591365
     20          6           0       -4.424978   -1.753758    0.032828
     21          1           0       -5.921684   -1.965033    1.572812
     22          1           0       -5.698930    0.383394    2.360660
     23          1           0       -4.062148    1.922605    1.250768
     24          1           0       -2.887061   -1.229476   -1.414719
     25          1           0       -4.520010   -2.778969   -0.313521
     26          7           0       -2.442538    1.321491   -0.779889
     27          8           0       -1.774592    0.869055   -1.707135
     28          8           0       -2.371991    2.471535   -0.352034
 ---------------------------------------------------------------------

 SCF Done:  E(RHF) =  -868.337120124     A.U. after   16 cycles
 E2 =    -0.2599644891D+01 EUMP2 =    -0.87093676501473D+03

 The electronic state is 1-A.
 Alpha  occ. eigenvalues --  -20.60156 -20.60073 -20.59850 -20.59688 -15.85156
 Alpha  occ. eigenvalues --  -15.84807 -11.30641 -11.30330 -11.27273 -11.27163
 Alpha  occ. eigenvalues --  -11.27025 -11.26984 -11.26855 -11.26748 -11.26311
 Alpha  occ. eigenvalues --  -11.26246 -11.26039 -11.25958  -1.59206  -1.58833
 Alpha  occ. eigenvalues --   -1.38747  -1.38377  -1.18837  -1.18532  -1.08219
 Alpha  occ. eigenvalues --   -1.07908  -1.04251  -1.03959  -0.95028  -0.94710
 Alpha  occ. eigenvalues --   -0.85646  -0.85352  -0.81851  -0.81534  -0.76872
 Alpha  occ. eigenvalues --   -0.76549  -0.71427  -0.70987  -0.70543  -0.70124
 Alpha  occ. eigenvalues --   -0.69937  -0.69653  -0.64482  -0.64259  -0.64184
 Alpha  occ. eigenvalues --   -0.63977  -0.61586  -0.61298  -0.54768  -0.54486
 Alpha  occ. eigenvalues --   -0.52587  -0.52342  -0.52284  -0.52058  -0.48186
 Alpha  occ. eigenvalues --   -0.48131  -0.47825  -0.47767  -0.44138  -0.43708
 Alpha  occ. eigenvalues --   -0.36842  -0.36538  -0.35863  -0.35568
 Alpha virt. eigenvalues --    0.05650   0.05992   0.11787   0.12084   0.17113
 Alpha virt. eigenvalues --    0.17430   0.21914   0.22157   0.27827   0.28060
 Alpha virt. eigenvalues --    0.28843   0.29094   0.31449   0.31674   0.33166

 Mulliken charges:
               1
     1  C   -0.171348
     2  C   -0.218960
     3  C   -0.171749
     4  C    0.157319
     5  C   -0.172146
     6  C   -0.219181
     7  H    0.223801
     8  H    0.221141
     9  H    0.273475
    10  H    0.283930
    11  H    0.223835
    12  N    0.487318
    13  O   -0.449726
    14  O   -0.468235
    15  C   -0.171600
    16  C   -0.219134
    17  C   -0.172192
    18  C    0.158749
    19  C   -0.167764
    20  C   -0.219149
    21  H    0.222605
    22  H    0.219833
    23  H    0.272434
    24  H    0.282709
    25  H    0.222777
    26  N    0.487913
    27  O   -0.445768
    28  O   -0.470886
 Sum of Mulliken charges =  -0.00000

 Dipole moment (field-independent basis, Debye):
    X=              0.9509    Y=             -0.8742    Z=              3.8702  Tot=              4.0801
 Quadrupole moment (field-independent basis, Debye-Ang):
   XX=            -54.6086   YY=           -103.4157   ZZ=           -104.9167
   XY=             13.3561   XZ=             -1.9488   YZ=              2.5326

 Normal termination of Gaussian 16 at Fri May  7 11:11:22 2021.
