 Gaussian 16, Revision A.03,
 Gaussian 16:  EM64L-G16RevA.03 25-Dec-2016

 -------------
 #p 6-31g* mp2
 -------------

 ------------------------------------------------------
 Input file generated by CHIRIPA (05-May-2021 14:55:22)
 ------------------------------------------------------
 Symbolic Z-matrix:
 Charge =  0 Multiplicity = 1

                         Standard orientation:
 ---------------------------------------------------------------------
 Center     Atomic      Atomic             Coordinates (Angstroms)
 Number     Number       Type             X           Y           Z
 ---------------------------------------------------------------------
      1          6           0       -4.657179    0.899997    0.873112
      2          6           0       -4.061869   -0.092515    1.658635
      3          6           0       -2.996624   -0.848533    1.160400
      4          6           0       -2.550008   -0.584256   -0.133425
      5          6           0       -3.122328    0.397741   -0.940532
      6          6           0       -4.186338    1.141531   -0.421682
      7          1           0       -5.484207    1.482541    1.268160
      8          1           0       -4.425449   -0.282279    2.664540
      9          1           0       -2.517399   -1.622961    1.746934
     10          1           0       -2.737971    0.563878   -1.939575
     11          1           0       -4.646740    1.911694   -1.033994
     12          7           0       -1.422935   -1.378146   -0.671796
     13          8           0       -1.047973   -1.125874   -1.814774
     14          8           0       -0.935837   -2.237636    0.059401
     15          6           0        2.980758    1.116709    0.213121
     16          6           0        1.707384    0.986393   -0.623253
     17          6           0        0.674607    2.066485   -0.299884
     18          1           0        2.718447    1.067894    1.278839
     19          1           0        3.421657    2.109028    0.044880
     20          1           0        1.269767   -0.005900   -0.454546
     21          1           0        1.972779    1.035332   -1.687108
     22          1           0        1.088159    3.062962   -0.485925
     23          1           0        0.381154    2.015814    0.753642
     24          1           0       -0.227671    1.954458   -0.909150
     25          6           0        4.022797    0.044028   -0.098704
     26          6           0        5.296171    0.174344    0.737672
     27          6           0        6.328948   -0.905748    0.414302
     28          1           0        3.581897   -0.948291    0.069538
     29          1           0        4.285107    0.092843   -1.164422
     30          1           0        5.030776    0.125405    1.801526
     31          1           0        5.733788    1.166637    0.568963
     32          1           0        6.622401   -0.855076   -0.639225
     33          1           0        5.915396   -1.902224    0.600342
     34          1           0        7.231225   -0.793720    1.023568
 ---------------------------------------------------------------------

 SCF Done:  E(RHF) =  -669.536015801     A.U. after   15 cycles
 E2 =    -0.2092738586D+01 EUMP2 =    -0.67162875438729D+03

 The electronic state is 1-A.
 Alpha  occ. eigenvalues --  -20.60944 -20.60932 -15.85948 -11.31272 -11.27835
 Alpha  occ. eigenvalues --  -11.27831 -11.27567 -11.26842 -11.26832 -11.20992
 Alpha  occ. eigenvalues --  -11.20689 -11.20639 -11.20582 -11.20565 -11.20506
 Alpha  occ. eigenvalues --   -1.59995  -1.39549  -1.19439  -1.08843  -1.07699
 Alpha  occ. eigenvalues --   -1.04837  -1.02862  -0.95689  -0.95356  -0.86382
 Alpha  occ. eigenvalues --   -0.86230  -0.82524  -0.78902  -0.77581  -0.77485
 Alpha  occ. eigenvalues --   -0.72175  -0.71331  -0.70551  -0.65096  -0.64841
 Alpha  occ. eigenvalues --   -0.64326  -0.62189  -0.60259  -0.58712  -0.56944
 Alpha  occ. eigenvalues --   -0.55339  -0.54661  -0.53188  -0.52931  -0.52052
 Alpha  occ. eigenvalues --   -0.51772  -0.49307  -0.48952  -0.48943  -0.47209
 Alpha  occ. eigenvalues --   -0.45914  -0.45100  -0.44983  -0.44817  -0.43114
 Alpha  occ. eigenvalues --   -0.37397  -0.36422
 Alpha virt. eigenvalues --    0.04901   0.11145   0.16419   0.21269   0.23514
 Alpha virt. eigenvalues --    0.24674   0.27065   0.27383   0.27835   0.28412
 Alpha virt. eigenvalues --    0.28694   0.30670   0.31479   0.32026   0.32563

 Mulliken charges:
               1
     1  C   -0.170390
     2  C   -0.218395
     3  C   -0.171169
     4  C    0.161245
     5  C   -0.170957
     6  C   -0.218601
     7  H    0.225998
     8  H    0.223731
     9  H    0.275561
    10  H    0.275669
    11  H    0.223957
    12  N    0.487429
    13  O   -0.458025
    14  O   -0.460550
    15  C   -0.297949
    16  C   -0.302519
    17  C   -0.479670
    18  H    0.146397
    19  H    0.145234
    20  H    0.167569
    21  H    0.154154
    22  H    0.152217
    23  H    0.150912
    24  H    0.156572
    25  C   -0.299172
    26  C   -0.299044
    27  C   -0.475463
    28  H    0.156675
    29  H    0.149667
    30  H    0.150270
    31  H    0.149428
    32  H    0.154851
    33  H    0.156685
    34  H    0.157682
 Sum of Mulliken charges =  -0.00000

 Dipole moment (field-independent basis, Debye):
    X=             -4.1325    Y=              2.6295    Z=              1.8257  Tot=              5.2273
 Quadrupole moment (field-independent basis, Debye-Ang):
   XX=            -76.0823   YY=            -97.8052   ZZ=            -91.2351
   XY=             -4.6387   XZ=             -4.6350   YZ=             -4.5804

 Normal termination of Gaussian 16 at Wed May  5 22:16:34 2021.
