 Gaussian 16, Revision A.03,
 Gaussian 16:  EM64L-G16RevA.03 25-Dec-2016

 -------------
 #p 6-31g* mp2
 -------------

 ------------------------------------------------------
 Input file generated by CHIRIPA (05-May-2021 14:55:25)
 ------------------------------------------------------
 Symbolic Z-matrix:
 Charge =  0 Multiplicity = 1

                         Standard orientation:
 ---------------------------------------------------------------------
 Center     Atomic      Atomic             Coordinates (Angstroms)
 Number     Number       Type             X           Y           Z
 ---------------------------------------------------------------------
      1          6           0       -3.911793    1.631807    0.752182
      2          6           0       -4.524215    0.472515    0.264840
      3          6           0       -3.752512   -0.610912   -0.165519
      4          6           0       -2.364707   -0.500414   -0.094250
      5          6           0       -1.725006    0.641132    0.386316
      6          6           0       -2.516603    1.712274    0.811260
      7          1           0       -4.518998    2.468667    1.084392
      8          1           0       -5.607529    0.407218    0.217812
      9          1           0       -4.200572   -1.520296   -0.547201
     10          1           0       -0.642904    0.676668    0.421104
     11          1           0       -2.038257    2.611348    1.189275
     12          7           0       -1.537209   -1.640887   -0.546986
     13          8           0       -0.316410   -1.518585   -0.473990
     14          8           0       -2.125085   -2.635495   -0.966264
     15          6           0        3.723640   -0.132769    0.189193
     16          6           0        3.117417   -1.503915    0.489920
     17          6           0        4.174760   -2.559041    0.816305
     18          1           0        4.423653   -0.225040   -0.652479
     19          1           0        4.316327    0.196024    1.054070
     20          1           0        2.524917   -1.829405   -0.374728
     21          1           0        2.418620   -1.408333    1.330851
     22          1           0        4.759635   -2.260232    1.692225
     23          1           0        4.866535   -2.683697   -0.023044
     24          1           0        3.719486   -3.531544    1.028022
     25          6           0        2.679149    0.932642   -0.138930
     26          6           0        3.285372    2.303789   -0.439656
     27          6           0        2.228028    3.358915   -0.766042
     28          1           0        2.086460    0.603849   -1.003806
     29          1           0        1.979135    1.024914    0.702742
     30          1           0        3.984167    2.208206   -1.280587
     31          1           0        3.877871    2.629278    0.424992
     32          1           0        1.536252    3.483570    0.073308
     33          1           0        1.643153    3.060105   -1.641961
     34          1           0        2.683301    4.331418   -0.977759
 ---------------------------------------------------------------------

 SCF Done:  E(RHF) =  -669.535886150     A.U. after   15 cycles
 E2 =    -0.2092536104D+01 EUMP2 =    -0.67162842225449D+03

 The electronic state is 1-A.
 Alpha  occ. eigenvalues --  -20.60854 -20.60848 -15.85888 -11.31195 -11.27773
 Alpha  occ. eigenvalues --  -11.27725 -11.27509 -11.26777 -11.26757 -11.21487
 Alpha  occ. eigenvalues --  -11.21251 -11.21063 -11.20753 -11.20403 -11.20167
 Alpha  occ. eigenvalues --   -1.59920  -1.39476  -1.19369  -1.08779  -1.07942
 Alpha  occ. eigenvalues --   -1.04762  -1.03012  -0.95622  -0.95542  -0.86569
 Alpha  occ. eigenvalues --   -0.86163  -0.82461  -0.79124  -0.77813  -0.77330
 Alpha  occ. eigenvalues --   -0.72105  -0.71235  -0.70480  -0.65028  -0.64778
 Alpha  occ. eigenvalues --   -0.64569  -0.62110  -0.60410  -0.58950  -0.57097
 Alpha  occ. eigenvalues --   -0.55276  -0.54862  -0.53099  -0.52865  -0.52240
 Alpha  occ. eigenvalues --   -0.51945  -0.49529  -0.48889  -0.48872  -0.47407
 Alpha  occ. eigenvalues --   -0.46164  -0.45229  -0.45031  -0.44811  -0.43275
 Alpha  occ. eigenvalues --   -0.37355  -0.36364
 Alpha virt. eigenvalues --    0.05003   0.11283   0.16496   0.20331   0.23248
 Alpha virt. eigenvalues --    0.24523   0.25630   0.27137   0.27652   0.28397
 Alpha virt. eigenvalues --    0.29641   0.30876   0.31789   0.32159   0.32547

 Mulliken charges:
               1
     1  C   -0.170298
     2  C   -0.219142
     3  C   -0.169911
     4  C    0.155542
     5  C   -0.176624
     6  C   -0.221164
     7  H    0.225678
     8  H    0.223396
     9  H    0.275452
    10  H    0.286420
    11  H    0.223997
    12  N    0.493098
    13  O   -0.465490
    14  O   -0.459841
    15  C   -0.298667
    16  C   -0.301394
    17  C   -0.476265
    18  H    0.148366
    19  H    0.144760
    20  H    0.175682
    21  H    0.149957
    22  H    0.149268
    23  H    0.152213
    24  H    0.162240
    25  C   -0.301567
    26  C   -0.298718
    27  C   -0.475318
    28  H    0.161018
    29  H    0.140089
    30  H    0.153933
    31  H    0.150894
    32  H    0.144979
    33  H    0.156372
    34  H    0.161043
 Sum of Mulliken charges =  -0.00000

 Dipole moment (field-independent basis, Debye):
    X=             -3.0096    Y=              3.8455    Z=              1.4506  Tot=              5.0941
 Quadrupole moment (field-independent basis, Debye-Ang):
   XX=            -78.6841   YY=            -98.9321   ZZ=            -94.7890
   XY=             -5.3603   XZ=             -3.2049   YZ=              0.0711

 Normal termination of Gaussian 16 at Thu May  6 16:02:45 2021.
