 Gaussian 16, Revision A.03,
 Gaussian 16:  EM64L-G16RevA.03 25-Dec-2016

 -------------
 #p 6-31g* mp2
 -------------

 ------------------------------------------------------
 Input file generated by CHIRIPA (05-May-2021 14:55:24)
 ------------------------------------------------------
 Symbolic Z-matrix:
 Charge =  0 Multiplicity = 1

                         Standard orientation:
 ---------------------------------------------------------------------
 Center     Atomic      Atomic             Coordinates (Angstroms)
 Number     Number       Type             X           Y           Z
 ---------------------------------------------------------------------
      1          6           0        4.101528    1.469405   -0.046131
      2          6           0        4.531742    0.193266    0.331898
      3          6           0        3.640762   -0.884085    0.336113
      4          6           0        2.320778   -0.648428   -0.045199
      5          6           0        1.861887    0.611320   -0.426961
      6          6           0        2.770321    1.673999   -0.423689
      7          1           0        4.800442    2.300618   -0.046497
      8          1           0        5.564989    0.031433    0.625590
      9          1           0        3.947119   -1.882354    0.624251
     10          1           0        0.825725    0.741637   -0.714717
     11          1           0        2.433413    2.663983   -0.717745
     12          7           0        1.368299   -1.781205   -0.044700
     13          8           0        0.210601   -1.547413   -0.384867
     14          8           0        1.797479   -2.881418    0.295848
     15          6           0       -2.676707    1.106666   -0.211650
     16          6           0       -2.683466    2.420403    0.570676
     17          6           0       -1.688316    3.441900    0.019303
     18          1           0       -1.663990    0.681233   -0.192744
     19          1           0       -2.908892    1.314294   -1.265393
     20          1           0       -2.452699    2.210190    1.622900
     21          1           0       -3.696329    2.842660    0.550067
     22          1           0       -1.919470    3.680653   -1.023850
     23          1           0       -0.668774    3.044590    0.055079
     24          1           0       -1.709720    4.373510    0.593328
     25          6           0       -3.666355    0.075371    0.327569
     26          6           0       -3.659595   -1.238367   -0.454757
     27          6           0       -4.654745   -2.259864    0.096617
     28          1           0       -3.434169   -0.132258    1.381313
     29          1           0       -4.679071    0.500803    0.308663
     30          1           0       -2.646733   -1.660623   -0.434149
     31          1           0       -3.890362   -1.028154   -1.506981
     32          1           0       -5.674287   -1.862554    0.060841
     33          1           0       -4.423591   -2.498617    1.139769
     34          1           0       -4.633341   -3.191474   -0.477409
 ---------------------------------------------------------------------

 SCF Done:  E(RHF) =  -669.536173572     A.U. after   15 cycles
 E2 =    -0.2093047685D+01 EUMP2 =    -0.67162922125638D+03

 The electronic state is 1-A.
 Alpha  occ. eigenvalues --  -20.61026 -20.61017 -15.86052 -11.31315 -11.27876
 Alpha  occ. eigenvalues --  -11.27853 -11.27599 -11.26872 -11.26854 -11.21475
 Alpha  occ. eigenvalues --  -11.21375 -11.20885 -11.20638 -11.20365 -11.20101
 Alpha  occ. eigenvalues --   -1.60082  -1.39641  -1.19480  -1.08894  -1.07861
 Alpha  occ. eigenvalues --   -1.04867  -1.02991  -0.95747  -0.95507  -0.86541
 Alpha  occ. eigenvalues --   -0.86270  -0.82587  -0.79111  -0.77782  -0.77423
 Alpha  occ. eigenvalues --   -0.72285  -0.71390  -0.70592  -0.65145  -0.64889
 Alpha  occ. eigenvalues --   -0.64463  -0.62222  -0.60369  -0.58946  -0.57070
 Alpha  occ. eigenvalues --   -0.55375  -0.54828  -0.53200  -0.52963  -0.52236
 Alpha  occ. eigenvalues --   -0.51931  -0.49530  -0.49031  -0.49023  -0.47393
 Alpha  occ. eigenvalues --   -0.46096  -0.45204  -0.45105  -0.44760  -0.43219
 Alpha  occ. eigenvalues --   -0.37455  -0.36461
 Alpha virt. eigenvalues --    0.04850   0.11171   0.16334   0.19795   0.23356
 Alpha virt. eigenvalues --    0.24372   0.25978   0.26868   0.27643   0.28351
 Alpha virt. eigenvalues --    0.29623   0.30893   0.31630   0.32233   0.32495

 Mulliken charges:
               1
     1  C   -0.170099
     2  C   -0.218943
     3  C   -0.169595
     4  C    0.154993
     5  C   -0.175018
     6  C   -0.222345
     7  H    0.226295
     8  H    0.223921
     9  H    0.275819
    10  H    0.286066
    11  H    0.226056
    12  N    0.495732
    13  O   -0.469771
    14  O   -0.458218
    15  C   -0.311415
    16  C   -0.298895
    17  C   -0.475991
    18  H    0.164873
    19  H    0.146550
    20  H    0.152570
    21  H    0.152699
    22  H    0.155537
    23  H    0.142639
    24  H    0.160772
    25  C   -0.295388
    26  C   -0.312578
    27  C   -0.474922
    28  H    0.149091
    29  H    0.145055
    30  H    0.184035
    31  H    0.146062
    32  H    0.149325
    33  H    0.154642
    34  H    0.160446
 Sum of Mulliken charges =  -0.00000

 Dipole moment (field-independent basis, Debye):
    X=              3.5603    Y=              3.7920    Z=              0.0069  Tot=              5.2014
 Quadrupole moment (field-independent basis, Debye-Ang):
   XX=            -77.3538   YY=            -99.2257   ZZ=            -94.8673
   XY=              3.9689   XZ=              1.7826   YZ=             -1.2670

 Normal termination of Gaussian 16 at Thu May  6 09:31:42 2021.
