 Gaussian 16, Revision A.03,
 Gaussian 16:  EM64L-G16RevA.03 25-Dec-2016

 -------------
 #p 6-31g* mp2
 -------------

 ------------------------------------------------------
 Input file generated by CHIRIPA (05-May-2021 14:55:20)
 ------------------------------------------------------
 Symbolic Z-matrix:
 Charge =  0 Multiplicity = 1

                         Standard orientation:
 ---------------------------------------------------------------------
 Center     Atomic      Atomic             Coordinates (Angstroms)
 Number     Number       Type             X           Y           Z
 ---------------------------------------------------------------------
      1          6           0        0.112955   -1.546778    1.381003
      2          6           0       -0.178068   -1.967764    0.079236
      3          6           0       -1.309800   -1.487094   -0.586111
      4          6           0       -2.132465   -0.582367    0.083202
      5          6           0       -1.869343   -0.143986    1.380075
      6          6           0       -0.732121   -0.637835    2.026131
      7          1           0        0.994244   -1.925293    1.890368
      8          1           0        0.476444   -2.673580   -0.424234
      9          1           0       -1.558776   -1.796294   -1.593992
     10          1           0       -2.540608    0.560459    1.856078
     11          1           0       -0.508590   -0.309139    3.037090
     12          7           0       -3.333485   -0.066527   -0.610960
     13          8           0       -4.042369    0.729819    0.000557
     14          8           0       -3.543218   -0.468325   -1.753416
     15          6           0        3.060151    0.428950   -0.004868
     16          6           0        3.347195   -0.783171   -0.891636
     17          6           0        4.518144   -1.624180   -0.382349
     18          1           0        3.962435    1.052764    0.055820
     19          1           0        2.848630    0.085004    1.017068
     20          1           0        3.556753   -0.437132   -1.911910
     21          1           0        2.444064   -1.404073   -0.950376
     22          1           0        4.314380   -1.997308    0.626540
     23          1           0        5.433391   -1.024873   -0.340458
     24          1           0        4.705958   -2.485415   -1.031087
     25          6           0        1.892226    1.279552   -0.501009
     26          6           0        1.605183    2.491671    0.385759
     27          6           0        0.434233    3.332682   -0.123528
     28          1           0        2.103748    1.623497   -1.522945
     29          1           0        0.989941    0.655737   -0.561698
     30          1           0        2.508314    3.112573    0.444498
     31          1           0        1.395624    2.145633    1.406033
     32          1           0       -0.481015    2.733374   -0.165421
     33          1           0        0.637998    3.705809   -1.132417
     34          1           0        0.246418    4.193916    0.525210
 ---------------------------------------------------------------------

 SCF Done:  E(RHF) =  -669.533969112     A.U. after   15 cycles
 E2 =    -0.2096843424D+01 EUMP2 =    -0.67163081253632D+03

 The electronic state is 1-A.
 Alpha  occ. eigenvalues --  -20.60900 -20.60895 -15.85957 -11.31402 -11.27972
 Alpha  occ. eigenvalues --  -11.27941 -11.27681 -11.26983 -11.26936 -11.22250
 Alpha  occ. eigenvalues --  -11.21893 -11.21827 -11.21782 -11.21483 -11.21101
 Alpha  occ. eigenvalues --   -1.59975  -1.39525  -1.19582  -1.09021  -1.08756
 Alpha  occ. eigenvalues --   -1.04983  -1.03934  -0.96366  -0.95769  -0.87383
 Alpha  occ. eigenvalues --   -0.86370  -0.82599  -0.80033  -0.78608  -0.77636
 Alpha  occ. eigenvalues --   -0.72170  -0.71302  -0.70663  -0.65638  -0.65206
 Alpha  occ. eigenvalues --   -0.64903  -0.62359  -0.61306  -0.59761  -0.57973
 Alpha  occ. eigenvalues --   -0.55744  -0.55434  -0.53336  -0.53101  -0.53030
 Alpha  occ. eigenvalues --   -0.52745  -0.50305  -0.48943  -0.48921  -0.48330
 Alpha  occ. eigenvalues --   -0.47083  -0.46131  -0.45968  -0.44913  -0.44153
 Alpha  occ. eigenvalues --   -0.37491  -0.36511
 Alpha virt. eigenvalues --    0.04867   0.10891   0.16251   0.19614   0.23108
 Alpha virt. eigenvalues --    0.23617   0.25461   0.26229   0.27624   0.28161
 Alpha virt. eigenvalues --    0.29042   0.29250   0.31273   0.31686   0.32019

 Mulliken charges:
               1
     1  C   -0.168206
     2  C   -0.219084
     3  C   -0.172714
     4  C    0.159413
     5  C   -0.171124
     6  C   -0.217913
     7  H    0.227479
     8  H    0.225784
     9  H    0.276933
    10  H    0.277039
    11  H    0.224861
    12  N    0.487938
    13  O   -0.459647
    14  O   -0.459482
    15  C   -0.295961
    16  C   -0.303902
    17  C   -0.475201
    18  H    0.151678
    19  H    0.140338
    20  H    0.156177
    21  H    0.145529
    22  H    0.148235
    23  H    0.159471
    24  H    0.160723
    25  C   -0.304875
    26  C   -0.298105
    27  C   -0.476805
    28  H    0.149785
    29  H    0.160869
    30  H    0.150972
    31  H    0.145867
    32  H    0.156691
    33  H    0.157099
    34  H    0.160138
 Sum of Mulliken charges =  -0.00000

 Dipole moment (field-independent basis, Debye):
    X=              4.0841    Y=             -1.8288    Z=              2.4002  Tot=              5.0779
 Quadrupole moment (field-independent basis, Debye-Ang):
   XX=           -113.6379   YY=            -91.9133   ZZ=            -91.0469
   XY=              1.7376   XZ=             -6.7163   YZ=              0.7065

 Normal termination of Gaussian 16 at Thu May  6 04:33:31 2021.
