 Gaussian 16, Revision A.03,
 Gaussian 16:  EM64L-G16RevA.03 25-Dec-2016

 -------------
 #p 6-31g* mp2
 -------------

 ------------------------------------------------------
 Input file generated by CHIRIPA (05-May-2021 14:55:21)
 ------------------------------------------------------
 Symbolic Z-matrix:
 Charge =  0 Multiplicity = 1

                         Standard orientation:
 ---------------------------------------------------------------------
 Center     Atomic      Atomic             Coordinates (Angstroms)
 Number     Number       Type             X           Y           Z
 ---------------------------------------------------------------------
      1          6           0       -2.418305    2.391306    0.114852
      2          6           0       -3.674209    1.915134    0.505346
      3          6           0       -3.971035    0.551006    0.430535
      4          6           0       -2.983975   -0.312730   -0.041654
      5          6           0       -1.723381    0.131088   -0.438164
      6          6           0       -1.448609    1.499336   -0.354829
      7          1           0       -2.196289    3.452594    0.176278
      8          1           0       -4.429223    2.605542    0.870498
      9          1           0       -4.935103    0.155365    0.726268
     10          1           0       -0.991142   -0.581467   -0.798039
     11          1           0       -0.472397    1.866307   -0.658781
     12          7           0       -3.286538   -1.759052   -0.125366
     13          8           0       -2.399717   -2.499471   -0.544849
     14          8           0       -4.404779   -2.124875    0.230090
     15          6           0        3.811624    0.820098    0.269737
     16          6           0        2.926484    1.783069   -0.522221
     17          6           0        3.049436    3.229527   -0.042184
     18          1           0        3.545492    0.878606    1.334018
     19          1           0        4.858061    1.145893    0.190846
     20          1           0        1.882188    1.454762   -0.443000
     21          1           0        3.194625    1.722121   -1.584767
     22          1           0        4.082105    3.580488   -0.137174
     23          1           0        2.762212    3.311610    1.011079
     24          1           0        2.408288    3.900814   -0.621981
     25          6           0        3.699695   -0.629740   -0.198421
     26          6           0        4.584834   -1.592711    0.593537
     27          6           0        4.461882   -3.039169    0.113500
     28          1           0        2.653258   -0.955535   -0.119530
     29          1           0        3.965826   -0.688248   -1.262703
     30          1           0        4.316695   -1.531763    1.656082
     31          1           0        5.629131   -1.264404    0.514315
     32          1           0        4.749107   -3.121252   -0.939764
     33          1           0        3.429213   -3.390130    0.208490
     34          1           0        5.103031   -3.710456    0.693297
 ---------------------------------------------------------------------

 SCF Done:  E(RHF) =  -669.535579557     A.U. after   15 cycles
 E2 =    -0.2091184820D+01 EUMP2 =    -0.67162676437692D+03

 The electronic state is 1-A.
 Alpha  occ. eigenvalues --  -20.60760 -20.60755 -15.85813 -11.31176 -11.27747
 Alpha  occ. eigenvalues --  -11.27740 -11.27481 -11.26760 -11.26723 -11.22493
 Alpha  occ. eigenvalues --  -11.21954 -11.21917 -11.21833 -11.21763 -11.21124
 Alpha  occ. eigenvalues --   -1.59835  -1.39389  -1.19347  -1.08949  -1.08741
 Alpha  occ. eigenvalues --   -1.04751  -1.04033  -0.96455  -0.95578  -0.87473
 Alpha  occ. eigenvalues --   -0.86149  -0.82414  -0.80139  -0.78723  -0.77457
 Alpha  occ. eigenvalues --   -0.72031  -0.71159  -0.70455  -0.65612  -0.64998
 Alpha  occ. eigenvalues --   -0.64749  -0.62143  -0.61386  -0.59870  -0.58064
 Alpha  occ. eigenvalues --   -0.55726  -0.55248  -0.53174  -0.53079  -0.52899
 Alpha  occ. eigenvalues --   -0.52825  -0.50389  -0.48796  -0.48787  -0.48420
 Alpha  occ. eigenvalues --   -0.47164  -0.46259  -0.46157  -0.44795  -0.44278
 Alpha  occ. eigenvalues --   -0.37327  -0.36352
 Alpha virt. eigenvalues --    0.05070   0.11284   0.16521   0.19494   0.22817
 Alpha virt. eigenvalues --    0.23622   0.24970   0.26594   0.26731   0.28538
 Alpha virt. eigenvalues --    0.29451   0.29948   0.31028   0.31312   0.32145

 Mulliken charges:
               1
     1  C   -0.171683
     2  C   -0.218493
     3  C   -0.171044
     4  C    0.158628
     5  C   -0.173497
     6  C   -0.225077
     7  H    0.226149
     8  H    0.223351
     9  H    0.275558
    10  H    0.275461
    11  H    0.233105
    12  N    0.488110
    13  O   -0.460544
    14  O   -0.460501
    15  C   -0.298052
    16  C   -0.304408
    17  C   -0.476814
    18  H    0.151467
    19  H    0.152208
    20  H    0.143231
    21  H    0.155290
    22  H    0.160349
    23  H    0.156610
    24  H    0.156014
    25  C   -0.298830
    26  C   -0.300170
    27  C   -0.476854
    28  H    0.148348
    29  H    0.150754
    30  H    0.153002
    31  H    0.152078
    32  H    0.155449
    33  H    0.159307
    34  H    0.161496
 Sum of Mulliken charges =  -0.00000

 Dipole moment (field-independent basis, Debye):
    X=              1.2349    Y=              5.0535    Z=              0.3291  Tot=              5.2126
 Quadrupole moment (field-independent basis, Debye-Ang):
   XX=            -95.6374   YY=            -99.3987   ZZ=            -94.5523
   XY=            -16.5246   XZ=             -3.2975   YZ=             -0.2592

 Normal termination of Gaussian 16 at Wed May  5 23:49:15 2021.
