 Gaussian 16, Revision A.03,
 Gaussian 16:  EM64L-G16RevA.03 25-Dec-2016

 -------------
 #p 6-31g* mp2
 -------------

 ------------------------------------------------------
 Input file generated by CHIRIPA (05-May-2021 14:53:11)
 ------------------------------------------------------
 Symbolic Z-matrix:
 Charge =  0 Multiplicity = 1

                         Standard orientation:
 ---------------------------------------------------------------------
 Center     Atomic      Atomic             Coordinates (Angstroms)
 Number     Number       Type             X           Y           Z
 ---------------------------------------------------------------------
      1          6           0        4.100446    0.141428    0.197304
      2          6           0        3.543659    1.558017    0.051532
      3          6           0        2.031408    1.623913    0.267284
      4          1           0        3.596931   -0.519384   -0.521545
      5          1           0        3.854915   -0.240385    1.197968
      6          1           0        3.791367    1.937566   -0.948068
      7          1           0        4.048695    2.215574    0.770680
      8          1           0        1.769553    1.270592    1.269880
      9          1           0        1.510764    0.991005   -0.458634
     10          1           0        1.654495    2.645653    0.158448
     11          6           0        5.610967    0.059324   -0.015568
     12          6           0        6.167754   -1.357265    0.130205
     13          6           0        7.680005   -1.423161   -0.085548
     14          1           0        5.856498    0.441137   -1.016232
     15          1           0        6.114482    0.720136    0.703282
     16          1           0        5.662718   -2.014822   -0.588943
     17          1           0        5.920046   -1.736814    1.129804
     18          1           0        8.200649   -0.790253    0.640370
     19          1           0        7.941860   -1.069840   -1.088143
     20          1           0        8.056918   -2.444900    0.023288
     21          6           0       -2.333078    1.962430   -0.331691
     22          6           0       -3.653259    2.098197    0.110134
     23          6           0       -4.471536    0.974349    0.258245
     24          6           0       -3.934711   -0.275721   -0.045787
     25          6           0       -2.623406   -0.443519   -0.488071
     26          6           0       -1.823263    0.694241   -0.628859
     27          1           0       -1.704463    2.840865   -0.443903
     28          1           0       -4.051858    3.081844    0.341655
     29          1           0       -5.497128    1.050751    0.598454
     30          1           0       -2.254213   -1.437183   -0.711107
     31          1           0       -0.798365    0.585795   -0.972178
     32          7           0       -4.791385   -1.472852    0.107136
     33          8           0       -4.294676   -2.563091   -0.167264
     34          8           0       -5.943335   -1.298257    0.498501
 ---------------------------------------------------------------------

 SCF Done:  E(RHF) =  -669.535480724     A.U. after   15 cycles
 E2 =    -0.2090883652D+01 EUMP2 =    -0.67162636437647D+03

 The electronic state is 1-A.
 Alpha  occ. eigenvalues --  -20.60707 -20.60702 -15.85759 -11.31109 -11.27678
 Alpha  occ. eigenvalues --  -11.27664 -11.27404 -11.26691 -11.26642 -11.22413
 Alpha  occ. eigenvalues --  -11.22213 -11.22024 -11.21987 -11.21860 -11.21383
 Alpha  occ. eigenvalues --   -1.59783  -1.39337  -1.19276  -1.09031  -1.08672
 Alpha  occ. eigenvalues --   -1.04679  -1.04168  -0.96643  -0.95511  -0.87672
 Alpha  occ. eigenvalues --   -0.86072  -0.82346  -0.80244  -0.78804  -0.77397
 Alpha  occ. eigenvalues --   -0.71978  -0.71106  -0.70381  -0.65667  -0.64927
 Alpha  occ. eigenvalues --   -0.64698  -0.62073  -0.61532  -0.60033  -0.58226
 Alpha  occ. eigenvalues --   -0.55946  -0.55169  -0.53377  -0.53152  -0.52993
 Alpha  occ. eigenvalues --   -0.52677  -0.50567  -0.48747  -0.48734  -0.48530
 Alpha  occ. eigenvalues --   -0.47252  -0.46356  -0.46251  -0.44746  -0.44410
 Alpha  occ. eigenvalues --   -0.37251  -0.36278
 Alpha virt. eigenvalues --    0.05137   0.11344   0.16631   0.20098   0.22449
 Alpha virt. eigenvalues --    0.23857   0.25221   0.26309   0.26700   0.27556
 Alpha virt. eigenvalues --    0.28953   0.29427   0.31159   0.31638   0.32398

 Mulliken charges:
               1
     1  C   -0.298948
     2  C   -0.299511
     3  C   -0.479320
     4  H    0.148827
     5  H    0.151574
     6  H    0.153072
     7  H    0.155182
     8  H    0.161481
     9  H    0.147548
    10  H    0.156937
    11  C   -0.298811
    12  C   -0.300196
    13  C   -0.476066
    14  H    0.150024
    15  H    0.150719
    16  H    0.152481
    17  H    0.153032
    18  H    0.155670
    19  H    0.155478
    20  H    0.161814
    21  C   -0.172905
    22  C   -0.218652
    23  C   -0.171313
    24  C    0.158770
    25  C   -0.172718
    26  C   -0.221152
    27  H    0.226168
    28  H    0.223012
    29  H    0.275242
    30  H    0.275449
    31  H    0.230444
    32  N    0.488048
    33  O   -0.460647
    34  O   -0.460731
 Sum of Mulliken charges =  -0.00000

 Dipole moment (field-independent basis, Debye):
    X=              3.2461    Y=              4.2232    Z=             -0.4841  Tot=              5.3485
 Quadrupole moment (field-independent basis, Debye-Ang):
   XX=           -116.4135   YY=            -95.8608   ZZ=            -94.0499
   XY=            -19.8820   XZ=              1.0618   YZ=              1.1753

 Normal termination of Gaussian 16 at Thu May  6 02:28:27 2021.
