 Gaussian 16, Revision A.03,
 Gaussian 16:  EM64L-G16RevA.03 25-Dec-2016

 -------------
 #p 6-31g* mp2
 -------------

 ------------------------------------------------------
 Input file generated by CHIRIPA (05-May-2021 14:55:20)
 ------------------------------------------------------
 Symbolic Z-matrix:
 Charge =  0 Multiplicity = 1

                         Standard orientation:
 ---------------------------------------------------------------------
 Center     Atomic      Atomic             Coordinates (Angstroms)
 Number     Number       Type             X           Y           Z
 ---------------------------------------------------------------------
      1          6           0       -4.619905    1.837158    0.191418
      2          6           0       -4.451917    1.162399   -1.022254
      3          6           0       -3.520853    0.125626   -1.135260
      4          6           0       -2.771214   -0.211813   -0.009442
      5          6           0       -2.915520    0.441541    1.213503
      6          6           0       -3.852524    1.475214    1.303463
      7          1           0       -5.345485    2.641344    0.270252
      8          1           0       -5.046496    1.441346   -1.887534
      9          1           0       -3.370451   -0.413450   -2.062727
     10          1           0       -2.308273    0.140886    2.058651
     11          1           0       -3.980853    1.997490    2.247287
     12          7           0       -1.782394   -1.307757   -0.116878
     13          8           0       -1.134238   -1.585973    0.889664
     14          8           0       -1.674236   -1.867790   -1.205593
     15          6           0        4.193855    0.606024    0.255931
     16          6           0        4.195310    1.844936   -0.640217
     17          6           0        5.076297    2.968778   -0.093739
     18          1           0        3.849651    0.888234    1.260334
     19          1           0        5.224710    0.242886    0.369346
     20          1           0        3.164594    2.204815   -0.753031
     21          1           0        4.539368    1.559707   -1.642655
     22          1           0        6.113837    2.632814    0.002387
     23          1           0        4.731251    3.281587    0.897065
     24          1           0        5.062719    3.844662   -0.749867
     25          6           0        3.317653   -0.526182   -0.277087
     26          6           0        3.316198   -1.765095    0.619060
     27          6           0        2.435212   -2.888935    0.072583
     28          1           0        2.286798   -0.163045   -0.390502
     29          1           0        3.661857   -0.808392   -1.281490
     30          1           0        2.972140   -1.479865    1.621499
     31          1           0        4.346915   -2.124974    0.731875
     32          1           0        2.780257   -3.201745   -0.918222
     33          1           0        1.397671   -2.552971   -0.023544
     34          1           0        2.448789   -3.764820    0.728711
 ---------------------------------------------------------------------

 SCF Done:  E(RHF) =  -669.536706302     A.U. after   15 cycles
 E2 =    -0.2091370581D+01 EUMP2 =    -0.67162807688261D+03

 The electronic state is 1-A.
 Alpha  occ. eigenvalues --  -20.61088 -20.61079 -15.86087 -11.31374 -11.27927
 Alpha  occ. eigenvalues --  -11.27922 -11.27656 -11.26922 -11.26912 -11.21089
 Alpha  occ. eigenvalues --  -11.20693 -11.20674 -11.20393 -11.20316 -11.19228
 Alpha  occ. eigenvalues --   -1.60127  -1.39683  -1.19533  -1.08946  -1.07560
 Alpha  occ. eigenvalues --   -1.04922  -1.02560  -0.95793  -0.94987  -0.86324
 Alpha  occ. eigenvalues --   -0.86002  -0.82626  -0.78687  -0.77687  -0.77308
 Alpha  occ. eigenvalues --   -0.72293  -0.71436  -0.70640  -0.65187  -0.64924
 Alpha  occ. eigenvalues --   -0.64198  -0.62268  -0.59951  -0.58464  -0.56595
 Alpha  occ. eigenvalues --   -0.55432  -0.54266  -0.53256  -0.53011  -0.51690
 Alpha  occ. eigenvalues --   -0.51418  -0.49314  -0.49057  -0.48675  -0.46949
 Alpha  occ. eigenvalues --   -0.45718  -0.45120  -0.44844  -0.44680  -0.42836
 Alpha  occ. eigenvalues --   -0.37509  -0.36520
 Alpha virt. eigenvalues --    0.04821   0.11136   0.16329   0.21277   0.23646
 Alpha virt. eigenvalues --    0.25372   0.27201   0.27459   0.28156   0.28305
 Alpha virt. eigenvalues --    0.29133   0.30842   0.32346   0.32446   0.32531

 Mulliken charges:
               1
     1  C   -0.170386
     2  C   -0.218605
     3  C   -0.170632
     4  C    0.158712
     5  C   -0.170782
     6  C   -0.218575
     7  H    0.226325
     8  H    0.224163
     9  H    0.276180
    10  H    0.275908
    11  H    0.224115
    12  N    0.488008
    13  O   -0.459314
    14  O   -0.458160
    15  C   -0.297494
    16  C   -0.298581
    17  C   -0.475027
    18  H    0.147588
    19  H    0.147895
    20  H    0.149676
    21  H    0.151483
    22  H    0.154852
    23  H    0.153534
    24  H    0.157800
    25  C   -0.297116
    26  C   -0.297755
    27  C   -0.485881
    28  H    0.150690
    29  H    0.147769
    30  H    0.150713
    31  H    0.145203
    32  H    0.147428
    33  H    0.185604
    34  H    0.154663
 Sum of Mulliken charges =  -0.00000

 Dipole moment (field-independent basis, Debye):
    X=             -3.8923    Y=              3.8300    Z=              0.3668  Tot=              5.4730
 Quadrupole moment (field-independent basis, Debye-Ang):
   XX=            -76.5324   YY=            -98.1081   ZZ=            -90.0389
   XY=            -10.8492   XZ=             -0.2203   YZ=              0.6477

 Normal termination of Gaussian 16 at Thu May  6 02:55:41 2021.
