 Gaussian 16, Revision A.03,
 Gaussian 16:  EM64L-G16RevA.03 25-Dec-2016

 -------------
 #p 6-31g* mp2
 -------------

 ------------------------------------------------------
 Input file generated by CHIRIPA (05-May-2021 14:51:13)
 ------------------------------------------------------
 Symbolic Z-matrix:
 Charge =  0 Multiplicity = 1

                         Standard orientation:
 ---------------------------------------------------------------------
 Center     Atomic      Atomic             Coordinates (Angstroms)
 Number     Number       Type             X           Y           Z
 ---------------------------------------------------------------------
      1          6           0        2.566517   -0.191942    0.314056
      2          6           0        2.044241   -0.838624    1.597416
      3          6           0        0.518195   -0.924521    1.637416
      4          1           0        2.138509    0.815307    0.218114
      5          1           0        2.207958   -0.767574   -0.550512
      6          1           0        2.404822   -0.262744    2.459367
      7          1           0        2.473692   -1.844378    1.690412
      8          1           0        0.143500   -1.516690    0.796262
      9          1           0        0.074239    0.073930    1.569586
     10          1           0        0.166429   -1.390025    2.563389
     11          6           0        4.090354   -0.098950    0.259265
     12          6           0        4.612630    0.547732   -1.024095
     13          6           0        6.138676    0.633628   -1.064095
     14          1           0        4.448913    0.476682    1.123833
     15          1           0        4.518361   -1.106199    0.355207
     16          1           0        4.183179    1.553486   -1.117091
     17          1           0        4.252048   -0.028148   -1.886046
     18          1           0        6.582631   -0.364822   -0.996265
     19          1           0        6.513370    1.225798   -0.222941
     20          1           0        6.490441    1.099133   -1.990068
     21          6           0       -3.269206    0.745796    0.181852
     22          6           0       -3.485595    2.086680   -0.520422
     23          6           0       -3.363942    3.278191    0.429997
     24          1           0       -3.999772    0.643371    0.995933
     25          1           0       -2.275657    0.741720    0.651148
     26          1           0       -4.477891    2.087699   -0.989427
     27          1           0       -2.754553    2.185839   -1.333048
     28          1           0       -2.370204    3.305236    0.888641
     29          1           0       -4.103334    3.206538    1.234214
     30          1           0       -3.522204    4.226579   -0.092854
     31          6           0       -3.387665   -0.454903   -0.755174
     32          6           0       -3.171276   -1.795788   -0.052898
     33          6           0       -3.292929   -2.987299   -1.003317
     34          1           0       -4.381213   -0.450828   -1.224469
     35          1           0       -2.657098   -0.352480   -1.569254
     36          1           0       -3.902318   -1.894947    0.759728
     37          1           0       -2.178980   -1.796807    0.416106
     38          1           0       -2.553537   -2.915647   -1.807536
     39          1           0       -4.286666   -3.014344   -1.461962
     40          1           0       -3.134667   -3.935687   -0.480466
 ---------------------------------------------------------------------

 SCF Done:  E(RHF) =  -470.732889180     A.U. after   11 cycles
 E2 =    -0.1583319128D+01 EUMP2 =    -0.47231620830857D+03

 The electronic state is 1-A.
 Alpha  occ. eigenvalues --  -11.21674 -11.21642 -11.21552 -11.21467 -11.21455
 Alpha  occ. eigenvalues --  -11.21404 -11.21317 -11.21257 -11.21171 -11.21102
 Alpha  occ. eigenvalues --  -11.21051 -11.21012  -1.08493  -1.08351  -1.03598
 Alpha  occ. eigenvalues --   -1.03462  -0.96052  -0.95919  -0.87077  -0.86934
 Alpha  occ. eigenvalues --   -0.79696  -0.79506  -0.78326  -0.78132  -0.65124
 Alpha  occ. eigenvalues --   -0.64995  -0.61082  -0.60800  -0.59413  -0.59287
 Alpha  occ. eigenvalues --   -0.57661  -0.57529  -0.55412  -0.55148  -0.52759
 Alpha  occ. eigenvalues --   -0.52629  -0.52474  -0.52346  -0.50117  -0.49764
 Alpha  occ. eigenvalues --   -0.48068  -0.47821  -0.46810  -0.46397  -0.45983
 Alpha  occ. eigenvalues --   -0.45753  -0.45688  -0.45388  -0.43840  -0.43711
 Alpha virt. eigenvalues --    0.21358   0.22990   0.23840   0.24446   0.25346
 Alpha virt. eigenvalues --    0.26603   0.27168   0.27565   0.27967   0.29377
 Alpha virt. eigenvalues --    0.29852   0.31666   0.31729   0.31914   0.32313

 Mulliken charges:
               1
     1  C   -0.298434
     2  C   -0.300222
     3  C   -0.481054
     4  H    0.149353
     5  H    0.149460
     6  H    0.152254
     7  H    0.152382
     8  H    0.157358
     9  H    0.157842
    10  H    0.161578
    11  C   -0.298315
    12  C   -0.299705
    13  C   -0.475748
    14  H    0.149718
    15  H    0.149850
    16  H    0.151971
    17  H    0.151944
    18  H    0.155266
    19  H    0.155273
    20  H    0.160393
    21  C   -0.303916
    22  C   -0.299449
    23  C   -0.475408
    24  H    0.149297
    25  H    0.155532
    26  H    0.151814
    27  H    0.151726
    28  H    0.154228
    29  H    0.155233
    30  H    0.160104
    31  C   -0.297216
    32  C   -0.308986
    33  C   -0.475410
    34  H    0.149080
    35  H    0.148935
    36  H    0.151348
    37  H    0.162910
    38  H    0.154207
    39  H    0.155032
    40  H    0.159775
 Sum of Mulliken charges =  -0.00000

 Dipole moment (field-independent basis, Debye):
    X=              0.0567    Y=             -0.0084    Z=              0.0340  Tot=              0.0666
 Quadrupole moment (field-independent basis, Debye-Ang):
   XX=            -85.1009   YY=            -84.9561   ZZ=            -84.8922
   XY=             -0.2158   XZ=             -0.1175   YZ=             -0.1614

 Normal termination of Gaussian 16 at Thu May  6 02:23:47 2021.
