 Gaussian 16, Revision A.03,
 Gaussian 16:  EM64L-G16RevA.03 25-Dec-2016

 -------------
 #p 6-31g* mp2
 -------------

 ------------------------------------------------------
 Input file generated by CHIRIPA (05-May-2021 14:57:25)
 ------------------------------------------------------
 Symbolic Z-matrix:
 Charge =  0 Multiplicity = 1

                         Standard orientation:
 ---------------------------------------------------------------------
 Center     Atomic      Atomic             Coordinates (Angstroms)
 Number     Number       Type             X           Y           Z
 ---------------------------------------------------------------------
      1          6           0       -3.887612    0.650586    2.283166
      2          6           0       -4.646368    0.984350    1.156484
      3          6           0       -4.249114    0.565129   -0.116698
      4          6           0       -3.082469   -0.189875   -0.227144
      5          6           0       -2.305157   -0.538470    0.876285
      6          6           0       -2.721485   -0.108421    2.139724
      7          1           0       -4.203617    0.980452    3.268420
      8          1           0       -5.552442    1.573692    1.264880
      9          1           0       -4.817682    0.809350   -1.005801
     10          1           0       -1.406617   -1.127137    0.736588
     11          1           0       -2.130251   -0.369112    3.012953
     12          7           0       -2.651818   -0.639417   -1.569847
     13          8           0       -1.620052   -1.303580   -1.640436
     14          8           0       -3.354195   -0.319094   -2.526245
     15          6           0        3.306449   -2.327916    0.614814
     16          6           0        4.358583   -1.461175    0.928333
     17          6           0        4.284653   -0.105286    0.595695
     18          6           0        3.138654    0.352034   -0.053022
     19          6           0        2.073794   -0.486553   -0.378803
     20          6           0        2.169416   -1.838701   -0.036604
     21          1           0        3.372305   -3.379750    0.876928
     22          1           0        5.242834   -1.838322    1.434205
     23          1           0        5.084540    0.587747    0.826574
     24          1           0        1.205139   -0.081262   -0.883380
     25          1           0        1.350779   -2.509513   -0.281328
     26          7           0        3.048905    1.785472   -0.410231
     27          8           0        2.028462    2.163608   -0.981499
     28          8           0        4.000702    2.503724   -0.112180
 ---------------------------------------------------------------------

 SCF Done:  E(RHF) =  -868.339676377     A.U. after   16 cycles
 E2 =    -0.2599423049D+01 EUMP2 =    -0.87093909942535D+03

 The electronic state is 1-A.
 Alpha  occ. eigenvalues --  -20.61346 -20.61260 -20.60492 -20.60476 -15.86331
 Alpha  occ. eigenvalues --  -15.85536 -11.31489 -11.30855 -11.28092 -11.27994
 Alpha  occ. eigenvalues --  -11.27720 -11.27484 -11.27307 -11.27203 -11.27021
 Alpha  occ. eigenvalues --  -11.26975 -11.26498 -11.26355  -1.60346  -1.59565
 Alpha  occ. eigenvalues --   -1.39918  -1.39117  -1.19635  -1.19040  -1.09064
 Alpha  occ. eigenvalues --   -1.08454  -1.05017  -1.04415  -0.95940  -0.95285
 Alpha  occ. eigenvalues --   -0.86428  -0.85821  -0.82792  -0.82099  -0.77878
 Alpha  occ. eigenvalues --   -0.77135  -0.72566  -0.71756  -0.71637  -0.70891
 Alpha  occ. eigenvalues --   -0.70757  -0.70138  -0.65302  -0.65027  -0.64680
 Alpha  occ. eigenvalues --   -0.64397  -0.62397  -0.61709  -0.55520  -0.54948
 Alpha  occ. eigenvalues --   -0.53337  -0.53124  -0.52778  -0.52478  -0.49332
 Alpha  occ. eigenvalues --   -0.49275  -0.48516  -0.48505  -0.45357  -0.44531
 Alpha  occ. eigenvalues --   -0.37587  -0.37057  -0.36603  -0.36035
 Alpha virt. eigenvalues --    0.04642   0.05336   0.11026   0.11614   0.16169
 Alpha virt. eigenvalues --    0.16735   0.20462   0.21996   0.25689   0.27429
 Alpha virt. eigenvalues --    0.28482   0.29005   0.30807   0.31404   0.32981

 Mulliken charges:
               1
     1  C   -0.169534
     2  C   -0.217832
     3  C   -0.169267
     4  C    0.160546
     5  C   -0.170489
     6  C   -0.217555
     7  H    0.227235
     8  H    0.225303
     9  H    0.277006
    10  H    0.267946
    11  H    0.224050
    12  N    0.491185
    13  O   -0.473466
    14  O   -0.452945
    15  C   -0.171487
    16  C   -0.219350
    17  C   -0.171574
    18  C    0.158363
    19  C   -0.177384
    20  C   -0.227782
    21  H    0.224316
    22  H    0.221722
    23  H    0.274174
    24  H    0.287140
    25  H    0.233345
    26  N    0.487706
    27  O   -0.458720
    28  O   -0.462652
 Sum of Mulliken charges =  -0.00000

 Dipole moment (field-independent basis, Debye):
    X=             -1.5561    Y=             -3.3721    Z=              5.9195  Tot=              6.9880
 Quadrupole moment (field-independent basis, Debye-Ang):
   XX=            -86.1316   YY=           -109.2775   ZZ=           -106.4178
   XY=            -22.2119   XZ=             -6.6912   YZ=             -1.1463

 Normal termination of Gaussian 16 at Thu May  6 11:26:16 2021.
