 Gaussian 16, Revision A.03,
 Gaussian 16:  EM64L-G16RevA.03 25-Dec-2016

 -------------
 #p 6-31g* mp2
 -------------

 ------------------------------------------------------
 Input file generated by CHIRIPA (05-May-2021 14:57:23)
 ------------------------------------------------------
 Symbolic Z-matrix:
 Charge =  0 Multiplicity = 1

                         Standard orientation:
 ---------------------------------------------------------------------
 Center     Atomic      Atomic             Coordinates (Angstroms)
 Number     Number       Type             X           Y           Z
 ---------------------------------------------------------------------
      1          6           0       -5.186857    1.920582    0.255693
      2          6           0       -5.235777    1.107310   -0.881284
      3          6           0       -4.374996    0.013117   -1.009136
      4          6           0       -3.473692   -0.239875    0.023789
      5          6           0       -3.400799    0.551835    1.168853
      6          6           0       -4.271139    1.640742    1.275335
      7          1           0       -5.859245    2.768524    0.346712
      8          1           0       -5.945915    1.322249   -1.674726
      9          1           0       -4.391557   -0.632878   -1.878523
     10          1           0       -2.682131    0.312411    1.943198
     11          1           0       -4.230913    2.270622    2.159461
     12          7           0       -2.557362   -1.395450   -0.100251
     13          8           0       -1.772402   -1.597092    0.823770
     14          8           0       -2.641453   -2.077666   -1.119146
     15          6           0        5.445994    1.784984   -0.235771
     16          6           0        5.746615    0.504375    0.239822
     17          6           0        4.745457   -0.465192    0.350138
     18          6           0        3.448639   -0.118366   -0.025715
     19          6           0        3.117655    1.148837   -0.503141
     20          6           0        4.134785    2.102568   -0.605083
     21          1           0        6.229921    2.532017   -0.318214
     22          1           0        6.764032    0.254923    0.527366
     23          1           0        4.950421   -1.464273    0.715166
     24          1           0        2.094114    1.367867   -0.782083
     25          1           0        3.898407    3.096301   -0.974766
     26          7           0        2.380304   -1.136421    0.086638
     27          8           0        1.245682   -0.805845   -0.250986
     28          8           0        2.697794   -2.245671    0.510198
 ---------------------------------------------------------------------

 SCF Done:  E(RHF) =  -868.334783687     A.U. after   16 cycles
 E2 =    -0.2600642019D+01 EUMP2 =    -0.87093542570645D+03

 The electronic state is 1-A.
 Alpha  occ. eigenvalues --  -20.59867 -20.59826 -20.59561 -20.59436 -15.84927
 Alpha  occ. eigenvalues --  -15.84567 -11.30659 -11.30410 -11.27286 -11.27260
 Alpha  occ. eigenvalues --  -11.27083 -11.27040 -11.27027 -11.26881 -11.26382
 Alpha  occ. eigenvalues --  -11.26357 -11.26170 -11.26160  -1.58914  -1.58549
 Alpha  occ. eigenvalues --   -1.38466  -1.38099  -1.18866  -1.18630  -1.08190
 Alpha  occ. eigenvalues --   -1.07936  -1.04326  -1.04106  -0.94963  -0.94688
 Alpha  occ. eigenvalues --   -0.85707  -0.85481  -0.81801  -0.81526  -0.76787
 Alpha  occ. eigenvalues --   -0.76489  -0.71179  -0.70762  -0.70269  -0.69981
 Alpha  occ. eigenvalues --   -0.69843  -0.69739  -0.64511  -0.64334  -0.64271
 Alpha  occ. eigenvalues --   -0.64117  -0.61673  -0.61448  -0.54814  -0.54600
 Alpha  occ. eigenvalues --   -0.52634  -0.52429  -0.52407  -0.52207  -0.47960
 Alpha  occ. eigenvalues --   -0.47874  -0.47531  -0.47440  -0.43847  -0.43307
 Alpha  occ. eigenvalues --   -0.36867  -0.36638  -0.35948  -0.35735
 Alpha virt. eigenvalues --    0.05740   0.06092   0.11701   0.11914   0.17167
 Alpha virt. eigenvalues --    0.17496   0.21787   0.21981   0.27667   0.27857
 Alpha virt. eigenvalues --    0.28708   0.28921   0.31306   0.31495   0.32950

 Mulliken charges:
               1
     1  C   -0.172741
     2  C   -0.218796
     3  C   -0.172000
     4  C    0.160606
     5  C   -0.171446
     6  C   -0.219137
     7  H    0.222114
     8  H    0.220572
     9  H    0.274908
    10  H    0.276233
    11  H    0.220201
    12  N    0.488923
    13  O   -0.445831
    14  O   -0.463457
    15  C   -0.172069
    16  C   -0.218445
    17  C   -0.171420
    18  C    0.159648
    19  C   -0.171730
    20  C   -0.218509
    21  H    0.223326
    22  H    0.221912
    23  H    0.275856
    24  H    0.273751
    25  H    0.220667
    26  N    0.487171
    27  O   -0.451397
    28  O   -0.458910
 Sum of Mulliken charges =  -0.00000

 Dipole moment (field-independent basis, Debye):
    X=              0.6250    Y=              7.3829    Z=              0.0994  Tot=              7.4100
 Quadrupole moment (field-independent basis, Debye-Ang):
   XX=            -56.6912   YY=           -106.5314   ZZ=           -101.2769
   XY=             -3.4082   XZ=              0.3513   YZ=             -0.3709

 Normal termination of Gaussian 16 at Thu May  6 01:50:16 2021.
