 Gaussian 16, Revision A.03,
 Gaussian 16:  EM64L-G16RevA.03 25-Dec-2016

 -------------
 #p 6-31g* mp2
 -------------

 ------------------------------------------------------
 Input file generated by CHIRIPA (05-May-2021 14:53:15)
 ------------------------------------------------------
 Symbolic Z-matrix:
 Charge =  0 Multiplicity = 1

                         Standard orientation:
 ---------------------------------------------------------------------
 Center     Atomic      Atomic             Coordinates (Angstroms)
 Number     Number       Type             X           Y           Z
 ---------------------------------------------------------------------
      1          6           0        3.547723   -0.560036    0.344515
      2          6           0        3.749880   -1.755807   -0.586746
      3          6           0        3.253633   -3.068423    0.020356
      4          1           0        4.071173   -0.748549    1.291831
      5          1           0        2.480250   -0.471332    0.589523
      6          1           0        4.816470   -1.841397   -0.831032
      7          1           0        3.226047   -1.564342   -1.532027
      8          1           0        2.184495   -3.007646    0.248062
      9          1           0        3.783955   -3.286275    0.953040
     10          1           0        3.407838   -3.910023   -0.662133
     11          6           0        4.038900    0.759411   -0.248387
     12          6           0        3.836743    1.955183    0.682874
     13          6           0        4.332990    3.267799    0.075773
     14          1           0        5.106373    0.670707   -0.493395
     15          1           0        3.515450    0.947925   -1.195703
     16          1           0        4.360577    1.763718    1.628155
     17          1           0        2.770153    2.040772    0.927160
     18          1           0        3.802669    3.485651   -0.856912
     19          1           0        5.402128    3.207022   -0.151934
     20          1           0        4.178785    4.109399    0.758261
     21          6           0       -0.935015   -1.578096   -0.058267
     22          6           0       -0.821867   -0.242321   -0.457548
     23          6           0       -1.939136    0.598038   -0.450082
     24          6           0       -3.159634    0.067154   -0.035547
     25          6           0       -3.304403   -1.259300    0.368001
     26          6           0       -2.173738   -2.081435    0.352508
     27          1           0       -0.061891   -2.223828   -0.067185
     28          1           0        0.138877    0.151297   -0.777048
     29          1           0       -1.879809    1.636042   -0.754131
     30          1           0       -4.275445   -1.623031    0.681361
     31          1           0       -2.264574   -3.118407    0.663125
     32          7           0       -4.349527    0.947157   -0.023395
     33          8           0       -5.413536    0.455264    0.346146
     34          8           0       -4.195625    2.112136   -0.383640
 ---------------------------------------------------------------------

 SCF Done:  E(RHF) =  -669.535391723     A.U. after   15 cycles
 E2 =    -0.2091895605D+01 EUMP2 =    -0.67162728732764D+03

 The electronic state is 1-A.
 Alpha  occ. eigenvalues --  -20.60762 -20.60757 -15.85816 -11.31187 -11.27761
 Alpha  occ. eigenvalues --  -11.27755 -11.27486 -11.26774 -11.26761 -11.22701
 Alpha  occ. eigenvalues --  -11.22441 -11.22333 -11.22313 -11.22255 -11.21640
 Alpha  occ. eigenvalues --   -1.59837  -1.39391  -1.19361  -1.09397  -1.08753
 Alpha  occ. eigenvalues --   -1.04766  -1.04453  -0.96909  -0.95589  -0.87921
 Alpha  occ. eigenvalues --   -0.86163  -0.82423  -0.80517  -0.79175  -0.77467
 Alpha  occ. eigenvalues --   -0.72034  -0.71161  -0.70497  -0.66089  -0.65011
 Alpha  occ. eigenvalues --   -0.64737  -0.62115  -0.61862  -0.60276  -0.58501
 Alpha  occ. eigenvalues --   -0.56323  -0.55198  -0.53572  -0.53307  -0.53091
 Alpha  occ. eigenvalues --   -0.52854  -0.50857  -0.48824  -0.48789  -0.48784
 Alpha  occ. eigenvalues --   -0.47565  -0.46706  -0.46646  -0.44795  -0.44704
 Alpha  occ. eigenvalues --   -0.37334  -0.36368
 Alpha virt. eigenvalues --    0.05065   0.11210   0.16539   0.17786   0.22014
 Alpha virt. eigenvalues --    0.23709   0.25059   0.25515   0.26583   0.28388
 Alpha virt. eigenvalues --    0.29034   0.30789   0.31155   0.31369   0.32089

 Mulliken charges:
               1
     1  C   -0.301881
     2  C   -0.301509
     3  C   -0.479176
     4  H    0.154677
     5  H    0.143897
     6  H    0.157837
     7  H    0.149848
     8  H    0.145553
     9  H    0.161271
    10  H    0.164941
    11  C   -0.299428
    12  C   -0.300260
    13  C   -0.476176
    14  H    0.153506
    15  H    0.146699
    16  H    0.154710
    17  H    0.150298
    18  H    0.155039
    19  H    0.156844
    20  H    0.163557
    21  C   -0.177624
    22  C   -0.224690
    23  C   -0.170826
    24  C    0.158443
    25  C   -0.170550
    26  C   -0.221114
    27  H    0.237374
    28  H    0.226038
    29  H    0.275646
    30  H    0.275665
    31  H    0.224225
    32  N    0.487971
    33  O   -0.460357
    34  O   -0.460449
 Sum of Mulliken charges =  -0.00000

 Dipole moment (field-independent basis, Debye):
    X=              4.4410    Y=             -3.0793    Z=             -0.0053  Tot=              5.4041
 Quadrupole moment (field-independent basis, Debye-Ang):
   XX=           -118.0878   YY=            -93.2213   ZZ=            -94.9042
   XY=             12.0901   XZ=             -0.4942   YZ=             -1.1094

 Normal termination of Gaussian 16 at Wed May  5 18:39:13 2021.
