 Gaussian 16, Revision A.03,
 Gaussian 16:  EM64L-G16RevA.03 25-Dec-2016

 -------------
 #p 6-31g* mp2
 -------------

 ------------------------------------------------------
 Input file generated by CHIRIPA (05-May-2021 14:57:26)
 ------------------------------------------------------
 Symbolic Z-matrix:
 Charge =  0 Multiplicity = 1

                         Standard orientation:
 ---------------------------------------------------------------------
 Center     Atomic      Atomic             Coordinates (Angstroms)
 Number     Number       Type             X           Y           Z
 ---------------------------------------------------------------------
      1          6           0       -5.491410   -0.652271    1.371902
      2          6           0       -4.267560   -1.309510    1.535454
      3          6           0       -3.177384   -0.993679    0.719174
      4          6           0       -3.347035   -0.011090   -0.255006
      5          6           0       -4.553612    0.661453   -0.442484
      6          6           0       -5.630285    0.329382    0.385194
      7          1           0       -6.333041   -0.903923    2.010436
      8          1           0       -4.156814   -2.072294    2.300921
      9          1           0       -2.218648   -1.486857    0.824148
     10          1           0       -4.633518    1.417406   -1.214215
     11          1           0       -6.579562    0.841441    0.255909
     12          7           0       -2.200061    0.331862   -1.125199
     13          8           0       -2.375267    1.201264   -1.976129
     14          8           0       -1.147576   -0.275228   -0.939850
     15          6           0        3.047982    2.448765    0.788200
     16          6           0        4.077511    1.739742    1.415796
     17          6           0        4.356813    0.419901    1.048974
     18          6           0        3.583256   -0.162589    0.046175
     19          6           0        2.550864    0.517658   -0.597813
     20          6           0        2.289282    1.836539   -0.214833
     21          1           0        2.837896    3.473677    1.079432
     22          1           0        4.668360    2.212662    2.195084
     23          1           0        5.147975   -0.152093    1.518338
     24          1           0        1.979073    0.019441   -1.371281
     25          1           0        1.489121    2.384756   -0.703961
     26          7           0        3.869562   -1.559337   -0.350715
     27          8           0        3.173539   -2.049897   -1.237023
     28          8           0        4.784569   -2.137102    0.232024
 ---------------------------------------------------------------------

 SCF Done:  E(RHF) =  -868.339803958     A.U. after   16 cycles
 E2 =    -0.2598601045D+01 EUMP2 =    -0.87093840500330D+03

 The electronic state is 1-A.
 Alpha  occ. eigenvalues --  -20.61373 -20.61344 -20.59908 -20.59876 -15.86381
 Alpha  occ. eigenvalues --  -15.84940 -11.31532 -11.30160 -11.28091 -11.28049
 Alpha  occ. eigenvalues --  -11.27788 -11.27056 -11.27024 -11.26838 -11.26550
 Alpha  occ. eigenvalues --  -11.26542 -11.25851 -11.25615  -1.60429  -1.58976
 Alpha  occ. eigenvalues --   -1.39982  -1.38528  -1.19687  -1.18352  -1.09127
 Alpha  occ. eigenvalues --   -1.07797  -1.05055  -1.03705  -0.95995  -0.94637
 Alpha  occ. eigenvalues --   -0.86463  -0.85131  -0.82829  -0.81452  -0.77898
 Alpha  occ. eigenvalues --   -0.76495  -0.72615  -0.71732  -0.71164  -0.70791
 Alpha  occ. eigenvalues --   -0.70300  -0.69473  -0.65342  -0.65055  -0.64000
 Alpha  occ. eigenvalues --   -0.63710  -0.62399  -0.61020  -0.55570  -0.54287
 Alpha  occ. eigenvalues --   -0.53401  -0.53141  -0.52094  -0.51783  -0.49377
 Alpha  occ. eigenvalues --   -0.49362  -0.47930  -0.47904  -0.45429  -0.43964
 Alpha  occ. eigenvalues --   -0.37662  -0.36649  -0.36394  -0.35299
 Alpha virt. eigenvalues --    0.04606   0.06001   0.11008   0.12327   0.16144
 Alpha virt. eigenvalues --    0.17491   0.21173   0.22460   0.27108   0.28011
 Alpha virt. eigenvalues --    0.28472   0.29353   0.30771   0.31942   0.32295

 Mulliken charges:
               1
     1  C   -0.170082
     2  C   -0.218798
     3  C   -0.170575
     4  C    0.157192
     5  C   -0.170930
     6  C   -0.218771
     7  H    0.226948
     8  H    0.225661
     9  H    0.278755
    10  H    0.275189
    11  H    0.224206
    12  N    0.489262
    13  O   -0.462385
    14  O   -0.463667
    15  C   -0.172269
    16  C   -0.220102
    17  C   -0.172761
    18  C    0.154913
    19  C   -0.167843
    20  C   -0.222050
    21  H    0.221570
    22  H    0.218635
    23  H    0.271602
    24  H    0.291582
    25  H    0.230692
    26  N    0.487627
    27  O   -0.457535
    28  O   -0.466068
 Sum of Mulliken charges =  -0.00000

 Dipole moment (field-independent basis, Debye):
    X=             -5.4921    Y=              3.6394    Z=              4.3334  Tot=              7.8859
 Quadrupole moment (field-independent basis, Debye-Ang):
   XX=            -82.4525   YY=           -105.4632   ZZ=           -103.9284
   XY=             19.7550   XZ=             -0.8286   YZ=             -1.9926

 Normal termination of Gaussian 16 at Thu May  6 21:21:55 2021.
