 Gaussian 16, Revision A.03,
 Gaussian 16:  EM64L-G16RevA.03 25-Dec-2016

 -------------
 #p 6-31g* mp2
 -------------

 ------------------------------------------------------
 Input file generated by CHIRIPA (05-May-2021 14:57:25)
 ------------------------------------------------------
 Symbolic Z-matrix:
 Charge =  0 Multiplicity = 1

                         Standard orientation:
 ---------------------------------------------------------------------
 Center     Atomic      Atomic             Coordinates (Angstroms)
 Number     Number       Type             X           Y           Z
 ---------------------------------------------------------------------
      1          6           0       -1.217824   -0.508980   -0.083563
      2          6           0       -2.122549   -1.561029   -0.260166
      3          6           0       -3.499918   -1.321515   -0.254346
      4          6           0       -3.939753   -0.011821   -0.068505
      5          6           0       -3.063382    1.057469    0.110055
      6          6           0       -1.690295    0.794612    0.100660
      7          1           0       -0.149514   -0.704107   -0.089473
      8          1           0       -1.758479   -2.574424   -0.403448
      9          1           0       -4.222410   -2.117351   -0.388767
     10          1           0       -3.456418    2.057055    0.250648
     11          1           0       -0.989989    1.613599    0.238053
     12          7           0       -5.395645    0.254097   -0.060450
     13          8           0       -5.757715    1.416902    0.105165
     14          8           0       -6.147136   -0.705315   -0.219906
     15          6           0        3.700783    2.574070   -0.083357
     16          6           0        2.698408    1.917032    0.637800
     17          6           0        2.687936    0.522024    0.729404
     18          6           0        3.699709   -0.187824    0.084642
     19          6           0        4.712002    0.437858   -0.641358
     20          6           0        4.702614    1.833692   -0.719512
     21          1           0        3.701203    3.658067   -0.149293
     22          1           0        1.919112    2.489448    1.132859
     23          1           0        1.923933   -0.012169    1.281088
     24          1           0        5.475565   -0.159856   -1.124190
     25          1           0        5.482329    2.341280   -1.280266
     26          7           0        3.699136   -1.665094    0.174500
     27          8           0        4.601720   -2.267590   -0.402542
     28          8           0        2.796113   -2.192509    0.820272
 ---------------------------------------------------------------------

 SCF Done:  E(RHF) =  -868.338087847     A.U. after   16 cycles
 E2 =    -0.2600199811D+01 EUMP2 =    -0.87093828765817D+03

 The electronic state is 1-A.
 Alpha  occ. eigenvalues --  -20.61862 -20.61814 -20.60791 -20.60778 -15.86881
 Alpha  occ. eigenvalues --  -15.85842 -11.32261 -11.31207 -11.28891 -11.28751
 Alpha  occ. eigenvalues --  -11.28497 -11.27886 -11.27837 -11.27749 -11.27729
 Alpha  occ. eigenvalues --  -11.27473 -11.26898 -11.26681  -1.60905  -1.59863
 Alpha  occ. eigenvalues --   -1.40462  -1.39417  -1.20419  -1.19379  -1.09796
 Alpha  occ. eigenvalues --   -1.08768  -1.05829  -1.04788  -0.96636  -0.95602
 Alpha  occ. eigenvalues --   -0.87219  -0.86184  -0.83470  -0.82442  -0.78539
 Alpha  occ. eigenvalues --   -0.77493  -0.73094  -0.72230  -0.72059  -0.71527
 Alpha  occ. eigenvalues --   -0.71186  -0.70450  -0.66066  -0.65816  -0.65032
 Alpha  occ. eigenvalues --   -0.64811  -0.63171  -0.62135  -0.56289  -0.55285
 Alpha  occ. eigenvalues --   -0.54125  -0.53876  -0.53109  -0.52878  -0.49863
 Alpha  occ. eigenvalues --   -0.49843  -0.48818  -0.48814  -0.45859  -0.44822
 Alpha  occ. eigenvalues --   -0.38361  -0.37431  -0.37349  -0.36394
 Alpha virt. eigenvalues --    0.03951   0.05039   0.10092   0.11246   0.15433
 Alpha virt. eigenvalues --    0.16488   0.18943   0.22096   0.25083   0.26161
 Alpha virt. eigenvalues --    0.27638   0.29057   0.29955   0.31242   0.32640

 Mulliken charges:
               1
     1  C   -0.176399
     2  C   -0.219126
     3  C   -0.170617
     4  C    0.158450
     5  C   -0.170757
     6  C   -0.220384
     7  H    0.232824
     8  H    0.230961
     9  H    0.276699
    10  H    0.273912
    11  H    0.213590
    12  N    0.488110
    13  O   -0.461619
    14  O   -0.459394
    15  C   -0.169720
    16  C   -0.220753
    17  C   -0.179681
    18  C    0.159865
    19  C   -0.169627
    20  C   -0.217235
    21  H    0.229553
    22  H    0.222955
    23  H    0.273325
    24  H    0.278764
    25  H    0.227795
    26  N    0.488675
    27  O   -0.454491
    28  O   -0.465676
 Sum of Mulliken charges =  -0.00000

 Dipole moment (field-independent basis, Debye):
    X=              5.4643    Y=              4.1846    Z=             -0.4621  Tot=              6.8980
 Quadrupole moment (field-independent basis, Debye-Ang):
   XX=           -140.8327   YY=           -102.1390   ZZ=           -104.6465
   XY=             24.5765   XZ=             -4.2424   YZ=              1.5167

 Normal termination of Gaussian 16 at Thu May  6 03:32:38 2021.
