 Gaussian 16, Revision A.03,
 Gaussian 16:  EM64L-G16RevA.03 25-Dec-2016

 -------------
 #p 6-31g* mp2
 -------------

 ------------------------------------------------------
 Input file generated by CHIRIPA (05-May-2021 14:53:17)
 ------------------------------------------------------
 Symbolic Z-matrix:
 Charge =  0 Multiplicity = 1

                         Standard orientation:
 ---------------------------------------------------------------------
 Center     Atomic      Atomic             Coordinates (Angstroms)
 Number     Number       Type             X           Y           Z
 ---------------------------------------------------------------------
      1          6           0       -2.803150   -0.636139   -0.150968
      2          6           0       -3.883136   -1.357181    0.656319
      3          6           0       -3.704071   -2.875641    0.659308
      4          1           0       -2.815301   -1.010246   -1.183848
      5          1           0       -1.816616   -0.889127    0.261517
      6          1           0       -4.867421   -1.101813    0.243299
      7          1           0       -3.868539   -0.981177    1.687349
      8          1           0       -2.735589   -3.148489    1.090814
      9          1           0       -3.740146   -3.269811   -0.361441
     10          1           0       -4.486837   -3.371050    1.242152
     11          6           0       -2.968608    0.882478   -0.163383
     12          6           0       -1.888622    1.603520   -0.970670
     13          6           0       -2.067687    3.121980   -0.973659
     14          1           0       -3.955141    1.135467   -0.575868
     15          1           0       -2.956457    1.256585    0.869497
     16          1           0       -1.903219    1.227516   -2.001700
     17          1           0       -0.904337    1.348152   -0.557650
     18          1           0       -2.031612    3.516150    0.047091
     19          1           0       -3.036169    3.394828   -1.405165
     20          1           0       -1.284921    3.617389   -1.556503
     21          6           0        1.835816    1.460259    2.063902
     22          6           0        2.272444    0.152041    2.297231
     23          6           0        2.507657   -0.719069    1.229340
     24          6           0        2.295079   -0.246701   -0.064866
     25          6           0        1.860421    1.051077   -0.329694
     26          6           0        1.631558    1.904818    0.753495
     27          1           0        1.655563    2.130212    2.899407
     28          1           0        2.431912   -0.195933    3.313857
     29          1           0        2.846002   -1.736817    1.381426
     30          1           0        1.710295    1.369260   -1.354212
     31          1           0        1.292500    2.920276    0.569296
     32          7           0        2.540727   -1.159713   -1.203491
     33          8           0        2.345981   -0.719332   -2.334321
     34          8           0        2.923361   -2.298423   -0.943556
 ---------------------------------------------------------------------

 SCF Done:  E(RHF) =  -669.534722324     A.U. after   15 cycles
 E2 =    -0.2093310071D+01 EUMP2 =    -0.67162803239471D+03

 The electronic state is 1-A.
 Alpha  occ. eigenvalues --  -20.60811 -20.60806 -15.85868 -11.31271 -11.27844
 Alpha  occ. eigenvalues --  -11.27830 -11.27585 -11.26859 -11.26839 -11.21727
 Alpha  occ. eigenvalues --  -11.21637 -11.21553 -11.21537 -11.21392 -11.21033
 Alpha  occ. eigenvalues --   -1.59886  -1.39439  -1.19459  -1.08836  -1.08548
 Alpha  occ. eigenvalues --   -1.04875  -1.03686  -0.96153  -0.95666  -0.87164
 Alpha  occ. eigenvalues --   -0.86248  -0.82502  -0.79756  -0.78351  -0.77529
 Alpha  occ. eigenvalues --   -0.72084  -0.71211  -0.70551  -0.65227  -0.65076
 Alpha  occ. eigenvalues --   -0.64845  -0.62227  -0.61086  -0.59537  -0.57756
 Alpha  occ. eigenvalues --   -0.55454  -0.55340  -0.53258  -0.52940  -0.52846
 Alpha  occ. eigenvalues --   -0.52561  -0.50081  -0.48847  -0.48837  -0.48064
 Alpha  occ. eigenvalues --   -0.46780  -0.45887  -0.45800  -0.44832  -0.43929
 Alpha  occ. eigenvalues --   -0.37439  -0.36347
 Alpha virt. eigenvalues --    0.04977   0.11140   0.16381   0.20617   0.22884
 Alpha virt. eigenvalues --    0.23977   0.26510   0.26670   0.27262   0.28169
 Alpha virt. eigenvalues --    0.29030   0.30905   0.31268   0.31430   0.31982

 Mulliken charges:
               1
     1  C   -0.299167
     2  C   -0.299683
     3  C   -0.475750
     4  H    0.153572
     5  H    0.149888
     6  H    0.152005
     7  H    0.149562
     8  H    0.155342
     9  H    0.157762
    10  H    0.159624
    11  C   -0.296592
    12  C   -0.310914
    13  C   -0.476625
    14  H    0.149893
    15  H    0.146264
    16  H    0.156497
    17  H    0.158329
    18  H    0.150307
    19  H    0.159379
    20  H    0.154984
    21  C   -0.171362
    22  C   -0.218678
    23  C   -0.171609
    24  C    0.159376
    25  C   -0.172572
    26  C   -0.218605
    27  H    0.226097
    28  H    0.223813
    29  H    0.276013
    30  H    0.277903
    31  H    0.226863
    32  N    0.488304
    33  O   -0.459927
    34  O   -0.460293
 Sum of Mulliken charges =  -0.00000

 Dipole moment (field-independent basis, Debye):
    X=             -0.8187    Y=              3.1285    Z=              3.9821  Tot=              5.1298
 Quadrupole moment (field-independent basis, Debye-Ang):
   XX=            -98.7968   YY=            -95.5029   ZZ=            -92.8579
   XY=              6.7796   XZ=             11.0191   YZ=             -3.5659

 Normal termination of Gaussian 16 at Thu May  6 05:59:35 2021.
