 Gaussian 16, Revision A.03,
 Gaussian 16:  EM64L-G16RevA.03 25-Dec-2016

 -------------
 #p 6-31g* mp2
 -------------

 ------------------------------------------------------
 Input file generated by CHIRIPA (05-May-2021 14:57:23)
 ------------------------------------------------------
 Symbolic Z-matrix:
 Charge =  0 Multiplicity = 1

                         Standard orientation:
 ---------------------------------------------------------------------
 Center     Atomic      Atomic             Coordinates (Angstroms)
 Number     Number       Type             X           Y           Z
 ---------------------------------------------------------------------
      1          6           0       -3.223653   -2.327997   -0.078554
      2          6           0       -4.239870   -1.563781    0.504367
      3          6           0       -4.204392   -0.167680    0.439628
      4          6           0       -3.133053    0.433960   -0.218819
      5          6           0       -2.105524   -0.299962   -0.809439
      6          6           0       -2.161596   -1.694765   -0.732444
      7          1           0       -3.259213   -3.412018   -0.023502
      8          1           0       -5.065898   -2.052850    1.012831
      9          1           0       -4.977836    0.448204    0.882222
     10          1           0       -1.294949    0.216088   -1.309518
     11          1           0       -1.370997   -2.285724   -1.186059
     12          7           0       -3.084593    1.911263   -0.293843
     13          8           0       -2.129893    2.417228   -0.879661
     14          8           0       -4.002228    2.535233    0.234593
     15          6           0        0.962422   -1.316383    0.799660
     16          6           0        1.753306   -1.823952   -0.236389
     17          6           0        2.962293   -1.208232   -0.573710
     18          6           0        3.351661   -0.081635    0.149104
     19          6           0        2.585695    0.447892    1.186500
     20          6           0        1.380404   -0.184077    1.506552
     21          1           0        0.024687   -1.801000    1.054992
     22          1           0        1.431201   -2.703173   -0.787082
     23          1           0        3.593994   -1.580154   -1.371236
     24          1           0        2.933177    1.325850    1.717408
     25          1           0        0.768228    0.212311    2.311636
     26          7           0        4.629606    0.578802   -0.198861
     27          8           0        4.950357    1.570062    0.453179
     28          8           0        5.286309    0.092686   -1.117049
 ---------------------------------------------------------------------

 SCF Done:  E(RHF) =  -868.335828872     A.U. after   16 cycles
 E2 =    -0.2602505595D+01 EUMP2 =    -0.87093833446713D+03

 The electronic state is 1-A.
 Alpha  occ. eigenvalues --  -20.61416 -20.61409 -20.60885 -20.60870 -15.86476
 Alpha  occ. eigenvalues --  -15.85942 -11.32024 -11.31414 -11.28613 -11.28606
 Alpha  occ. eigenvalues --  -11.28446 -11.28098 -11.27987 -11.27757 -11.27721
 Alpha  occ. eigenvalues --  -11.27639 -11.27175 -11.26978  -1.60492  -1.59954
 Alpha  occ. eigenvalues --   -1.40037  -1.39504  -1.20253  -1.19634  -1.09616
 Alpha  occ. eigenvalues --   -1.09016  -1.05674  -1.05059  -0.96397  -0.95818
 Alpha  occ. eigenvalues --   -0.87069  -0.86457  -0.83235  -0.82637  -0.78238
 Alpha  occ. eigenvalues --   -0.77666  -0.72684  -0.72159  -0.71829  -0.71321
 Alpha  occ. eigenvalues --   -0.71277  -0.70767  -0.65884  -0.65745  -0.65267
 Alpha  occ. eigenvalues --   -0.65049  -0.62985  -0.62390  -0.56162  -0.55726
 Alpha  occ. eigenvalues --   -0.53947  -0.53737  -0.53293  -0.53151  -0.49464
 Alpha  occ. eigenvalues --   -0.49428  -0.48928  -0.48903  -0.45399  -0.44886
 Alpha  occ. eigenvalues --   -0.38276  -0.38059  -0.36803  -0.36664
 Alpha virt. eigenvalues --    0.04139   0.05046   0.10109   0.10973   0.15514
 Alpha virt. eigenvalues --    0.16568   0.19486   0.21730   0.25043   0.27426
 Alpha virt. eigenvalues --    0.27716   0.28599   0.29743   0.31363   0.31672

 Mulliken charges:
               1
     1  C   -0.173819
     2  C   -0.218725
     3  C   -0.170485
     4  C    0.156409
     5  C   -0.168114
     6  C   -0.230565
     7  H    0.227074
     8  H    0.226423
     9  H    0.278426
    10  H    0.281984
    11  H    0.221818
    12  N    0.487535
    13  O   -0.456802
    14  O   -0.458579
    15  C   -0.173109
    16  C   -0.228034
    17  C   -0.169160
    18  C    0.158193
    19  C   -0.167270
    20  C   -0.219474
    21  H    0.228809
    22  H    0.215606
    23  H    0.276141
    24  H    0.279054
    25  H    0.226873
    26  N    0.488273
    27  O   -0.457840
    28  O   -0.460644
 Sum of Mulliken charges =  -0.00000

 Dipole moment (field-independent basis, Debye):
    X=             -4.7489    Y=             -7.2481    Z=              1.5602  Tot=              8.8047
 Quadrupole moment (field-independent basis, Debye-Ang):
   XX=           -130.0956   YY=           -107.9566   ZZ=           -101.5472
   XY=              8.2027   XZ=             -0.3751   YZ=              3.7484

 Normal termination of Gaussian 16 at Thu May  6 14:37:29 2021.
