 Gaussian 16, Revision A.03,
 Gaussian 16:  EM64L-G16RevA.03 25-Dec-2016

 -------------
 #p 6-31g* mp2
 -------------

 ------------------------------------------------------
 Input file generated by CHIRIPA (05-May-2021 14:51:11)
 ------------------------------------------------------
 Symbolic Z-matrix:
 Charge =  0 Multiplicity = 1

                         Standard orientation:
 ---------------------------------------------------------------------
 Center     Atomic      Atomic             Coordinates (Angstroms)
 Number     Number       Type             X           Y           Z
 ---------------------------------------------------------------------
      1          6           0        2.597668    1.323580    0.282905
      2          6           0        2.227009    2.284234   -0.847467
      3          6           0        2.101595    3.732913   -0.374821
      4          1           0        1.838316    1.388166    1.074207
      5          1           0        3.546488    1.646815    0.733077
      6          1           0        1.279871    1.958485   -1.296280
      7          1           0        2.987230    2.217213   -1.636255
      8          1           0        3.046572    4.081258    0.054452
      9          1           0        1.329512    3.821059    0.396360
     10          1           0        1.836047    4.402490   -1.198842
     11          6           0        2.726733   -0.128438   -0.173945
     12          6           0        3.097392   -1.089092    0.956428
     13          6           0        3.222806   -2.537771    0.483782
     14          1           0        1.777913   -0.451673   -0.624116
     15          1           0        3.486085   -0.193024   -0.965246
     16          1           0        2.337171   -1.022071    1.745216
     17          1           0        4.044530   -0.763342    1.405240
     18          1           0        3.994889   -2.625917   -0.287399
     19          1           0        2.277829   -2.886115    0.054509
     20          1           0        3.488355   -3.207347    1.307803
     21          6           0       -2.506502   -1.219932   -0.469036
     22          6           0       -1.234370   -1.942231   -0.024120
     23          6           0       -0.936225   -3.185281   -0.863006
     24          1           0       -3.354892   -1.915481   -0.410798
     25          1           0       -2.407672   -0.935256   -1.525722
     26          1           0       -1.335011   -2.224238    1.031797
     27          1           0       -0.388942   -1.244827   -0.083242
     28          1           0       -0.809268   -2.917434   -1.916923
     29          1           0       -1.760713   -3.902408   -0.795550
     30          1           0       -0.022645   -3.686169   -0.527830
     31          6           0       -2.817899    0.024790    0.360075
     32          6           0       -4.090031    0.747089   -0.084841
     33          6           0       -4.388176    1.990139    0.754046
     34          1           0       -2.916729   -0.259885    1.416762
     35          1           0       -1.969509    0.720338    0.301838
     36          1           0       -4.935460    0.049685   -0.025720
     37          1           0       -3.989390    1.029095   -1.140758
     38          1           0       -3.563689    2.707266    0.686589
     39          1           0       -4.515133    1.722291    1.807963
     40          1           0       -5.301755    2.491028    0.418870
 ---------------------------------------------------------------------

 SCF Done:  E(RHF) =  -470.733002291     A.U. after   11 cycles
 E2 =    -0.1583951904D+01 EUMP2 =    -0.47231695419433D+03

 The electronic state is 1-A.
 Alpha  occ. eigenvalues --  -11.21663 -11.21646 -11.21643 -11.21590 -11.21469
 Alpha  occ. eigenvalues --  -11.21417 -11.21409 -11.21354 -11.21135 -11.21106
 Alpha  occ. eigenvalues --  -11.21103 -11.21045  -1.08506  -1.08435  -1.03609
 Alpha  occ. eigenvalues --   -1.03524  -0.96048  -0.95983  -0.87080  -0.86983
 Alpha  occ. eigenvalues --   -0.79658  -0.79606  -0.78347  -0.78225  -0.65301
 Alpha  occ. eigenvalues --   -0.64938  -0.61119  -0.60853  -0.59435  -0.59316
 Alpha  occ. eigenvalues --   -0.57701  -0.57552  -0.55324  -0.55293  -0.52771
 Alpha  occ. eigenvalues --   -0.52682  -0.52529  -0.52324  -0.50058  -0.49867
 Alpha  occ. eigenvalues --   -0.47951  -0.47919  -0.46812  -0.46585  -0.46044
 Alpha  occ. eigenvalues --   -0.45812  -0.45760  -0.45389  -0.43837  -0.43797
 Alpha virt. eigenvalues --    0.19689   0.22523   0.23542   0.25091   0.25702
 Alpha virt. eigenvalues --    0.26474   0.26824   0.27525   0.28742   0.29651
 Alpha virt. eigenvalues --    0.30205   0.31348   0.31495   0.31764   0.32084

 Mulliken charges:
               1
     1  C   -0.298703
     2  C   -0.299586
     3  C   -0.475727
     4  H    0.149923
     5  H    0.149873
     6  H    0.150811
     7  H    0.152233
     8  H    0.155473
     9  H    0.155120
    10  H    0.160282
    11  C   -0.304457
    12  C   -0.299360
    13  C   -0.482064
    14  H    0.154655
    15  H    0.150038
    16  H    0.152745
    17  H    0.151968
    18  H    0.155165
    19  H    0.161132
    20  H    0.160117
    21  C   -0.297783
    22  C   -0.308119
    23  C   -0.479905
    24  H    0.150113
    25  H    0.149564
    26  H    0.152347
    27  H    0.158735
    28  H    0.155489
    29  H    0.155980
    30  H    0.164011
    31  C   -0.298398
    32  C   -0.299706
    33  C   -0.475778
    34  H    0.149714
    35  H    0.148910
    36  H    0.152170
    37  H    0.152090
    38  H    0.155200
    39  H    0.155230
    40  H    0.160499
 Sum of Mulliken charges =  -0.00000

 Dipole moment (field-independent basis, Debye):
    X=             -0.0163    Y=             -0.0099    Z=              0.0003  Tot=              0.0191
 Quadrupole moment (field-independent basis, Debye-Ang):
   XX=            -83.5783   YY=            -86.4361   ZZ=            -84.6260
   XY=              0.9792   XZ=             -0.3639   YZ=             -1.0688

 Normal termination of Gaussian 16 at Thu May  6 02:15:03 2021.
