 Gaussian 16, Revision A.03,
 Gaussian 16:  EM64L-G16RevA.03 25-Dec-2016

 -------------
 #p 6-31g* mp2
 -------------

 ------------------------------------------------------
 Input file generated by CHIRIPA (05-May-2021 14:53:13)
 ------------------------------------------------------
 Symbolic Z-matrix:
 Charge =  0 Multiplicity = 1

                         Standard orientation:
 ---------------------------------------------------------------------
 Center     Atomic      Atomic             Coordinates (Angstroms)
 Number     Number       Type             X           Y           Z
 ---------------------------------------------------------------------
      1          6           0        4.913237   -0.390108    0.278642
      2          6           0        5.197431   -1.323689   -0.898491
      3          6           0        6.323269   -2.316394   -0.607251
      4          1           0        5.830589    0.158076    0.533407
      5          1           0        4.653635   -0.991959    1.160559
      6          1           0        5.455072   -0.720205   -1.778289
      7          1           0        4.279246   -1.869574   -1.150606
      8          1           0        6.071044   -2.943024    0.254328
      9          1           0        7.253551   -1.787125   -0.376922
     10          1           0        6.509775   -2.973994   -1.462025
     11          6           0        3.790211    0.608105    0.002756
     12          6           0        3.506017    1.541687    1.179890
     13          6           0        2.380179    2.534391    0.888650
     14          1           0        4.049813    1.209956   -0.879160
     15          1           0        2.872859    0.059921   -0.252008
     16          1           0        4.424202    2.087571    1.432005
     17          1           0        3.248376    0.938203    2.059688
     18          1           0        1.449897    2.005122    0.658320
     19          1           0        2.632404    3.161021    0.027071
     20          1           0        2.193672    3.191991    1.743423
     21          6           0       -1.651484    1.593535   -0.810898
     22          6           0       -2.982156    1.761502   -1.207910
     23          6           0       -3.959243    0.837644   -0.825370
     24          6           0       -3.568803   -0.247445   -0.042153
     25          6           0       -2.251232   -0.442317    0.369332
     26          6           0       -1.290905    0.494100   -0.024930
     27          1           0       -0.898969    2.316087   -1.112618
     28          1           0       -3.265072    2.614385   -1.818316
     29          1           0       -4.996650    0.943395   -1.118664
     30          1           0       -1.999600   -1.302556    0.977681
     31          1           0       -0.258245    0.361108    0.284868
     32          7           0       -4.594331   -1.232139    0.369030
     33          8           0       -4.224693   -2.179625    1.059156
     34          8           0       -5.748358   -1.037811   -0.006599
 ---------------------------------------------------------------------

 SCF Done:  E(RHF) =  -669.535407074     A.U. after   15 cycles
 E2 =    -0.2091237126D+01 EUMP2 =    -0.67162664420002D+03

 The electronic state is 1-A.
 Alpha  occ. eigenvalues --  -20.60743 -20.60738 -15.85797 -11.31157 -11.27732
 Alpha  occ. eigenvalues --  -11.27728 -11.27455 -11.26737 -11.26726 -11.22528
 Alpha  occ. eigenvalues --  -11.22270 -11.22251 -11.22141 -11.22025 -11.21490
 Alpha  occ. eigenvalues --   -1.59819  -1.39372  -1.19331  -1.09202  -1.08724
 Alpha  occ. eigenvalues --   -1.04738  -1.04294  -0.96761  -0.95559  -0.87780
 Alpha  occ. eigenvalues --   -0.86138  -0.82393  -0.80368  -0.78985  -0.77446
 Alpha  occ. eigenvalues --   -0.72016  -0.71142  -0.70432  -0.65863  -0.64985
 Alpha  occ. eigenvalues --   -0.64763  -0.62157  -0.61629  -0.60128  -0.58348
 Alpha  occ. eigenvalues --   -0.56070  -0.55224  -0.53435  -0.53219  -0.53053
 Alpha  occ. eigenvalues --   -0.52815  -0.50704  -0.48789  -0.48770  -0.48659
 Alpha  occ. eigenvalues --   -0.47393  -0.46531  -0.46432  -0.44779  -0.44535
 Alpha  occ. eigenvalues --   -0.37304  -0.36340
 Alpha virt. eigenvalues --    0.05095   0.11270   0.16589   0.18912   0.22466
 Alpha virt. eigenvalues --    0.23715   0.25172   0.26139   0.26745   0.28135
 Alpha virt. eigenvalues --    0.28961   0.30082   0.30919   0.31498   0.31586

 Mulliken charges:
               1
     1  C   -0.298841
     2  C   -0.300203
     3  C   -0.476195
     4  H    0.151860
     5  H    0.150839
     6  H    0.152462
     7  H    0.152041
     8  H    0.156294
     9  H    0.155999
    10  H    0.162084
    11  C   -0.298901
    12  C   -0.300588
    13  C   -0.479965
    14  H    0.151082
    15  H    0.143599
    16  H    0.156644
    17  H    0.153801
    18  H    0.145388
    19  H    0.156752
    20  H    0.166288
    21  C   -0.172062
    22  C   -0.218710
    23  C   -0.171012
    24  C    0.158672
    25  C   -0.171212
    26  C   -0.223391
    27  H    0.227475
    28  H    0.223435
    29  H    0.275536
    30  H    0.275573
    31  H    0.228293
    32  N    0.487991
    33  O   -0.460565
    34  O   -0.460462
 Sum of Mulliken charges =  -0.00000

 Dipole moment (field-independent basis, Debye):
    X=              3.8377    Y=              3.4929    Z=             -1.4274  Tot=              5.3820
 Quadrupole moment (field-independent basis, Debye-Ang):
   XX=           -117.5917   YY=            -95.5643   ZZ=            -93.8784
   XY=            -14.3739   XZ=              6.8897   YZ=             -1.4441

 Normal termination of Gaussian 16 at Wed May  5 20:12:15 2021.
