 Gaussian 16, Revision A.03,
 Gaussian 16:  EM64L-G16RevA.03 25-Dec-2016

 -------------
 #p 6-31g* mp2
 -------------

 ------------------------------------------------------
 Input file generated by CHIRIPA (05-May-2021 14:53:14)
 ------------------------------------------------------
 Symbolic Z-matrix:
 Charge =  0 Multiplicity = 1

                         Standard orientation:
 ---------------------------------------------------------------------
 Center     Atomic      Atomic             Coordinates (Angstroms)
 Number     Number       Type             X           Y           Z
 ---------------------------------------------------------------------
      1          6           0        4.270405   -0.191074    0.280271
      2          6           0        3.533542   -1.499398    0.568900
      3          6           0        2.095008   -1.276868    1.036759
      4          1           0        4.269963    0.430184    1.186352
      5          1           0        3.717915    0.371710   -0.484859
      6          1           0        4.087998   -2.060183    1.332257
      7          1           0        3.535905   -2.117695   -0.337918
      8          1           0        1.521141   -0.738809    0.275332
      9          1           0        2.076371   -0.680971    1.954997
     10          1           0        1.586849   -2.225225    1.237392
     11          6           0        5.709717   -0.397090   -0.188414
     12          6           0        6.446580    0.911234   -0.477043
     13          6           0        7.885115    0.688704   -0.944903
     14          1           0        6.262208   -0.959874    0.576715
     15          1           0        5.710159   -1.018348   -1.094496
     16          1           0        6.444217    1.529531    0.429775
     17          1           0        5.892124    1.472020   -1.240400
     18          1           0        7.903751    0.092807   -1.863140
     19          1           0        8.458981    0.150646   -0.183476
     20          1           0        8.393273    1.637061   -1.145536
     21          6           0       -1.799042    1.444567    0.658729
     22          6           0       -2.992085    2.153207    0.482667
     23          6           0       -4.161406    1.490457    0.097958
     24          6           0       -4.101452    0.112307   -0.103034
     25          6           0       -2.928153   -0.621620    0.064329
     26          6           0       -1.770933    0.061853    0.449368
     27          1           0       -0.895386    1.967456    0.957708
     28          1           0       -3.016870    3.227089    0.644557
     29          1           0       -5.098573    2.014452   -0.045448
     30          1           0       -2.934583   -1.691614   -0.104458
     31          1           0       -0.845821   -0.491066    0.585355
     32          7           0       -5.332954   -0.600285   -0.510482
     33          8           0       -5.253848   -1.814863   -0.681304
     34          8           0       -6.353993    0.069256   -0.651304
 ---------------------------------------------------------------------

 SCF Done:  E(RHF) =  -669.535634656     A.U. after   15 cycles
 E2 =    -0.2090823810D+01 EUMP2 =    -0.67162645846617D+03

 The electronic state is 1-A.
 Alpha  occ. eigenvalues --  -20.60701 -20.60696 -15.85753 -11.31101 -11.27671
 Alpha  occ. eigenvalues --  -11.27650 -11.27395 -11.26687 -11.26602 -11.22478
 Alpha  occ. eigenvalues --  -11.22295 -11.22143 -11.22114 -11.21958 -11.21488
 Alpha  occ. eigenvalues --   -1.59777  -1.39331  -1.19267  -1.09132  -1.08665
 Alpha  occ. eigenvalues --   -1.04666  -1.04266  -0.96747  -0.95505  -0.87781
 Alpha  occ. eigenvalues --   -0.86061  -0.82336  -0.80349  -0.78914  -0.77385
 Alpha  occ. eigenvalues --   -0.71972  -0.71100  -0.70378  -0.65763  -0.64917
 Alpha  occ. eigenvalues --   -0.64681  -0.62062  -0.61623  -0.60121  -0.58328
 Alpha  occ. eigenvalues --   -0.56050  -0.55164  -0.53490  -0.53225  -0.52999
 Alpha  occ. eigenvalues --   -0.52658  -0.50669  -0.48754  -0.48729  -0.48621
 Alpha  occ. eigenvalues --   -0.47349  -0.46464  -0.46360  -0.44741  -0.44504
 Alpha  occ. eigenvalues --   -0.37251  -0.36268
 Alpha virt. eigenvalues --    0.05142   0.11351   0.16636   0.20520   0.22289
 Alpha virt. eigenvalues --    0.23730   0.25499   0.26071   0.26908   0.28146
 Alpha virt. eigenvalues --    0.28870   0.30250   0.30783   0.31059   0.31817

 Mulliken charges:
               1
     1  C   -0.299276
     2  C   -0.299419
     3  C   -0.483013
     4  H    0.149295
     5  H    0.148826
     6  H    0.155897
     7  H    0.155476
     8  H    0.148821
     9  H    0.156565
    10  H    0.163202
    11  C   -0.298917
    12  C   -0.300082
    13  C   -0.476087
    14  H    0.151040
    15  H    0.151325
    16  H    0.151901
    17  H    0.151993
    18  H    0.156184
    19  H    0.156013
    20  H    0.161431
    21  C   -0.173575
    22  C   -0.218474
    23  C   -0.171524
    24  C    0.158998
    25  C   -0.173071
    26  C   -0.227843
    27  H    0.225515
    28  H    0.222943
    29  H    0.275211
    30  H    0.275706
    31  H    0.238319
    32  N    0.488009
    33  O   -0.460616
    34  O   -0.460771
 Sum of Mulliken charges =  -0.00000

 Dipole moment (field-independent basis, Debye):
    X=              4.6104    Y=              2.4646    Z=              1.4433  Tot=              5.4234
 Quadrupole moment (field-independent basis, Debye-Ang):
   XX=           -129.8164   YY=            -90.5147   ZZ=            -95.0942
   XY=            -12.5419   XZ=             -5.7380   YZ=             -0.0008

 Normal termination of Gaussian 16 at Thu May  6 17:06:18 2021.
