 Gaussian 16, Revision A.03,
 Gaussian 16:  EM64L-G16RevA.03 25-Dec-2016

 -------------
 #p 6-31g* mp2
 -------------

 ------------------------------------------------------
 Input file generated by CHIRIPA (05-May-2021 14:53:17)
 ------------------------------------------------------
 Symbolic Z-matrix:
 Charge =  0 Multiplicity = 1

                         Standard orientation:
 ---------------------------------------------------------------------
 Center     Atomic      Atomic             Coordinates (Angstroms)
 Number     Number       Type             X           Y           Z
 ---------------------------------------------------------------------
      1          6           0       -3.838617    1.052719    0.191975
      2          6           0       -2.446630    1.509632   -0.245733
      3          6           0       -2.015997    2.815849    0.422209
      4          1           0       -4.566521    1.842197   -0.040030
      5          1           0       -3.849666    0.928393    1.283678
      6          1           0       -2.437820    1.631725   -1.336435
      7          1           0       -1.721984    0.718897   -0.012833
      8          1           0       -1.996576    2.703585    1.511072
      9          1           0       -2.716479    3.621601    0.179949
     10          1           0       -1.018077    3.124069    0.095076
     11          6           0       -4.283182   -0.251722   -0.467208
     12          6           0       -5.675169   -0.708635   -0.029500
     13          6           0       -6.105802   -2.014852   -0.697442
     14          1           0       -4.272133   -0.127396   -1.558911
     15          1           0       -3.555278   -1.041199   -0.235202
     16          1           0       -6.399815    0.082101   -0.262400
     17          1           0       -5.683979   -0.830728    1.061202
     18          1           0       -5.405320   -2.820603   -0.455182
     19          1           0       -6.125223   -1.902588   -1.786304
     20          1           0       -7.103722   -2.323072   -0.370309
     21          6           0        0.897009   -0.874657    1.041392
     22          6           0        1.205567    0.445196    0.695992
     23          6           0        2.463227    0.767997    0.177690
     24          6           0        3.392571   -0.258580    0.017229
     25          6           0        3.115171   -1.583066    0.352008
     26          6           0        1.851115   -1.882798    0.868602
     27          1           0       -0.082456   -1.116457    1.443357
     28          1           0        0.466562    1.230180    0.829102
     29          1           0        2.728594    1.781417   -0.097956
     30          1           0        3.872561   -2.343997    0.207921
     31          1           0        1.614261   -2.908691    1.135978
     32          7           0        4.727385    0.070945   -0.530570
     33          8           0        5.528652   -0.851689   -0.662314
     34          8           0        4.947072    1.245621   -0.817819
 ---------------------------------------------------------------------

 SCF Done:  E(RHF) =  -669.534799648     A.U. after   15 cycles
 E2 =    -0.2092424647D+01 EUMP2 =    -0.67162722429520D+03

 The electronic state is 1-A.
 Alpha  occ. eigenvalues --  -20.60740 -20.60735 -15.85792 -11.31160 -11.27722
 Alpha  occ. eigenvalues --  -11.27702 -11.27464 -11.26748 -11.26660 -11.22680
 Alpha  occ. eigenvalues --  -11.22301 -11.22271 -11.22255 -11.22169 -11.21646
 Alpha  occ. eigenvalues --   -1.59815  -1.39368  -1.19325  -1.09319  -1.08723
 Alpha  occ. eigenvalues --   -1.04738  -1.04414  -0.96873  -0.95561  -0.87880
 Alpha  occ. eigenvalues --   -0.86132  -0.82389  -0.80487  -0.79095  -0.77438
 Alpha  occ. eigenvalues --   -0.72012  -0.71137  -0.70450  -0.66033  -0.64975
 Alpha  occ. eigenvalues --   -0.64758  -0.62271  -0.61645  -0.60206  -0.58452
 Alpha  occ. eigenvalues --   -0.56158  -0.55226  -0.53586  -0.53310  -0.53059
 Alpha  occ. eigenvalues --   -0.52711  -0.50804  -0.48804  -0.48767  -0.48756
 Alpha  occ. eigenvalues --   -0.47522  -0.46635  -0.46547  -0.44774  -0.44665
 Alpha  occ. eigenvalues --   -0.37297  -0.36313
 Alpha virt. eigenvalues --    0.05080   0.11222   0.16553   0.19466   0.22529
 Alpha virt. eigenvalues --    0.23709   0.24886   0.26029   0.26551   0.28462
 Alpha virt. eigenvalues --    0.29366   0.30364   0.30798   0.31393   0.32243

 Mulliken charges:
               1
     1  C   -0.298566
     2  C   -0.305597
     3  C   -0.483652
     4  H    0.153620
     5  H    0.148147
     6  H    0.158783
     7  H    0.146170
     8  H    0.154751
     9  H    0.164898
    10  H    0.156857
    11  C   -0.297796
    12  C   -0.300285
    13  C   -0.475954
    14  H    0.152787
    15  H    0.145352
    16  H    0.154096
    17  H    0.151602
    18  H    0.154270
    19  H    0.156909
    20  H    0.162320
    21  C   -0.174106
    22  C   -0.223476
    23  C   -0.174255
    24  C    0.158865
    25  C   -0.171347
    26  C   -0.218406
    27  H    0.225233
    28  H    0.237544
    29  H    0.275470
    30  H    0.275463
    31  H    0.223167
    32  N    0.488079
    33  O   -0.460549
    34  O   -0.460390
 Sum of Mulliken charges =  -0.00000

 Dipole moment (field-independent basis, Debye):
    X=             -4.9274    Y=             -1.1021    Z=              1.8578  Tot=              5.3801
 Quadrupole moment (field-independent basis, Debye-Ang):
   XX=           -126.1134   YY=            -89.8848   ZZ=            -95.0683
   XY=             -5.0965   XZ=              6.9870   YZ=             -1.8008

 Normal termination of Gaussian 16 at Wed May  5 22:02:07 2021.
