 Gaussian 16, Revision A.03,
 Gaussian 16:  EM64L-G16RevA.03 25-Dec-2016

 -------------
 #p 6-31g* mp2
 -------------

 ------------------------------------------------------
 Input file generated by CHIRIPA (05-May-2021 14:53:12)
 ------------------------------------------------------
 Symbolic Z-matrix:
 Charge =  0 Multiplicity = 1

                         Standard orientation:
 ---------------------------------------------------------------------
 Center     Atomic      Atomic             Coordinates (Angstroms)
 Number     Number       Type             X           Y           Z
 ---------------------------------------------------------------------
      1          6           0        3.719580    0.529238   -0.203900
      2          6           0        3.458185    2.002929    0.108977
      3          6           0        1.990323    2.393216   -0.066666
      4          1           0        3.403363    0.318115   -1.234617
      5          1           0        3.092881   -0.093804    0.449142
      6          1           0        4.086211    2.622982   -0.543505
      7          1           0        3.775238    2.210612    1.139007
      8          1           0        1.351941    1.799510    0.595591
      9          1           0        1.664680    2.214223   -1.096481
     10          1           0        1.825958    3.450799    0.162160
     11          6           0        5.182499    0.123843   -0.032873
     12          6           0        5.443894   -1.349848   -0.345750
     13          6           0        6.911756   -1.740135   -0.170107
     14          1           0        5.809198    0.746884   -0.685914
     15          1           0        5.498716    0.334965    0.997845
     16          1           0        5.126841   -1.557532   -1.375779
     17          1           0        4.815868   -1.969902    0.306733
     18          1           0        7.237398   -1.561143    0.859709
     19          1           0        7.550138   -1.146430   -0.832363
     20          1           0        7.076121   -2.797719   -0.398933
     21          6           0       -1.042752   -0.412510    0.735733
     22          6           0       -1.802287   -1.576706    0.579929
     23          6           0       -3.152108   -1.501462    0.223741
     24          6           0       -3.712745   -0.239892    0.030303
     25          6           0       -2.982291    0.938207    0.177979
     26          6           0       -1.634135    0.839024    0.534616
     27          1           0        0.005174   -0.480259    1.012602
     28          1           0       -1.345653   -2.550018    0.735477
     29          1           0       -3.763311   -2.386701    0.096456
     30          1           0       -3.465331    1.894190    0.016158
     31          1           0       -1.046702    1.744836    0.654917
     32          7           0       -5.140858   -0.147564   -0.347015
     33          8           0       -5.611270    0.975922   -0.511724
     34          8           0       -5.762759   -1.200431   -0.470901
 ---------------------------------------------------------------------

 SCF Done:  E(RHF) =  -669.535193224     A.U. after   15 cycles
 E2 =    -0.2091555408D+01 EUMP2 =    -0.67162674863217D+03

 The electronic state is 1-A.
 Alpha  occ. eigenvalues --  -20.60700 -20.60695 -15.85752 -11.31101 -11.27670
 Alpha  occ. eigenvalues --  -11.27651 -11.27398 -11.26689 -11.26621 -11.22612
 Alpha  occ. eigenvalues --  -11.22381 -11.22343 -11.22292 -11.22146 -11.21633
 Alpha  occ. eigenvalues --   -1.59776  -1.39330  -1.19269  -1.09314  -1.08669
 Alpha  occ. eigenvalues --   -1.04671  -1.04408  -0.96885  -0.95508  -0.87912
 Alpha  occ. eigenvalues --   -0.86068  -0.82338  -0.80492  -0.79107  -0.77387
 Alpha  occ. eigenvalues --   -0.71972  -0.71099  -0.70396  -0.65950  -0.64924
 Alpha  occ. eigenvalues --   -0.64699  -0.62084  -0.61747  -0.60253  -0.58463
 Alpha  occ. eigenvalues --   -0.56179  -0.55180  -0.53578  -0.53355  -0.52990
 Alpha  occ. eigenvalues --   -0.52702  -0.50815  -0.48812  -0.48727  -0.48698
 Alpha  occ. eigenvalues --   -0.47506  -0.46650  -0.46555  -0.44739  -0.44659
 Alpha  occ. eigenvalues --   -0.37247  -0.36269
 Alpha virt. eigenvalues --    0.05141   0.11365   0.16628   0.19244   0.22315
 Alpha virt. eigenvalues --    0.23641   0.24904   0.25646   0.26395   0.28006
 Alpha virt. eigenvalues --    0.29035   0.29816   0.30868   0.31104   0.31497

 Mulliken charges:
               1
     1  C   -0.298680
     2  C   -0.300549
     3  C   -0.480541
     4  H    0.152597
     5  H    0.141833
     6  H    0.157031
     7  H    0.154226
     8  H    0.144203
     9  H    0.161103
    10  H    0.164502
    11  C   -0.298938
    12  C   -0.299994
    13  C   -0.476177
    14  H    0.152438
    15  H    0.150921
    16  H    0.153210
    17  H    0.149958
    18  H    0.155957
    19  H    0.156750
    20  H    0.161890
    21  C   -0.173698
    22  C   -0.218898
    23  C   -0.171254
    24  C    0.158533
    25  C   -0.171613
    26  C   -0.222037
    27  H    0.227002
    28  H    0.223066
    29  H    0.275209
    30  H    0.275422
    31  H    0.229819
    32  N    0.488003
    33  O   -0.460596
    34  O   -0.460699
 Sum of Mulliken charges =  -0.00000

 Dipole moment (field-independent basis, Debye):
    X=              5.3112    Y=             -0.2553    Z=              1.2495  Tot=              5.4622
 Quadrupole moment (field-independent basis, Debye-Ang):
   XX=           -132.8306   YY=            -89.4737   ZZ=            -94.5937
   XY=              1.0468   XZ=             -5.2694   YZ=             -0.7244

 Normal termination of Gaussian 16 at Thu May  6 04:06:30 2021.
