 Gaussian 16, Revision A.03,
 Gaussian 16:  EM64L-G16RevA.03 25-Dec-2016

 -------------
 #p 6-31g* mp2
 -------------

 ------------------------------------------------------
 Input file generated by CHIRIPA (05-May-2021 14:55:24)
 ------------------------------------------------------
 Symbolic Z-matrix:
 Charge =  0 Multiplicity = 1

                         Standard orientation:
 ---------------------------------------------------------------------
 Center     Atomic      Atomic             Coordinates (Angstroms)
 Number     Number       Type             X           Y           Z
 ---------------------------------------------------------------------
      1          6           0        4.879877   -1.411751    0.675785
      2          6           0        5.047567   -0.165416    0.063371
      3          6           0        3.942760    0.544267   -0.416525
      4          6           0        2.678972   -0.024669   -0.266718
      5          6           0        2.479445   -1.264337    0.338842
      6          6           0        3.598610   -1.956274    0.811327
      7          1           0        5.743694   -1.956157    1.045701
      8          1           0        6.041435    0.259910   -0.043258
      9          1           0        4.043945    1.510978   -0.894696
     10          1           0        1.476264   -1.662581    0.430748
     11          1           0        3.465378   -2.924001    1.286509
     12          7           0        1.501763    0.717247   -0.770839
     13          8           0        0.398871    0.194280   -0.626711
     14          8           0        1.704248    1.807679   -1.300551
     15          6           0       -4.366184   -0.142082    0.240776
     16          6           0       -4.394736   -1.497557   -0.466232
     17          6           0       -5.779461   -2.145582   -0.446402
     18          1           0       -4.697477   -0.270843    1.280300
     19          1           0       -5.092872    0.528767   -0.238057
     20          1           0       -3.667221   -2.165210    0.012910
     21          1           0       -4.063154   -1.365586   -1.504140
     22          1           0       -6.513156   -1.501918   -0.942376
     23          1           0       -6.114973   -2.306085    0.583293
     24          1           0       -5.777085   -3.113529   -0.957219
     25          6           0       -2.988672    0.518263    0.229323
     26          6           0       -2.960120    1.873738    0.936330
     27          6           0       -1.575394    2.521764    0.916500
     28          1           0       -2.261984   -0.152586    0.708156
     29          1           0       -2.657379    0.647025   -0.810201
     30          1           0       -3.291702    1.741767    1.974238
     31          1           0       -3.687635    2.541391    0.457189
     32          1           0       -1.239883    2.682267   -0.113194
     33          1           0       -0.841700    1.878100    1.412475
     34          1           0       -1.577770    3.489710    1.427317
 ---------------------------------------------------------------------

 SCF Done:  E(RHF) =  -669.535631302     A.U. after   15 cycles
 E2 =    -0.2092662656D+01 EUMP2 =    -0.67162829395813D+03

 The electronic state is 1-A.
 Alpha  occ. eigenvalues --  -20.60985 -20.60979 -15.85982 -11.31316 -11.27879
 Alpha  occ. eigenvalues --  -11.27871 -11.27611 -11.26883 -11.26872 -11.20746
 Alpha  occ. eigenvalues --  -11.20416 -11.20290 -11.20204 -11.19786 -11.19319
 Alpha  occ. eigenvalues --   -1.60029  -1.39588  -1.19482  -1.08887  -1.07203
 Alpha  occ. eigenvalues --   -1.04877  -1.02335  -0.95730  -0.94762  -0.86278
 Alpha  occ. eigenvalues --   -0.85775  -0.82571  -0.78457  -0.77634  -0.76911
 Alpha  occ. eigenvalues --   -0.72197  -0.71335  -0.70590  -0.65137  -0.64881
 Alpha  occ. eigenvalues --   -0.63858  -0.62225  -0.59754  -0.58184  -0.56365
 Alpha  occ. eigenvalues --   -0.55379  -0.54052  -0.53211  -0.52969  -0.51522
 Alpha  occ. eigenvalues --   -0.51161  -0.49060  -0.48988  -0.48667  -0.46710
 Alpha  occ. eigenvalues --   -0.45540  -0.45066  -0.44335  -0.44263  -0.42570
 Alpha  occ. eigenvalues --   -0.37456  -0.36478
 Alpha virt. eigenvalues --    0.04890   0.11176   0.16370   0.21267   0.23940
 Alpha virt. eigenvalues --    0.25552   0.27098   0.27652   0.28163   0.28897
 Alpha virt. eigenvalues --    0.29196   0.30940   0.32209   0.32671   0.32767

 Mulliken charges:
               1
     1  C   -0.170577
     2  C   -0.218562
     3  C   -0.170540
     4  C    0.158504
     5  C   -0.170958
     6  C   -0.218501
     7  H    0.226076
     8  H    0.223918
     9  H    0.275987
    10  H    0.275446
    11  H    0.223880
    12  N    0.491690
    13  O   -0.459947
    14  O   -0.459490
    15  C   -0.298349
    16  C   -0.297511
    17  C   -0.474819
    18  H    0.144164
    19  H    0.146308
    20  H    0.148348
    21  H    0.153416
    22  H    0.154314
    23  H    0.152803
    24  H    0.156864
    25  C   -0.293674
    26  C   -0.300815
    27  C   -0.470986
    28  H    0.150734
    29  H    0.161592
    30  H    0.143285
    31  H    0.146667
    32  H    0.173315
    33  H    0.149476
    34  H    0.147943
 Sum of Mulliken charges =  -0.00000

 Dipole moment (field-independent basis, Debye):
    X=              4.5429    Y=             -2.6219    Z=              1.5670  Tot=              5.4743
 Quadrupole moment (field-independent basis, Debye-Ang):
   XX=            -73.3898   YY=            -92.9177   ZZ=            -95.5398
   XY=             -5.4495   XZ=              3.3468   YZ=             -1.6938

 Normal termination of Gaussian 16 at Thu May  6 17:41:28 2021.
