 Gaussian 16, Revision A.03,
 Gaussian 16:  EM64L-G16RevA.03 25-Dec-2016

 -------------
 #p 6-31g* mp2
 -------------

 ------------------------------------------------------
 Input file generated by CHIRIPA (05-May-2021 14:53:12)
 ------------------------------------------------------
 Symbolic Z-matrix:
 Charge =  0 Multiplicity = 1

                         Standard orientation:
 ---------------------------------------------------------------------
 Center     Atomic      Atomic             Coordinates (Angstroms)
 Number     Number       Type             X           Y           Z
 ---------------------------------------------------------------------
      1          6           0       -3.587858    0.850752    0.230714
      2          6           0       -3.092529    1.854686   -0.810799
      3          6           0       -2.154698    2.906955   -0.218348
      4          1           0       -4.103450    1.391739    1.035974
      5          1           0       -2.722752    0.354298    0.691715
      6          1           0       -3.958361    2.348103   -1.270679
      7          1           0       -2.578223    1.311229   -1.613768
      8          1           0       -1.273047    2.431921    0.223959
      9          1           0       -2.661027    3.474687    0.568997
     10          1           0       -1.812623    3.614364   -0.980199
     11          6           0       -4.526370   -0.207524   -0.346326
     12          6           0       -5.021699   -1.211458    0.695187
     13          6           0       -5.959529   -2.263728    0.102736
     14          1           0       -5.391475    0.288929   -0.807327
     15          1           0       -4.010778   -0.748511   -1.151586
     16          1           0       -5.536004   -0.668001    1.498156
     17          1           0       -4.155867   -1.704876    1.155067
     18          1           0       -5.453201   -2.831460   -0.684609
     19          1           0       -6.841180   -1.788694   -0.339571
     20          1           0       -6.301605   -2.971136    0.864587
     21          6           0        0.649617   -0.208874    0.162240
     22          6           0        1.408498    0.226352    1.253660
     23          6           0        2.805387    0.207295    1.199926
     24          6           0        3.413245   -0.255359    0.033842
     25          6           0        2.684734   -0.695534   -1.070153
     26          6           0        1.289028   -0.667619   -0.994145
     27          1           0       -0.435060   -0.190630    0.212634
     28          1           0        0.914624    0.583136    2.153014
     29          1           0        3.417224    0.538452    2.030231
     30          1           0        3.205513   -1.045742   -1.953080
     31          1           0        0.702222   -1.006226   -1.843290
     32          7           0        4.891441   -0.280222   -0.034835
     33          8           0        5.402936   -0.692423   -1.073632
     34          8           0        5.510567    0.112962    0.951434
 ---------------------------------------------------------------------

 SCF Done:  E(RHF) =  -669.535362417     A.U. after   15 cycles
 E2 =    -0.2092001356D+01 EUMP2 =    -0.67162736377282D+03

 The electronic state is 1-A.
 Alpha  occ. eigenvalues --  -20.60767 -20.60762 -15.85821 -11.31198 -11.27767
 Alpha  occ. eigenvalues --  -11.27763 -11.27489 -11.26788 -11.26777 -11.22640
 Alpha  occ. eigenvalues --  -11.22560 -11.22437 -11.22332 -11.21975 -11.21753
 Alpha  occ. eigenvalues --   -1.59842  -1.39395  -1.19371  -1.09443  -1.08764
 Alpha  occ. eigenvalues --   -1.04774  -1.04437  -0.96880  -0.95599  -0.87890
 Alpha  occ. eigenvalues --   -0.86172  -0.82433  -0.80500  -0.79258  -0.77473
 Alpha  occ. eigenvalues --   -0.72038  -0.71165  -0.70527  -0.66088  -0.65023
 Alpha  occ. eigenvalues --   -0.64772  -0.62121  -0.61840  -0.60245  -0.58488
 Alpha  occ. eigenvalues --   -0.56195  -0.55278  -0.53524  -0.53315  -0.53078
 Alpha  occ. eigenvalues --   -0.52865  -0.50830  -0.48815  -0.48794  -0.48786
 Alpha  occ. eigenvalues --   -0.47550  -0.46768  -0.46724  -0.44798  -0.44715
 Alpha  occ. eigenvalues --   -0.37336  -0.36377
 Alpha virt. eigenvalues --    0.05034   0.11224   0.16435   0.18605   0.22738
 Alpha virt. eigenvalues --    0.23844   0.25173   0.25857   0.26800   0.27746
 Alpha virt. eigenvalues --    0.29496   0.30823   0.30933   0.31075   0.31959

 Mulliken charges:
               1
     1  C   -0.302711
     2  C   -0.301441
     3  C   -0.477534
     4  H    0.155245
     5  H    0.139193
     6  H    0.157545
     7  H    0.148455
     8  H    0.150791
     9  H    0.157757
    10  H    0.165533
    11  C   -0.298310
    12  C   -0.300001
    13  C   -0.476149
    14  H    0.153897
    15  H    0.147456
    16  H    0.154161
    17  H    0.149712
    18  H    0.155382
    19  H    0.157078
    20  H    0.162786
    21  C   -0.176633
    22  C   -0.222433
    23  C   -0.170516
    24  C    0.158446
    25  C   -0.170550
    26  C   -0.221671
    27  H    0.237923
    28  H    0.224080
    29  H    0.275818
    30  H    0.275641
    31  H    0.223760
    32  N    0.487972
    33  O   -0.460368
    34  O   -0.460314
 Sum of Mulliken charges =  -0.00000

 Dipole moment (field-independent basis, Debye):
    X=             -5.4136    Y=              0.1436    Z=              0.2187  Tot=              5.4199
 Quadrupole moment (field-independent basis, Debye-Ang):
   XX=           -129.6313   YY=            -94.8232   ZZ=            -90.5446
   XY=              0.5334   XZ=              0.6173   YZ=              1.7765

 Normal termination of Gaussian 16 at Thu May  6 00:58:15 2021.
