 Gaussian 16, Revision A.03,
 Gaussian 16:  EM64L-G16RevA.03 25-Dec-2016

 -------------
 #p 6-31g* mp2
 -------------

 ------------------------------------------------------
 Input file generated by CHIRIPA (05-May-2021 14:53:12)
 ------------------------------------------------------
 Symbolic Z-matrix:
 Charge =  0 Multiplicity = 1

                         Standard orientation:
 ---------------------------------------------------------------------
 Center     Atomic      Atomic             Coordinates (Angstroms)
 Number     Number       Type             X           Y           Z
 ---------------------------------------------------------------------
      1          6           0       -4.349547   -0.085963   -0.320537
      2          6           0       -4.959018    1.311621   -0.435816
      3          6           0       -6.059328    1.391223   -1.494483
      4          1           0       -3.943164   -0.383501   -1.296891
      5          1           0       -5.143880   -0.806082   -0.079998
      6          1           0       -4.163547    2.029100   -0.674702
      7          1           0       -5.363827    1.605945    0.540974
      8          1           0       -6.872672    0.697687   -1.257672
      9          1           0       -5.665572    1.123245   -2.480255
     10          1           0       -6.481120    2.399012   -1.560141
     11          6           0       -3.248106   -0.181475    0.733709
     12          6           0       -2.638635   -1.579059    0.848988
     13          6           0       -1.538325   -1.658660    1.907655
     14          1           0       -2.453773    0.538644    0.493171
     15          1           0       -3.654489    0.116063    1.710064
     16          1           0       -2.233826   -1.873383   -0.127802
     17          1           0       -3.434106   -2.296537    1.087874
     18          1           0       -1.932080   -1.390683    2.893427
     19          1           0       -0.724981   -0.965125    1.670844
     20          1           0       -1.116532   -2.666450    1.973313
     21          6           0        3.445051    2.356928    0.870403
     22          6           0        2.561730    1.472453    1.498072
     23          6           0        2.289870    0.221826    0.935425
     24          6           0        2.921697   -0.113292   -0.261146
     25          6           0        3.806596    0.746082   -0.910548
     26          6           0        4.063574    1.991564   -0.329788
     27          1           0        3.650458    3.326447    1.314517
     28          1           0        2.079937    1.753527    2.430230
     29          1           0        1.610290   -0.482188    1.400133
     30          1           0        4.271690    0.437724   -1.838999
     31          1           0        4.750018    2.676438   -0.819468
     32          7           0        2.641769   -1.434552   -0.866383
     33          8           0        3.211226   -1.706008   -1.921213
     34          8           0        1.858204   -2.173680   -0.274479
 ---------------------------------------------------------------------

 SCF Done:  E(RHF) =  -669.535582353     A.U. after   15 cycles
 E2 =    -0.2091211338D+01 EUMP2 =    -0.67162679369147D+03

 The electronic state is 1-A.
 Alpha  occ. eigenvalues --  -20.60792 -20.60787 -15.85842 -11.31205 -11.27776
 Alpha  occ. eigenvalues --  -11.27748 -11.27518 -11.26796 -11.26782 -11.21535
 Alpha  occ. eigenvalues --  -11.21327 -11.21268 -11.21212 -11.20998 -11.20927
 Alpha  occ. eigenvalues --   -1.59866  -1.39419  -1.19379  -1.08775  -1.08286
 Alpha  occ. eigenvalues --   -1.04782  -1.03379  -0.95851  -0.95606  -0.86874
 Alpha  occ. eigenvalues --   -0.86178  -0.82439  -0.79452  -0.78104  -0.77485
 Alpha  occ. eigenvalues --   -0.72061  -0.71189  -0.70493  -0.65031  -0.64937
 Alpha  occ. eigenvalues --   -0.64770  -0.62162  -0.60756  -0.59194  -0.57447
 Alpha  occ. eigenvalues --   -0.55343  -0.55100  -0.53112  -0.52901  -0.52514
 Alpha  occ. eigenvalues --   -0.52257  -0.49797  -0.48820  -0.48811  -0.47769
 Alpha  occ. eigenvalues --   -0.46472  -0.45650  -0.45561  -0.44821  -0.43630
 Alpha  occ. eigenvalues --   -0.37362  -0.36382
 Alpha virt. eigenvalues --    0.05018   0.11223   0.16531   0.20838   0.23038
 Alpha virt. eigenvalues --    0.24204   0.25914   0.27039   0.27739   0.27776
 Alpha virt. eigenvalues --    0.29205   0.30690   0.31478   0.31930   0.32185

 Mulliken charges:
               1
     1  C   -0.298528
     2  C   -0.299340
     3  C   -0.475679
     4  H    0.151971
     5  H    0.149910
     6  H    0.150594
     7  H    0.150745
     8  H    0.155475
     9  H    0.156034
    10  H    0.159268
    11  C   -0.298287
    12  C   -0.300594
    13  C   -0.475742
    14  H    0.146754
    15  H    0.147146
    16  H    0.161292
    17  H    0.151953
    18  H    0.150242
    19  H    0.146137
    20  H    0.170263
    21  C   -0.170705
    22  C   -0.220715
    23  C   -0.178205
    24  C    0.157477
    25  C   -0.170604
    26  C   -0.218635
    27  H    0.225717
    28  H    0.224059
    29  H    0.286648
    30  H    0.275594
    31  H    0.223517
    32  N    0.487354
    33  O   -0.460347
    34  O   -0.460766
 Sum of Mulliken charges =  -0.00000

 Dipole moment (field-independent basis, Debye):
    X=              0.9991    Y=              4.5489    Z=              2.0724  Tot=              5.0976
 Quadrupole moment (field-independent basis, Debye-Ang):
   XX=            -87.8550   YY=            -95.9424   ZZ=            -93.5619
   XY=             15.1490   XZ=              2.3895   YZ=             -2.3804

 Normal termination of Gaussian 16 at Thu May  6 04:05:59 2021.
