 Gaussian 16, Revision A.03,
 Gaussian 16:  EM64L-G16RevA.03 25-Dec-2016

 -------------
 #p 6-31g* mp2
 -------------

 ------------------------------------------------------
 Input file generated by CHIRIPA (05-May-2021 14:57:23)
 ------------------------------------------------------
 Symbolic Z-matrix:
 Charge =  0 Multiplicity = 1

                         Standard orientation:
 ---------------------------------------------------------------------
 Center     Atomic      Atomic             Coordinates (Angstroms)
 Number     Number       Type             X           Y           Z
 ---------------------------------------------------------------------
      1          6           0        0.477343    0.046052    1.882607
      2          6           0        1.298084   -1.086066    1.847764
      3          6           0        2.423896   -1.121643    1.019616
      4          6           0        2.700547   -0.002399    0.236003
      5          6           0        1.902154    1.140273    0.248616
      6          6           0        0.781461    1.153656    1.084329
      7          1           0       -0.395227    0.065069    2.528871
      8          1           0        1.064338   -1.947698    2.466632
      9          1           0        3.076343   -1.985107    0.973139
     10          1           0        2.160843    1.983880   -0.379735
     11          1           0        0.145851    2.034234    1.109345
     12          7           0        3.889684   -0.028315   -0.644725
     13          8           0        4.111734    0.970666   -1.325436
     14          8           0        4.577163   -1.047118   -0.637651
     15          6           0       -2.329276    2.498405   -0.091651
     16          6           0       -2.906053    1.715993    0.914173
     17          6           0       -3.008410    0.329748    0.764524
     18          6           0       -2.521509   -0.243589   -0.409147
     19          6           0       -1.941652    0.508983   -1.429290
     20          6           0       -1.849763    1.893469   -1.258115
     21          1           0       -2.253828    3.574590    0.032961
     22          1           0       -3.279296    2.183077    1.821128
     23          1           0       -3.450343   -0.299763    1.527302
     24          1           0       -1.578502    0.014741   -2.322187
     25          1           0       -1.401349    2.498606   -2.040918
     26          7           0       -2.624329   -1.710215   -0.578967
     27          8           0       -2.187840   -2.191154   -1.622428
     28          8           0       -3.139462   -2.351045    0.334605
 ---------------------------------------------------------------------

 SCF Done:  E(RHF) =  -868.335581179     A.U. after   16 cycles
 E2 =    -0.2605435659D+01 EUMP2 =    -0.87094101683821D+03

 The electronic state is 1-A.
 Alpha  occ. eigenvalues --  -20.61511 -20.61477 -20.60769 -20.60746 -15.86554
 Alpha  occ. eigenvalues --  -15.85810 -11.32100 -11.31143 -11.28758 -11.28615
 Alpha  occ. eigenvalues --  -11.28457 -11.27816 -11.27713 -11.27678 -11.27632
 Alpha  occ. eigenvalues --  -11.27377 -11.26658 -11.26636  -1.60567  -1.59835
 Alpha  occ. eigenvalues --   -1.40116  -1.39390  -1.20326  -1.19290  -1.09691
 Alpha  occ. eigenvalues --   -1.08697  -1.05739  -1.04687  -0.96482  -0.95544
 Alpha  occ. eigenvalues --   -0.87121  -0.86093  -0.83296  -0.82378  -0.78302
 Alpha  occ. eigenvalues --   -0.77440  -0.72770  -0.72031  -0.71894  -0.71422
 Alpha  occ. eigenvalues --   -0.71157  -0.70423  -0.65957  -0.65718  -0.64942
 Alpha  occ. eigenvalues --   -0.64749  -0.63054  -0.62090  -0.56236  -0.55213
 Alpha  occ. eigenvalues --   -0.54465  -0.53803  -0.52901  -0.52451  -0.49546
 Alpha  occ. eigenvalues --   -0.49513  -0.48794  -0.48778  -0.45483  -0.44804
 Alpha  occ. eigenvalues --   -0.38368  -0.37534  -0.37132  -0.36086
 Alpha virt. eigenvalues --    0.04154   0.05086   0.10231   0.11357   0.15511
 Alpha virt. eigenvalues --    0.16628   0.20192   0.21874   0.25981   0.26957
 Alpha virt. eigenvalues --    0.27921   0.28583   0.30130   0.31292   0.32043

 Mulliken charges:
               1
     1  C   -0.174551
     2  C   -0.217979
     3  C   -0.170369
     4  C    0.159091
     5  C   -0.176737
     6  C   -0.211147
     7  H    0.221337
     8  H    0.227160
     9  H    0.276956
    10  H    0.270036
    11  H    0.220616
    12  N    0.488166
    13  O   -0.463473
    14  O   -0.458461
    15  C   -0.184849
    16  C   -0.222855
    17  C   -0.177850
    18  C    0.166170
    19  C   -0.164919
    20  C   -0.216057
    21  H    0.228265
    22  H    0.225142
    23  H    0.275670
    24  H    0.281245
    25  H    0.228555
    26  N    0.487775
    27  O   -0.454868
    28  O   -0.462069
 Sum of Mulliken charges =  -0.00000

 Dipole moment (field-independent basis, Debye):
    X=             -3.9905    Y=              5.0642    Z=              3.4859  Tot=              7.3295
 Quadrupole moment (field-independent basis, Debye-Ang):
   XX=           -129.6149   YY=           -103.7793   ZZ=            -99.9870
   XY=            -14.1088   XZ=              4.3117   YZ=             -4.5101

 Normal termination of Gaussian 16 at Fri May  7 06:26:48 2021.
