 Gaussian 16, Revision A.03,
 Gaussian 16:  EM64L-G16RevA.03 25-Dec-2016

 -------------
 #p 6-31g* mp2
 -------------

 ------------------------------------------------------
 Input file generated by CHIRIPA (05-May-2021 14:53:13)
 ------------------------------------------------------
 Symbolic Z-matrix:
 Charge =  0 Multiplicity = 1

                         Standard orientation:
 ---------------------------------------------------------------------
 Center     Atomic      Atomic             Coordinates (Angstroms)
 Number     Number       Type             X           Y           Z
 ---------------------------------------------------------------------
      1          6           0        3.431544   -0.362148   -0.089778
      2          6           0        3.833307   -1.318775    1.033359
      3          6           0        3.995094   -2.760940    0.551926
      4          1           0        2.490317   -0.708223   -0.538408
      5          1           0        4.189577   -0.401605   -0.884274
      6          1           0        3.075448   -1.276494    1.826125
      7          1           0        4.773587   -0.970276    1.479495
      8          1           0        4.765462   -2.824118   -0.223408
      9          1           0        3.057674   -3.132076    0.125192
     10          1           0        4.282497   -3.427717    1.370870
     11          6           0        3.265939    1.083345    0.375896
     12          6           0        2.864176    2.039972   -0.747241
     13          6           0        2.702389    3.482137   -0.265808
     14          1           0        2.507906    1.122802    1.170392
     15          1           0        4.207166    1.429419    0.824526
     16          1           0        1.923896    1.691473   -1.193377
     17          1           0        3.622035    1.997691   -1.540007
     18          1           0        3.639809    3.853273    0.160926
     19          1           0        1.932021    3.545315    0.509526
     20          1           0        2.414986    4.148914   -1.084751
     21          6           0       -1.129505   -2.134288   -0.962429
     22          6           0       -2.384206   -2.435709   -0.422622
     23          6           0       -3.216310   -1.417307    0.051729
     24          6           0       -2.759933   -0.102617   -0.029526
     25          6           0       -1.515153    0.229645   -0.561892
     26          6           0       -0.699740   -0.804917   -1.030222
     27          1           0       -0.489590   -2.931684   -1.328577
     28          1           0       -2.720575   -3.467210   -0.368705
     29          1           0       -4.192342   -1.622466    0.474445
     30          1           0       -1.207319    1.267443   -0.602277
     31          1           0        0.274186   -0.567875   -1.448939
     32          7           0       -3.632008    0.984072    0.469461
     33          8           0       -3.206744    2.134255    0.386594
     34          8           0       -4.724293    0.665061    0.933986
 ---------------------------------------------------------------------

 SCF Done:  E(RHF) =  -669.535384831     A.U. after   15 cycles
 E2 =    -0.2092063533D+01 EUMP2 =    -0.67162744836412D+03

 The electronic state is 1-A.
 Alpha  occ. eigenvalues --  -20.60782 -20.60776 -15.85835 -11.31209 -11.27780
 Alpha  occ. eigenvalues --  -11.27775 -11.27524 -11.26793 -11.26765 -11.22332
 Alpha  occ. eigenvalues --  -11.22269 -11.22194 -11.22015 -11.21785 -11.21488
 Alpha  occ. eigenvalues --   -1.59857  -1.39410  -1.19383  -1.09140  -1.08774
 Alpha  occ. eigenvalues --   -1.04787  -1.04178  -0.96613  -0.95609  -0.87624
 Alpha  occ. eigenvalues --   -0.86187  -0.82443  -0.80247  -0.78979  -0.77484
 Alpha  occ. eigenvalues --   -0.72053  -0.71180  -0.70490  -0.65854  -0.65034
 Alpha  occ. eigenvalues --   -0.64745  -0.62133  -0.61571  -0.59979  -0.58228
 Alpha  occ. eigenvalues --   -0.55915  -0.55281  -0.53287  -0.53120  -0.53054
 Alpha  occ. eigenvalues --   -0.52854  -0.50550  -0.48817  -0.48808  -0.48559
 Alpha  occ. eigenvalues --   -0.47296  -0.46493  -0.46394  -0.44814  -0.44442
 Alpha  occ. eigenvalues --   -0.37360  -0.36382
 Alpha virt. eigenvalues --    0.05043   0.11172   0.16478   0.18723   0.22843
 Alpha virt. eigenvalues --    0.23099   0.24731   0.26445   0.26998   0.27497
 Alpha virt. eigenvalues --    0.29854   0.30683   0.31130   0.31646   0.31906

 Mulliken charges:
               1
     1  C   -0.300876
     2  C   -0.300188
     3  C   -0.474782
     4  H    0.140752
     5  H    0.151264
     6  H    0.155062
     7  H    0.155260
     8  H    0.156389
     9  H    0.148531
    10  H    0.163356
    11  C   -0.299738
    12  C   -0.300573
    13  C   -0.477112
    14  H    0.153036
    15  H    0.153659
    16  H    0.141405
    17  H    0.154136
    18  H    0.157701
    19  H    0.159543
    20  H    0.162967
    21  C   -0.172457
    22  C   -0.218458
    23  C   -0.170808
    24  C    0.158923
    25  C   -0.173443
    26  C   -0.223452
    27  H    0.225962
    28  H    0.223615
    29  H    0.275730
    30  H    0.276100
    31  H    0.231207
    32  N    0.488046
    33  O   -0.460372
    34  O   -0.460386
 Sum of Mulliken charges =  -0.00000

 Dipole moment (field-independent basis, Debye):
    X=              3.2187    Y=             -3.7455    Z=             -1.6462  Tot=              5.2057
 Quadrupole moment (field-independent basis, Debye-Ang):
   XX=           -108.0062   YY=            -92.7669   ZZ=            -95.1173
   XY=             13.6559   XZ=              3.9135   YZ=             -0.8989

 Normal termination of Gaussian 16 at Wed May  5 20:11:48 2021.
