 Gaussian 16, Revision A.03,
 Gaussian 16:  EM64L-G16RevA.03 25-Dec-2016

 -------------
 #p 6-31g* mp2
 -------------

 ------------------------------------------------------
 Input file generated by CHIRIPA (05-May-2021 14:55:19)
 ------------------------------------------------------
 Symbolic Z-matrix:
 Charge =  0 Multiplicity = 1

                         Standard orientation:
 ---------------------------------------------------------------------
 Center     Atomic      Atomic             Coordinates (Angstroms)
 Number     Number       Type             X           Y           Z
 ---------------------------------------------------------------------
      1          6           0       -4.567688    0.361121   -1.692783
      2          6           0       -3.915429    1.343925   -0.941002
      3          6           0       -3.010930    0.986026    0.063158
      4          6           0       -2.781383   -0.370157    0.289799
      5          6           0       -3.415614   -1.372726   -0.442250
      6          6           0       -4.316143   -0.991683   -1.441451
      7          1           0       -5.268783    0.648135   -2.470913
      8          1           0       -4.108834    2.395303   -1.133991
      9          1           0       -2.492181    1.726253    0.660136
     10          1           0       -3.202281   -2.412652   -0.226705
     11          1           0       -4.821250   -1.757103   -2.023725
     12          7           0       -1.825932   -0.761300    1.350234
     13          8           0       -1.641040   -1.962970    1.530349
     14          8           0       -1.280034    0.141199    1.981208
     15          6           0        4.372727   -0.023052    0.048824
     16          6           0        5.217034   -0.462144   -1.147976
     17          6           0        6.435795   -1.290200   -0.739636
     18          1           0        4.999598    0.559610    0.737651
     19          1           0        4.043565   -0.913117    0.602750
     20          1           0        5.543355    0.428419   -1.700267
     21          1           0        4.588033   -1.043669   -1.834127
     22          1           0        6.125794   -2.195482   -0.207692
     23          1           0        7.086545   -0.715030   -0.073072
     24          1           0        7.025181   -1.593492   -1.610553
     25          6           0        3.150735    0.805625   -0.343293
     26          6           0        2.306429    1.244717    0.853507
     27          6           0        1.087668    2.072771    0.445167
     28          1           0        3.479899    1.695687   -0.897218
     29          1           0        2.523865    0.222961   -1.032120
     30          1           0        2.935430    1.826240    1.539658
     31          1           0        1.980108    0.354152    1.405799
     32          1           0        0.436919    1.497602   -0.221397
     33          1           0        1.397669    2.978053   -0.086777
     34          1           0        0.498281    2.376064    1.316084
 ---------------------------------------------------------------------

 SCF Done:  E(RHF) =  -669.535965820     A.U. after   15 cycles
 E2 =    -0.2091934233D+01 EUMP2 =    -0.67162790005271D+03

 The electronic state is 1-A.
 Alpha  occ. eigenvalues --  -20.60917 -20.60890 -15.85931 -11.31256 -11.27820
 Alpha  occ. eigenvalues --  -11.27802 -11.27557 -11.26827 -11.26811 -11.21134
 Alpha  occ. eigenvalues --  -11.20783 -11.20711 -11.20655 -11.20639 -11.20244
 Alpha  occ. eigenvalues --   -1.59967  -1.39522  -1.19424  -1.08829  -1.07774
 Alpha  occ. eigenvalues --   -1.04817  -1.02857  -0.95681  -0.95325  -0.86375
 Alpha  occ. eigenvalues --   -0.86212  -0.82503  -0.78945  -0.77593  -0.77533
 Alpha  occ. eigenvalues --   -0.72165  -0.71287  -0.70529  -0.65081  -0.64820
 Alpha  occ. eigenvalues --   -0.64401  -0.62165  -0.60249  -0.58695  -0.56917
 Alpha  occ. eigenvalues --   -0.55325  -0.54643  -0.53152  -0.52912  -0.52023
 Alpha  occ. eigenvalues --   -0.51767  -0.49356  -0.48913  -0.48879  -0.47253
 Alpha  occ. eigenvalues --   -0.45969  -0.45152  -0.45013  -0.44860  -0.43111
 Alpha  occ. eigenvalues --   -0.37403  -0.36413
 Alpha virt. eigenvalues --    0.04951   0.11179   0.16427   0.21245   0.23491
 Alpha virt. eigenvalues --    0.24793   0.26858   0.27270   0.27750   0.28161
 Alpha virt. eigenvalues --    0.28915   0.30737   0.31698   0.31810   0.32433

 Mulliken charges:
               1
     1  C   -0.170528
     2  C   -0.219160
     3  C   -0.170448
     4  C    0.157157
     5  C   -0.171005
     6  C   -0.218605
     7  H    0.225896
     8  H    0.224119
     9  H    0.278294
    10  H    0.275573
    11  H    0.223646
    12  N    0.488947
    13  O   -0.460078
    14  O   -0.459393
    15  C   -0.298481
    16  C   -0.298986
    17  C   -0.475469
    18  H    0.148723
    19  H    0.152846
    20  H    0.149986
    21  H    0.150773
    22  H    0.156016
    23  H    0.154666
    24  H    0.158240
    25  C   -0.297724
    26  C   -0.302514
    27  C   -0.471854
    28  H    0.145490
    29  H    0.147086
    30  H    0.148851
    31  H    0.167554
    32  H    0.146146
    33  H    0.144855
    34  H    0.169381
 Sum of Mulliken charges =  -0.00000

 Dipole moment (field-independent basis, Debye):
    X=             -3.5477    Y=              1.2920    Z=             -3.5741  Tot=              5.1990
 Quadrupole moment (field-independent basis, Debye-Ang):
   XX=            -77.6200   YY=            -91.1124   ZZ=            -97.3810
   XY=             -0.9442   XZ=             10.1888   YZ=              3.2170

 Normal termination of Gaussian 16 at Thu May  6 04:29:14 2021.
