 Gaussian 16, Revision A.03,
 Gaussian 16:  EM64L-G16RevA.03 25-Dec-2016

 -------------
 #p 6-31g* mp2
 -------------

 ------------------------------------------------------
 Input file generated by CHIRIPA (05-May-2021 14:53:16)
 ------------------------------------------------------
 Symbolic Z-matrix:
 Charge =  0 Multiplicity = 1

                         Standard orientation:
 ---------------------------------------------------------------------
 Center     Atomic      Atomic             Coordinates (Angstroms)
 Number     Number       Type             X           Y           Z
 ---------------------------------------------------------------------
      1          6           0       -3.055379    0.687108   -0.337902
      2          6           0       -3.353090    2.136227    0.048631
      3          6           0       -2.252982    3.103093   -0.390378
      4          1           0       -2.098881    0.384057    0.109554
      5          1           0       -2.924531    0.624962   -1.427127
      6          1           0       -3.484706    2.195379    1.136654
      7          1           0       -4.309083    2.435802   -0.399640
      8          1           0       -2.125397    3.073599   -1.477325
      9          1           0       -1.296336    2.831809    0.067697
     10          1           0       -2.486208    4.133360   -0.103997
     11          6           0       -4.146009   -0.291436    0.094194
     12          6           0       -3.848298   -1.740555   -0.292339
     13          6           0       -4.948405   -2.707421    0.146670
     14          1           0       -4.276857   -0.229290    1.183419
     15          1           0       -5.102506    0.011615   -0.353262
     16          1           0       -2.892304   -2.040130    0.155931
     17          1           0       -3.716682   -1.799707   -1.380362
     18          1           0       -5.905052   -2.436138   -0.311406
     19          1           0       -5.075990   -2.677927    1.233617
     20          1           0       -4.715180   -3.737689   -0.139711
     21          6           0        2.423402    2.328279    0.317948
     22          6           0        3.607207    1.854286   -0.256906
     23          6           0        3.833760    0.480711   -0.385412
     24          6           0        2.850712   -0.394591    0.073664
     25          6           0        1.661034    0.046768    0.650865
     26          6           0        1.455799    1.424600    0.769202
     27          1           0        2.255690    3.396959    0.413824
     28          1           0        4.360417    2.553778   -0.608233
     29          1           0        4.741203    0.086503   -0.826509
     30          1           0        0.928716   -0.674938    0.991847
     31          1           0        0.535495    1.789852    1.216054
     32          7           0        3.079268   -1.850987   -0.056997
     33          8           0        2.197565   -2.601513    0.355249
     34          8           0        4.135787   -2.214406   -0.569181
 ---------------------------------------------------------------------

 SCF Done:  E(RHF) =  -669.535380529     A.U. after   15 cycles
 E2 =    -0.2091579060D+01 EUMP2 =    -0.67162695958842D+03

 The electronic state is 1-A.
 Alpha  occ. eigenvalues --  -20.60769 -20.60764 -15.85823 -11.31194 -11.27773
 Alpha  occ. eigenvalues --  -11.27766 -11.27506 -11.26778 -11.26767 -11.22234
 Alpha  occ. eigenvalues --  -11.21920 -11.21892 -11.21744 -11.21678 -11.21120
 Alpha  occ. eigenvalues --   -1.59844  -1.39397  -1.19369  -1.08858  -1.08760
 Alpha  occ. eigenvalues --   -1.04777  -1.03938  -0.96407  -0.95594  -0.87427
 Alpha  occ. eigenvalues --   -0.86173  -0.82430  -0.80016  -0.78629  -0.77476
 Alpha  occ. eigenvalues --   -0.72042  -0.71166  -0.70472  -0.65527  -0.65022
 Alpha  occ. eigenvalues --   -0.64792  -0.62169  -0.61306  -0.59784  -0.57989
 Alpha  occ. eigenvalues --   -0.55734  -0.55262  -0.53116  -0.53089  -0.52974
 Alpha  occ. eigenvalues --   -0.52705  -0.50354  -0.48803  -0.48796  -0.48311
 Alpha  occ. eigenvalues --   -0.47050  -0.46175  -0.46079  -0.44802  -0.44190
 Alpha  occ. eigenvalues --   -0.37338  -0.36364
 Alpha virt. eigenvalues --    0.05052   0.11176   0.16468   0.19363   0.22872
 Alpha virt. eigenvalues --    0.23788   0.25126   0.26409   0.26772   0.28537
 Alpha virt. eigenvalues --    0.29584   0.30185   0.31223   0.31695   0.31821

 Mulliken charges:
               1
     1  C   -0.297014
     2  C   -0.300559
     3  C   -0.477692
     4  H    0.141892
     5  H    0.153133
     6  H    0.151043
     7  H    0.155644
     8  H    0.159726
     9  H    0.145171
    10  H    0.161353
    11  C   -0.298942
    12  C   -0.300314
    13  C   -0.476126
    14  H    0.149054
    15  H    0.150931
    16  H    0.154032
    17  H    0.153692
    18  H    0.154739
    19  H    0.155035
    20  H    0.163546
    21  C   -0.171444
    22  C   -0.218621
    23  C   -0.170684
    24  C    0.158588
    25  C   -0.171863
    26  C   -0.219321
    27  H    0.226270
    28  H    0.223580
    29  H    0.275700
    30  H    0.275447
    31  H    0.226794
    32  N    0.488125
    33  O   -0.460518
    34  O   -0.460396
 Sum of Mulliken charges =  -0.00000

 Dipole moment (field-independent basis, Debye):
    X=             -0.9002    Y=              5.0812    Z=              0.3810  Tot=              5.1744
 Quadrupole moment (field-independent basis, Debye-Ang):
   XX=            -95.2289   YY=            -99.8184   ZZ=            -93.7550
   XY=             15.5243   XZ=             -0.1379   YZ=             -0.2473

 Normal termination of Gaussian 16 at Thu May  6 07:29:58 2021.
