 Gaussian 16, Revision A.03,
 Gaussian 16:  EM64L-G16RevA.03 25-Dec-2016

 -------------
 #p 6-31g* mp2
 -------------

 ------------------------------------------------------
 Input file generated by CHIRIPA (05-May-2021 14:51:13)
 ------------------------------------------------------
 Symbolic Z-matrix:
 Charge =  0 Multiplicity = 1

                         Standard orientation:
 ---------------------------------------------------------------------
 Center     Atomic      Atomic             Coordinates (Angstroms)
 Number     Number       Type             X           Y           Z
 ---------------------------------------------------------------------
      1          6           0       -3.615329   -0.319806   -0.285294
      2          6           0       -4.853634   -1.200329   -0.114223
      3          6           0       -5.361458   -1.770108   -1.439085
      4          1           0       -3.850778    0.503261   -0.973821
      5          1           0       -2.818832   -0.907874   -0.761911
      6          1           0       -5.647100   -0.611172    0.363189
      7          1           0       -4.615266   -2.021287    0.574126
      8          1           0       -4.588775   -2.380819   -1.917201
      9          1           0       -5.626472   -0.962692   -2.129337
     10          1           0       -6.247131   -2.396421   -1.293566
     11          6           0       -3.095790    0.257166    1.030346
     12          6           0       -1.857485    1.137689    0.859275
     13          6           0       -1.349661    1.707468    2.184137
     14          1           0       -3.892287    0.845234    1.506963
     15          1           0       -2.860341   -0.565902    1.718873
     16          1           0       -2.095853    1.958647    0.170926
     17          1           0       -1.064019    0.548532    0.381864
     18          1           0       -1.084647    0.900052    2.874389
     19          1           0       -2.122344    2.318179    2.662253
     20          1           0       -0.463987    2.333780    2.038619
     21          6           0        3.182463    0.517528   -0.935617
     22          6           0        2.076026    1.505614   -0.564848
     23          6           0        1.740948    2.471739   -1.701561
     24          1           0        4.083987    1.076627   -1.221287
     25          1           0        2.873566   -0.052022   -1.823080
     26          1           0        2.386334    2.072165    0.322477
     27          1           0        1.177091    0.944095   -0.279843
     28          1           0        1.406406    1.922747   -2.587728
     29          1           0        2.622520    3.057227   -1.981986
     30          1           0        0.947621    3.169135   -1.414977
     31          6           0        3.528656   -0.454888    0.190565
     32          6           0        4.635093   -1.442974   -0.180205
     33          6           0        4.970170   -2.409098    0.956510
     34          1           0        3.837552    0.114662    1.078028
     35          1           0        2.627131   -1.013987    0.476234
     36          1           0        5.534028   -0.881455   -0.465210
     37          1           0        4.324785   -2.009525   -1.067529
     38          1           0        4.088600   -2.994586    1.236933
     39          1           0        5.304713   -1.860107    1.842675
     40          1           0        5.763498   -3.106494    0.669925
 ---------------------------------------------------------------------

 SCF Done:  E(RHF) =  -470.733235538     A.U. after   11 cycles
 E2 =    -0.1582960462D+01 EUMP2 =    -0.47231619599984D+03

 The electronic state is 1-A.
 Alpha  occ. eigenvalues --  -11.21616 -11.21609 -11.21601 -11.21560 -11.21418
 Alpha  occ. eigenvalues --  -11.21406 -11.21358 -11.21345 -11.21085 -11.21080
 Alpha  occ. eigenvalues --  -11.21052 -11.21051  -1.08454  -1.08417  -1.03567
 Alpha  occ. eigenvalues --   -1.03495  -0.95996  -0.95960  -0.86999  -0.86989
 Alpha  occ. eigenvalues --   -0.79666  -0.79535  -0.78317  -0.78182  -0.65145
 Alpha  occ. eigenvalues --   -0.65001  -0.61057  -0.60822  -0.59474  -0.59230
 Alpha  occ. eigenvalues --   -0.57703  -0.57459  -0.55289  -0.55244  -0.52690
 Alpha  occ. eigenvalues --   -0.52649  -0.52408  -0.52396  -0.49972  -0.49883
 Alpha  occ. eigenvalues --   -0.48014  -0.47862  -0.46859  -0.46461  -0.45940
 Alpha  occ. eigenvalues --   -0.45771  -0.45739  -0.45408  -0.43787  -0.43776
 Alpha virt. eigenvalues --    0.21239   0.23156   0.23425   0.25027   0.25579
 Alpha virt. eigenvalues --    0.26720   0.26814   0.27713   0.28002   0.28926
 Alpha virt. eigenvalues --    0.30385   0.30907   0.31301   0.31932   0.32097

 Mulliken charges:
               1
     1  C   -0.298257
     2  C   -0.299645
     3  C   -0.475708
     4  H    0.149823
     5  H    0.149003
     6  H    0.152045
     7  H    0.151914
     8  H    0.155063
     9  H    0.155248
    10  H    0.160316
    11  C   -0.297665
    12  C   -0.304321
    13  C   -0.476825
    14  H    0.149615
    15  H    0.149515
    16  H    0.151974
    17  H    0.155684
    18  H    0.155031
    19  H    0.155030
    20  H    0.162233
    21  C   -0.297830
    22  C   -0.307778
    23  C   -0.475468
    24  H    0.149621
    25  H    0.149247
    26  H    0.151544
    27  H    0.160406
    28  H    0.155061
    29  H    0.154982
    30  H    0.160529
    31  C   -0.298102
    32  C   -0.299638
    33  C   -0.475686
    34  H    0.149733
    35  H    0.148842
    36  H    0.152060
    37  H    0.151850
    38  H    0.155008
    39  H    0.155263
    40  H    0.160280
 Sum of Mulliken charges =  -0.00000

 Dipole moment (field-independent basis, Debye):
    X=             -0.0077    Y=              0.0069    Z=              0.0041  Tot=              0.0111
 Quadrupole moment (field-independent basis, Debye-Ang):
   XX=            -84.3258   YY=            -84.5117   ZZ=            -85.9640
   XY=             -0.0102   XZ=             -0.3366   YZ=              0.2715

 Normal termination of Gaussian 16 at Wed May  5 21:35:51 2021.
