 Gaussian 16, Revision A.03,
 Gaussian 16:  EM64L-G16RevA.03 25-Dec-2016

 -------------
 #p 6-31g* mp2
 -------------

 ------------------------------------------------------
 Input file generated by CHIRIPA (05-May-2021 14:57:21)
 ------------------------------------------------------
 Symbolic Z-matrix:
 Charge =  0 Multiplicity = 1

                         Standard orientation:
 ---------------------------------------------------------------------
 Center     Atomic      Atomic             Coordinates (Angstroms)
 Number     Number       Type             X           Y           Z
 ---------------------------------------------------------------------
      1          6           0       -1.494878    1.663890   -0.251543
      2          6           0       -1.229228    0.301644   -0.425435
      3          6           0       -2.262565   -0.637581   -0.357478
      4          6           0       -3.555552   -0.177497   -0.112941
      5          6           0       -3.852087    1.173002    0.064574
      6          6           0       -2.803153    2.094462   -0.007524
      7          1           0       -0.686099    2.386602   -0.305942
      8          1           0       -0.214174   -0.035619   -0.615074
      9          1           0       -2.085021   -1.698134   -0.488338
     10          1           0       -4.874157    1.478898    0.252238
     11          1           0       -3.012407    3.151776    0.127917
     12          7           0       -4.657755   -1.162409   -0.038806
     13          8           0       -5.788254   -0.731489    0.177795
     14          8           0       -4.370292   -2.346653   -0.198704
     15          6           0        2.164505    2.215160    0.376848
     16          6           0        3.077067    2.033500   -0.667543
     17          6           0        3.752890    0.818767   -0.816658
     18          6           0        3.490815   -0.197516    0.100827
     19          6           0        2.587394   -0.047133    1.151783
     20          6           0        1.923007    1.176096    1.281582
     21          1           0        1.643951    3.162094    0.485181
     22          1           0        3.266602    2.838697   -1.371659
     23          1           0        4.464471    0.651121   -1.616011
     24          1           0        2.419375   -0.868275    1.838014
     25          1           0        1.214835    1.314345    2.093632
     26          7           0        4.200225   -1.487996   -0.046809
     27          8           0        3.951676   -2.367739    0.774721
     28          8           0        4.991377   -1.595297   -0.981262
 ---------------------------------------------------------------------

 SCF Done:  E(RHF) =  -868.336352648     A.U. after   16 cycles
 E2 =    -0.2602624060D+01 EUMP2 =    -0.87093897670820D+03

 The electronic state is 1-A.
 Alpha  occ. eigenvalues --  -20.61603 -20.61598 -20.61017 -20.61006 -15.86662
 Alpha  occ. eigenvalues --  -15.86068 -11.32303 -11.31535 -11.28816 -11.28812
 Alpha  occ. eigenvalues --  -11.28680 -11.28110 -11.28045 -11.27944 -11.27925
 Alpha  occ. eigenvalues --  -11.27889 -11.27201 -11.27046  -1.60675  -1.60088
 Alpha  occ. eigenvalues --   -1.40219  -1.39638  -1.20494  -1.19711  -1.09865
 Alpha  occ. eigenvalues --   -1.09100  -1.05891  -1.05110  -0.96647  -0.95918
 Alpha  occ. eigenvalues --   -0.87278  -0.86505  -0.83440  -0.82736  -0.78421
 Alpha  occ. eigenvalues --   -0.77757  -0.72869  -0.72283  -0.72008  -0.71723
 Alpha  occ. eigenvalues --   -0.71413  -0.70779  -0.66114  -0.65851  -0.65356
 Alpha  occ. eigenvalues --   -0.65122  -0.63184  -0.62454  -0.56545  -0.55592
 Alpha  occ. eigenvalues --   -0.54306  -0.53948  -0.53439  -0.53108  -0.49651
 Alpha  occ. eigenvalues --   -0.49611  -0.49050  -0.49034  -0.45562  -0.45020
 Alpha  occ. eigenvalues --   -0.38578  -0.37896  -0.37354  -0.36626
 Alpha virt. eigenvalues --    0.04002   0.04737   0.09957   0.11072   0.15308
 Alpha virt. eigenvalues --    0.16198   0.19499   0.21687   0.25628   0.26405
 Alpha virt. eigenvalues --    0.26951   0.28995   0.29916   0.31566   0.32112

 Mulliken charges:
               1
     1  C   -0.175496
     2  C   -0.222650
     3  C   -0.172516
     4  C    0.159218
     5  C   -0.171186
     6  C   -0.219059
     7  H    0.217794
     8  H    0.230967
     9  H    0.278484
    10  H    0.276268
    11  H    0.221801
    12  N    0.487825
    13  O   -0.460002
    14  O   -0.458233
    15  C   -0.182707
    16  C   -0.218132
    17  C   -0.171468
    18  C    0.159156
    19  C   -0.176806
    20  C   -0.218188
    21  H    0.223340
    22  H    0.227204
    23  H    0.279610
    24  H    0.280490
    25  H    0.230207
    26  N    0.487698
    27  O   -0.456764
    28  O   -0.456855
 Sum of Mulliken charges =  -0.00000

 Dipole moment (field-independent basis, Debye):
    X=              1.6424    Y=              7.8012    Z=              0.2747  Tot=              7.9770
 Quadrupole moment (field-independent basis, Debye-Ang):
   XX=           -146.4744   YY=           -105.5019   ZZ=           -102.1679
   XY=              1.6324   XZ=             -0.7935   YZ=             -0.9239

 Normal termination of Gaussian 16 at Wed May  5 17:46:17 2021.
