 Gaussian 16, Revision A.03,
 Gaussian 16:  EM64L-G16RevA.03 25-Dec-2016

 -------------
 #p 6-31g* mp2
 -------------

 ------------------------------------------------------
 Input file generated by CHIRIPA (05-May-2021 14:57:27)
 ------------------------------------------------------
 Symbolic Z-matrix:
 Charge =  0 Multiplicity = 1

                         Standard orientation:
 ---------------------------------------------------------------------
 Center     Atomic      Atomic             Coordinates (Angstroms)
 Number     Number       Type             X           Y           Z
 ---------------------------------------------------------------------
      1          6           0        5.333736    2.146853   -0.264471
      2          6           0        5.982516    0.956094    0.078601
      3          6           0        5.261340   -0.235164    0.202529
      4          6           0        3.886438   -0.199237   -0.024724
      5          6           0        3.211386    0.971155   -0.367909
      6          6           0        3.952677    2.150576   -0.486240
      7          1           0        5.901776    3.067653   -0.358567
      8          1           0        7.054965    0.950222    0.251412
      9          1           0        5.738319   -1.171119    0.466912
     10          1           0        2.141261    0.945612   -0.534037
     11          1           0        3.446175    3.073857   -0.752801
     12          7           0        3.112314   -1.454103    0.103510
     13          8           0        1.901914   -1.395945   -0.101884
     14          8           0        3.730614   -2.472064    0.406986
     15          6           0       -2.719202   -2.168589   -0.093416
     16          6           0       -2.126136   -1.032013    0.466039
     17          6           0       -2.834141    0.170691    0.548370
     18          6           0       -4.139202    0.201339    0.059324
     19          6           0       -4.757613   -0.914007   -0.503581
     20          6           0       -4.030735   -2.106068   -0.575590
     21          1           0       -2.161876   -3.098745   -0.153363
     22          1           0       -1.107734   -1.077641    0.841302
     23          1           0       -2.399297    1.065637    0.976622
     24          1           0       -5.774416   -0.837685   -0.869237
     25          1           0       -4.493863   -2.987171   -1.010579
     26          7           0       -4.898725    1.468955    0.141020
     27          8           0       -6.047126    1.469919   -0.296943
     28          8           0       -4.331257    2.437545    0.641469
 ---------------------------------------------------------------------

 SCF Done:  E(RHF) =  -868.340145278     A.U. after   16 cycles
 E2 =    -0.2598121804D+01 EUMP2 =    -0.87093826708170D+03

 The electronic state is 1-A.
 Alpha  occ. eigenvalues --  -20.61650 -20.61587 -20.60352 -20.60344 -15.86658
 Alpha  occ. eigenvalues --  -15.85395 -11.31758 -11.30567 -11.28303 -11.28281
 Alpha  occ. eigenvalues --  -11.27970 -11.27241 -11.27229 -11.27114 -11.27068
 Alpha  occ. eigenvalues --  -11.26680 -11.26081 -11.25879  -1.60684  -1.59430
 Alpha  occ. eigenvalues --   -1.40248  -1.38990  -1.19901  -1.18689  -1.09342
 Alpha  occ. eigenvalues --   -1.08096  -1.05264  -1.04055  -0.96224  -0.94978
 Alpha  occ. eigenvalues --   -0.86674  -0.85440  -0.83068  -0.81817  -0.78147
 Alpha  occ. eigenvalues --   -0.76909  -0.72896  -0.71986  -0.71617  -0.71003
 Alpha  occ. eigenvalues --   -0.70751  -0.69755  -0.65558  -0.65258  -0.64323
 Alpha  occ. eigenvalues --   -0.63999  -0.62616  -0.61397  -0.55765  -0.54489
 Alpha  occ. eigenvalues --   -0.53607  -0.53349  -0.52406  -0.52107  -0.49657
 Alpha  occ. eigenvalues --   -0.49611  -0.48386  -0.48350  -0.45708  -0.44439
 Alpha  occ. eigenvalues --   -0.37860  -0.36855  -0.36627  -0.35666
 Alpha virt. eigenvalues --    0.04354   0.05598   0.10803   0.11998   0.15892
 Alpha virt. eigenvalues --    0.17168   0.20902   0.22283   0.26801   0.27407
 Alpha virt. eigenvalues --    0.28501   0.29105   0.30552   0.31585   0.32494

 Mulliken charges:
               1
     1  C   -0.169881
     2  C   -0.218428
     3  C   -0.170585
     4  C    0.157834
     5  C   -0.170886
     6  C   -0.218341
     7  H    0.228190
     8  H    0.225340
     9  H    0.276183
    10  H    0.273433
    11  H    0.226662
    12  N    0.491606
    13  O   -0.472507
    14  O   -0.456789
    15  C   -0.171772
    16  C   -0.222882
    17  C   -0.174755
    18  C    0.158260
    19  C   -0.172855
    20  C   -0.218997
    21  H    0.231883
    22  H    0.241656
    23  H    0.270682
    24  H    0.272949
    25  H    0.221630
    26  N    0.488215
    27  O   -0.462069
    28  O   -0.463779
 Sum of Mulliken charges =  -0.00000

 Dipole moment (field-independent basis, Debye):
    X=              5.8842    Y=             -0.1222    Z=             -0.7368  Tot=              5.9314
 Quadrupole moment (field-independent basis, Debye-Ang):
   XX=            -99.6207   YY=           -106.7864   ZZ=           -105.2270
   XY=             36.2688   XZ=              2.5910   YZ=             -0.0507

 Normal termination of Gaussian 16 at Fri May  7 00:29:24 2021.
