 Gaussian 16, Revision A.03,
 Gaussian 16:  EM64L-G16RevA.03 25-Dec-2016

 -------------
 #p 6-31g* mp2
 -------------

 ------------------------------------------------------
 Input file generated by CHIRIPA (05-May-2021 14:53:14)
 ------------------------------------------------------
 Symbolic Z-matrix:
 Charge =  0 Multiplicity = 1

                         Standard orientation:
 ---------------------------------------------------------------------
 Center     Atomic      Atomic             Coordinates (Angstroms)
 Number     Number       Type             X           Y           Z
 ---------------------------------------------------------------------
      1          6           0        4.152446    0.089683   -0.182662
      2          6           0        5.622895   -0.277360    0.019930
      3          6           0        6.550375    0.936077   -0.051789
      4          1           0        4.035587    0.585275   -1.156150
      5          1           0        3.856681    0.823970    0.579402
      6          1           0        5.915419   -1.011776   -0.741436
      7          1           0        5.736235   -0.772308    0.992965
      8          1           0        6.286567    1.668621    0.717876
      9          1           0        6.466770    1.427792   -1.026379
     10          1           0        7.596698    0.650908    0.095682
     11          6           0        3.212823   -1.112848   -0.113703
     12          6           0        1.742374   -0.745804   -0.316296
     13          6           0        0.814893   -1.959241   -0.244577
     14          1           0        3.508587   -1.847134   -0.875768
     15          1           0        3.329681   -1.608440    0.859784
     16          1           0        1.629033   -0.250857   -1.289331
     17          1           0        1.449849   -0.011388    0.445070
     18          1           0        0.898499   -2.450957    0.730014
     19          1           0        1.078701   -2.691786   -1.014242
     20          1           0       -0.231430   -1.674073   -0.392048
     21          6           0       -4.429596   -1.575417   -0.117827
     22          6           0       -4.674143   -0.403428   -0.841126
     23          6           0       -3.820597    0.697123   -0.719504
     24          6           0       -2.726965    0.590618    0.138351
     25          6           0       -2.456650   -0.563287    0.872329
     26          6           0       -3.323580   -1.651471    0.735088
     27          1           0       -5.097849   -2.425549   -0.218374
     28          1           0       -5.532321   -0.341522   -1.504259
     29          1           0       -3.986388    1.616593   -1.267689
     30          1           0       -1.593069   -0.595051    1.525503
     31          1           0       -3.131195   -2.560379    1.298045
     32          7           0       -1.816268    1.749177    0.275375
     33          8           0       -0.859622    1.630061    1.037789
     34          8           0       -2.076356    2.754433   -0.382235
 ---------------------------------------------------------------------

 SCF Done:  E(RHF) =  -669.535168642     A.U. after   15 cycles
 E2 =    -0.2093100639D+01 EUMP2 =    -0.67162826928033D+03

 The electronic state is 1-A.
 Alpha  occ. eigenvalues --  -20.60903 -20.60897 -15.85933 -11.31254 -11.27830
 Alpha  occ. eigenvalues --  -11.27802 -11.27564 -11.26826 -11.26814 -11.21166
 Alpha  occ. eigenvalues --  -11.20964 -11.20903 -11.20863 -11.20810 -11.20647
 Alpha  occ. eigenvalues --   -1.59959  -1.39516  -1.19441  -1.08833  -1.07937
 Alpha  occ. eigenvalues --   -1.04840  -1.03101  -0.95714  -0.95567  -0.86636
 Alpha  occ. eigenvalues --   -0.86217  -0.82512  -0.79141  -0.77738  -0.77550
 Alpha  occ. eigenvalues --   -0.72162  -0.71275  -0.70547  -0.65089  -0.64839
 Alpha  occ. eigenvalues --   -0.64560  -0.62205  -0.60492  -0.58980  -0.57214
 Alpha  occ. eigenvalues --   -0.55336  -0.54897  -0.53312  -0.52921  -0.52188
 Alpha  occ. eigenvalues --   -0.51967  -0.49541  -0.48924  -0.48911  -0.47467
 Alpha  occ. eigenvalues --   -0.46173  -0.45350  -0.45243  -0.44718  -0.43361
 Alpha  occ. eigenvalues --   -0.37409  -0.36363
 Alpha virt. eigenvalues --    0.04924   0.11176   0.16390   0.21090   0.23307
 Alpha virt. eigenvalues --    0.24474   0.26881   0.27393   0.27846   0.28218
 Alpha virt. eigenvalues --    0.28998   0.30730   0.31687   0.31888   0.32297

 Mulliken charges:
               1
     1  C   -0.298793
     2  C   -0.299306
     3  C   -0.475545
     4  H    0.150282
     5  H    0.154934
     6  H    0.149941
     7  H    0.150515
     8  H    0.156568
     9  H    0.155272
    10  H    0.158360
    11  C   -0.297808
    12  C   -0.308441
    13  C   -0.483403
    14  H    0.146025
    15  H    0.146763
    16  H    0.151703
    17  H    0.174356
    18  H    0.147758
    19  H    0.153682
    20  H    0.160097
    21  C   -0.170359
    22  C   -0.218636
    23  C   -0.170823
    24  C    0.158940
    25  C   -0.173207
    26  C   -0.218456
    27  H    0.226092
    28  H    0.223722
    29  H    0.275770
    30  H    0.279703
    31  H    0.224805
    32  N    0.489519
    33  O   -0.460854
    34  O   -0.459177
 Sum of Mulliken charges =  -0.00000

 Dipole moment (field-independent basis, Debye):
    X=             -3.3540    Y=             -3.8973    Z=             -0.4362  Tot=              5.1603
 Quadrupole moment (field-independent basis, Debye-Ang):
   XX=            -77.0191   YY=            -99.6634   ZZ=            -92.2650
   XY=              7.5606   XZ=              3.0255   YZ=             -2.6879

 Normal termination of Gaussian 16 at Wed May  5 23:28:22 2021.
