 Gaussian 16, Revision A.03,
 Gaussian 16:  EM64L-G16RevA.03 25-Dec-2016

 -------------
 #p 6-31g* mp2
 -------------

 ------------------------------------------------------
 Input file generated by CHIRIPA (05-May-2021 14:57:21)
 ------------------------------------------------------
 Symbolic Z-matrix:
 Charge =  0 Multiplicity = 1

                         Standard orientation:
 ---------------------------------------------------------------------
 Center     Atomic      Atomic             Coordinates (Angstroms)
 Number     Number       Type             X           Y           Z
 ---------------------------------------------------------------------
      1          6           0        4.204976    1.442990    0.303573
      2          6           0        3.279716    1.271266    1.338429
      3          6           0        2.380766    0.200768    1.316726
      4          6           0        2.435089   -0.682980    0.240005
      5          6           0        3.345252   -0.538703   -0.805977
      6          6           0        4.234738    0.539051   -0.763446
      7          1           0        4.899626    2.277396    0.328522
      8          1           0        3.254321    1.971717    2.168350
      9          1           0        1.654141    0.044165    2.104703
     10          1           0        3.346524   -1.253386   -1.620007
     11          1           0        4.952225    0.669933   -1.568510
     12          7           0        1.488420   -1.820109    0.206004
     13          8           0        1.556577   -2.584814   -0.753798
     14          8           0        0.696190   -1.925155    1.139799
     15          6           0       -0.676087    1.976615   -0.956315
     16          6           0       -1.708921    2.497093   -0.169628
     17          6           0       -2.774978    1.685696    0.230006
     18          6           0       -2.776249    0.352385   -0.176900
     19          6           0       -1.761974   -0.195519   -0.960696
     20          6           0       -0.705857    0.634337   -1.348646
     21          1           0        0.148191    2.614097   -1.262221
     22          1           0       -1.688427    3.539151    0.136543
     23          1           0       -3.587591    2.062745    0.839031
     24          1           0       -1.810071   -1.238225   -1.250294
     25          1           0        0.094891    0.227413   -1.959597
     26          7           0       -3.899574   -0.516375    0.239989
     27          8           0       -3.877335   -1.687703   -0.131672
     28          8           0       -4.781005   -0.009530    0.930515
 ---------------------------------------------------------------------

 SCF Done:  E(RHF) =  -868.337742347     A.U. after   16 cycles
 E2 =    -0.2602523509D+01 EUMP2 =    -0.87094026585589D+03

 The electronic state is 1-A.
 Alpha  occ. eigenvalues --  -20.61471 -20.61412 -20.60168 -20.60122 -15.86463
 Alpha  occ. eigenvalues --  -15.85207 -11.31888 -11.30669 -11.28488 -11.28415
 Alpha  occ. eigenvalues --  -11.28209 -11.27503 -11.27461 -11.27373 -11.27213
 Alpha  occ. eigenvalues --  -11.27176 -11.26413 -11.26310  -1.60510  -1.59219
 Alpha  occ. eigenvalues --   -1.40058  -1.38769  -1.20078  -1.18906  -1.09459
 Alpha  occ. eigenvalues --   -1.08297  -1.05475  -1.04336  -0.96277  -0.95097
 Alpha  occ. eigenvalues --   -0.86864  -0.85732  -0.83100  -0.81937  -0.78144
 Alpha  occ. eigenvalues --   -0.76943  -0.72677  -0.71864  -0.71431  -0.71158
 Alpha  occ. eigenvalues --   -0.70535  -0.70030  -0.65715  -0.65459  -0.64568
 Alpha  occ. eigenvalues --   -0.64362  -0.62804  -0.61652  -0.55962  -0.54881
 Alpha  occ. eigenvalues --   -0.53865  -0.53548  -0.52636  -0.52419  -0.49459
 Alpha  occ. eigenvalues --   -0.49434  -0.48208  -0.48165  -0.45447  -0.44152
 Alpha  occ. eigenvalues --   -0.38147  -0.37208  -0.36744  -0.35899
 Alpha virt. eigenvalues --    0.04328   0.05612   0.10483   0.11723   0.15844
 Alpha virt. eigenvalues --    0.17014   0.20755   0.21744   0.26649   0.27333
 Alpha virt. eigenvalues --    0.27816   0.28687   0.30341   0.31111   0.32056

 Mulliken charges:
               1
     1  C   -0.172774
     2  C   -0.220820
     3  C   -0.167893
     4  C    0.157787
     5  C   -0.178311
     6  C   -0.219751
     7  H    0.227131
     8  H    0.225387
     9  H    0.279495
    10  H    0.275992
    11  H    0.225045
    12  N    0.487419
    13  O   -0.463848
    14  O   -0.452041
    15  C   -0.169976
    16  C   -0.221589
    17  C   -0.170824
    18  C    0.158478
    19  C   -0.161748
    20  C   -0.231307
    21  H    0.221366
    22  H    0.219099
    23  H    0.274111
    24  H    0.286880
    25  H    0.223443
    26  N    0.488357
    27  O   -0.454668
    28  O   -0.464442
 Sum of Mulliken charges =  -0.00000

 Dipole moment (field-independent basis, Debye):
    X=              7.3038    Y=              6.8119    Z=             -1.2039  Tot=             10.0596
 Quadrupole moment (field-independent basis, Debye-Ang):
   XX=           -110.0679   YY=           -105.8478   ZZ=           -100.0432
   XY=             -1.4445   XZ=              1.6815   YZ=              3.5555

 Normal termination of Gaussian 16 at Thu May  6 17:50:05 2021.
