 Gaussian 16, Revision A.03,
 Gaussian 16:  EM64L-G16RevA.03 25-Dec-2016

 -------------
 #p 6-31g* mp2
 -------------

 ------------------------------------------------------
 Input file generated by CHIRIPA (05-May-2021 14:55:23)
 ------------------------------------------------------
 Symbolic Z-matrix:
 Charge =  0 Multiplicity = 1

                         Standard orientation:
 ---------------------------------------------------------------------
 Center     Atomic      Atomic             Coordinates (Angstroms)
 Number     Number       Type             X           Y           Z
 ---------------------------------------------------------------------
      1          6           0        0.684305    0.095183    0.568263
      2          6           0        1.154215   -0.983220   -0.188540
      3          6           0        2.519301   -1.120803   -0.457163
      4          6           0        3.390371   -0.157230    0.048855
      5          6           0        2.952906    0.928399    0.806037
      6          6           0        1.583565    1.045875    1.062266
      7          1           0       -0.377779    0.194251    0.772122
      8          1           0        0.458139   -1.723054   -0.573469
      9          1           0        2.910194   -1.945794   -1.040268
     10          1           0        3.671040    1.649943    1.176272
     11          1           0        1.221468    1.884412    1.650302
     12          7           0        4.837778   -0.292240   -0.228963
     13          8           0        5.584717    0.570143    0.228221
     14          8           0        5.197912   -1.257886   -0.898641
     15          6           0       -4.590575   -0.334968    0.006227
     16          6           0       -4.087498   -1.776197    0.094323
     17          6           0       -5.212000   -2.780296    0.349423
     18          1           0       -5.109822   -0.076895    0.939353
     19          1           0       -5.336918   -0.262944   -0.797004
     20          1           0       -3.341311   -1.845182    0.896235
     21          1           0       -3.569221   -2.030807   -0.839047
     22          1           0       -5.953568   -2.740794   -0.455013
     23          1           0       -5.724364   -2.554115    1.290128
     24          1           0       -4.830087   -3.804247    0.408796
     25          6           0       -3.478085    0.680514   -0.248514
     26          6           0       -3.981162    2.121742   -0.336609
     27          6           0       -2.856661    3.125841   -0.591709
     28          1           0       -2.731742    0.608489    0.554717
     29          1           0       -2.958839    0.422440   -1.181639
     30          1           0       -4.499439    2.376353    0.596760
     31          1           0       -4.727348    2.190727   -1.138521
     32          1           0       -2.344296    2.899660   -1.532415
     33          1           0       -2.115092    3.086340    0.212726
     34          1           0       -3.238573    4.149793   -0.651083
 ---------------------------------------------------------------------

 SCF Done:  E(RHF) =  -669.535624047     A.U. after   15 cycles
 E2 =    -0.2091371185D+01 EUMP2 =    -0.67162699523174D+03

 The electronic state is 1-A.
 Alpha  occ. eigenvalues --  -20.60700 -20.60695 -15.85754 -11.31100 -11.27674
 Alpha  occ. eigenvalues --  -11.27670 -11.27359 -11.26676 -11.26660 -11.22625
 Alpha  occ. eigenvalues --  -11.22601 -11.22544 -11.22352 -11.21995 -11.21847
 Alpha  occ. eigenvalues --   -1.59776  -1.39330  -1.19270  -1.09467  -1.08662
 Alpha  occ. eigenvalues --   -1.04674  -1.04474  -0.96920  -0.95503  -0.87930
 Alpha  occ. eigenvalues --   -0.86068  -0.82343  -0.80546  -0.79325  -0.77392
 Alpha  occ. eigenvalues --   -0.71972  -0.71100  -0.70380  -0.66090  -0.64920
 Alpha  occ. eigenvalues --   -0.64677  -0.62026  -0.61862  -0.60289  -0.58545
 Alpha  occ. eigenvalues --   -0.56225  -0.55181  -0.53572  -0.53328  -0.53002
 Alpha  occ. eigenvalues --   -0.52764  -0.50855  -0.48857  -0.48728  -0.48726
 Alpha  occ. eigenvalues --   -0.47582  -0.46817  -0.46759  -0.44757  -0.44740
 Alpha  occ. eigenvalues --   -0.37237  -0.36284
 Alpha virt. eigenvalues --    0.05143   0.11363   0.16626   0.19257   0.22569
 Alpha virt. eigenvalues --    0.23313   0.24727   0.25646   0.26733   0.27836
 Alpha virt. eigenvalues --    0.29833   0.30454   0.30871   0.31026   0.31469

 Mulliken charges:
               1
     1  C   -0.175796
     2  C   -0.222442
     3  C   -0.170803
     4  C    0.158108
     5  C   -0.170711
     6  C   -0.221486
     7  H    0.236647
     8  H    0.224113
     9  H    0.275209
    10  H    0.275265
    11  H    0.223079
    12  N    0.488015
    13  O   -0.460699
    14  O   -0.460735
    15  C   -0.297737
    16  C   -0.300906
    17  C   -0.476015
    18  H    0.152387
    19  H    0.153860
    20  H    0.147575
    21  H    0.150590
    22  H    0.157794
    23  H    0.157300
    24  H    0.162169
    25  C   -0.304308
    26  C   -0.299884
    27  C   -0.475710
    28  H    0.141843
    29  H    0.151188
    30  H    0.154150
    31  H    0.156369
    32  H    0.158363
    33  H    0.148340
    34  H    0.164870
 Sum of Mulliken charges =  -0.00000

 Dipole moment (field-independent basis, Debye):
    X=             -5.4064    Y=              0.5074    Z=              0.9068  Tot=              5.5054
 Quadrupole moment (field-independent basis, Debye-Ang):
   XX=           -129.1477   YY=            -91.9645   ZZ=            -92.9488
   XY=              2.6559   XZ=              4.0694   YZ=              2.5459

 Normal termination of Gaussian 16 at Thu May  6 06:15:55 2021.
