 Gaussian 16, Revision A.03,
 Gaussian 16:  EM64L-G16RevA.03 25-Dec-2016

 -------------
 #p 6-31g* mp2
 -------------

 ------------------------------------------------------
 Input file generated by CHIRIPA (05-May-2021 14:57:26)
 ------------------------------------------------------
 Symbolic Z-matrix:
 Charge =  0 Multiplicity = 1

                         Standard orientation:
 ---------------------------------------------------------------------
 Center     Atomic      Atomic             Coordinates (Angstroms)
 Number     Number       Type             X           Y           Z
 ---------------------------------------------------------------------
      1          6           0        5.227546    0.764316    0.689970
      2          6           0        4.392965    1.446716   -0.201279
      3          6           0        3.196847    0.869282   -0.637651
      4          6           0        2.864768   -0.397724   -0.160462
      5          6           0        3.675225   -1.102818    0.727959
      6          6           0        4.866649   -0.506034    1.150932
      7          1           0        6.154895    1.220397    1.023751
      8          1           0        4.670700    2.433409   -0.560925
      9          1           0        2.532163    1.375336   -1.327232
     10          1           0        3.371573   -2.085111    1.069006
     11          1           0        5.512848   -1.038326    1.843129
     12          7           0        1.600977   -1.019270   -0.615338
     13          8           0        1.331035   -2.136594   -0.180188
     14          8           0        0.904290   -0.377345   -1.398406
     15          6           0       -2.352169    2.711173   -0.013174
     16          6           0       -3.051025    2.234138    1.100629
     17          6           0       -3.455402    0.897446    1.166065
     18          6           0       -3.142749    0.061727    0.095033
     19          6           0       -2.447807    0.507163   -1.028325
     20          6           0       -2.053317    1.847685   -1.072230
     21          1           0       -2.041879    3.751034   -0.055644
     22          1           0       -3.284495    2.902459    1.924574
     23          1           0       -3.997619    0.501808    2.016293
     24          1           0       -2.229592   -0.183022   -1.834206
     25          1           0       -1.510700    2.215396   -1.938487
     26          7           0       -3.565611   -1.355396    0.152909
     27          8           0       -3.277906   -2.071430   -0.803730
     28          8           0       -4.176749   -1.723271    1.153817
 ---------------------------------------------------------------------

 SCF Done:  E(RHF) =  -868.337927835     A.U. after   16 cycles
 E2 =    -0.2600103252D+01 EUMP2 =    -0.87093803108672D+03

 The electronic state is 1-A.
 Alpha  occ. eigenvalues --  -20.61091 -20.61051 -20.59644 -20.59583 -15.86110
 Alpha  occ. eigenvalues --  -15.84672 -11.31467 -11.30049 -11.28075 -11.27995
 Alpha  occ. eigenvalues --  -11.27766 -11.27068 -11.27014 -11.26757 -11.26550
 Alpha  occ. eigenvalues --  -11.26535 -11.25806 -11.25656  -1.60126  -1.58688
 Alpha  occ. eigenvalues --   -1.39686  -1.38239  -1.19634  -1.18276  -1.09029
 Alpha  occ. eigenvalues --   -1.07696  -1.05039  -1.03672  -0.95870  -0.94508
 Alpha  occ. eigenvalues --   -0.86437  -0.85092  -0.82712  -0.81331  -0.77758
 Alpha  occ. eigenvalues --   -0.76344  -0.72348  -0.71442  -0.70900  -0.70744
 Alpha  occ. eigenvalues --   -0.70002  -0.69430  -0.65293  -0.65043  -0.63940
 Alpha  occ. eigenvalues --   -0.63713  -0.62391  -0.61006  -0.55536  -0.54274
 Alpha  occ. eigenvalues --   -0.53366  -0.53134  -0.52030  -0.51789  -0.49104
 Alpha  occ. eigenvalues --   -0.49051  -0.47673  -0.47633  -0.45093  -0.43637
 Alpha  occ. eigenvalues --   -0.37612  -0.36642  -0.36332  -0.35215
 Alpha virt. eigenvalues --    0.04755   0.06222   0.11013   0.12387   0.16259
 Alpha virt. eigenvalues --    0.17645   0.21102   0.22337   0.26977   0.27724
 Alpha virt. eigenvalues --    0.28517   0.29273   0.30698   0.31744   0.32423

 Mulliken charges:
               1
     1  C   -0.170712
     2  C   -0.218485
     3  C   -0.170513
     4  C    0.159156
     5  C   -0.170389
     6  C   -0.218445
     7  H    0.226225
     8  H    0.222464
     9  H    0.270758
    10  H    0.278122
    11  H    0.224938
    12  N    0.489619
    13  O   -0.451677
    14  O   -0.469225
    15  C   -0.173518
    16  C   -0.220538
    17  C   -0.172348
    18  C    0.153980
    19  C   -0.153629
    20  C   -0.217975
    21  H    0.218678
    22  H    0.217788
    23  H    0.272075
    24  H    0.285059
    25  H    0.220808
    26  N    0.488884
    27  O   -0.454259
    28  O   -0.466839
 Sum of Mulliken charges =  -0.00000

 Dipole moment (field-independent basis, Debye):
    X=              6.2292    Y=              6.8372    Z=              1.2517  Tot=              9.3336
 Quadrupole moment (field-independent basis, Debye-Ang):
   XX=            -89.5067   YY=           -103.8936   ZZ=           -100.6210
   XY=            -12.0131   XZ=              4.1422   YZ=             -2.3721

 Normal termination of Gaussian 16 at Thu May  6 09:54:27 2021.
