 Gaussian 16, Revision A.03,
 Gaussian 16:  EM64L-G16RevA.03 25-Dec-2016

 -------------
 #p 6-31g* mp2
 -------------

 ------------------------------------------------------
 Input file generated by CHIRIPA (05-May-2021 14:55:24)
 ------------------------------------------------------
 Symbolic Z-matrix:
 Charge =  0 Multiplicity = 1

                         Standard orientation:
 ---------------------------------------------------------------------
 Center     Atomic      Atomic             Coordinates (Angstroms)
 Number     Number       Type             X           Y           Z
 ---------------------------------------------------------------------
      1          6           0       -0.371135   -0.961028    1.074323
      2          6           0       -1.125602    0.071173    1.641653
      3          6           0       -2.397751    0.374924    1.147770
      4          6           0       -2.886728   -0.377174    0.080746
      5          6           0       -2.159275   -1.411598   -0.505827
      6          6           0       -0.889466   -1.697820    0.004280
      7          1           0        0.616192   -1.190181    1.464285
      8          1           0       -0.725598    0.645041    2.472747
      9          1           0       -3.003223    1.168710    1.568157
     10          1           0       -2.584769   -1.966103   -1.333413
     11          1           0       -0.305779   -2.499997   -0.438288
     12          7           0       -4.232257   -0.064885   -0.450694
     13          8           0       -4.640462   -0.742306   -1.391495
     14          8           0       -4.853199    0.851395    0.083628
     15          6           0        2.840959    0.963222    0.078547
     16          6           0        2.499613    2.200421   -0.752601
     17          6           0        1.356977    3.019533   -0.151577
     18          1           0        1.945694    0.333288    0.171432
     19          1           0        3.109511    1.276825    1.096843
     20          1           0        2.233124    1.884685   -1.769414
     21          1           0        3.395847    2.827388   -0.843679
     22          1           0        1.616941    3.362664    0.855042
     23          1           0        0.447612    2.414604   -0.075953
     24          1           0        1.129484    3.899240   -0.761678
     25          6           0        3.981360    0.134105   -0.509481
     26          6           0        4.322706   -1.103095    0.321666
     27          6           0        5.465343   -1.922207   -0.279358
     28          1           0        3.712808   -0.179499   -1.527777
     29          1           0        4.876626    0.764038   -0.602366
     30          1           0        3.426473   -1.730062    0.412745
     31          1           0        4.589196   -0.787359    1.338480
     32          1           0        6.374707   -1.317278   -0.354981
     33          1           0        5.205379   -2.265338   -1.285976
     34          1           0        5.692836   -2.801914    0.330743
 ---------------------------------------------------------------------

 SCF Done:  E(RHF) =  -669.534987536     A.U. after   15 cycles
 E2 =    -0.2093347913D+01 EUMP2 =    -0.67162833544817D+03

 The electronic state is 1-A.
 Alpha  occ. eigenvalues --  -20.60809 -20.60804 -15.85865 -11.31258 -11.27839
 Alpha  occ. eigenvalues --  -11.27835 -11.27548 -11.26852 -11.26840 -11.22528
 Alpha  occ. eigenvalues --  -11.22139 -11.22112 -11.22046 -11.21802 -11.21474
 Alpha  occ. eigenvalues --   -1.59884  -1.39437  -1.19446  -1.09163  -1.08825
 Alpha  occ. eigenvalues --   -1.04846  -1.04190  -0.96625  -0.95662  -0.87642
 Alpha  occ. eigenvalues --   -0.86237  -0.82492  -0.80278  -0.79005  -0.77525
 Alpha  occ. eigenvalues --   -0.72081  -0.71209  -0.70566  -0.65790  -0.65090
 Alpha  occ. eigenvalues --   -0.64829  -0.62185  -0.61591  -0.60001  -0.58254
 Alpha  occ. eigenvalues --   -0.55952  -0.55319  -0.53313  -0.53200  -0.53051
 Alpha  occ. eigenvalues --   -0.52919  -0.50570  -0.48843  -0.48835  -0.48583
 Alpha  occ. eigenvalues --   -0.47321  -0.46501  -0.46426  -0.44837  -0.44451
 Alpha  occ. eigenvalues --   -0.37331  -0.36439
 Alpha virt. eigenvalues --    0.04959   0.11165   0.16327   0.19870   0.22720
 Alpha virt. eigenvalues --    0.23398   0.25354   0.26161   0.26967   0.27671
 Alpha virt. eigenvalues --    0.29610   0.30577   0.30995   0.31371   0.32149

 Mulliken charges:
               1
     1  C   -0.172145
     2  C   -0.218183
     3  C   -0.171762
     4  C    0.158710
     5  C   -0.170418
     6  C   -0.220714
     7  H    0.230960
     8  H    0.225676
     9  H    0.276393
    10  H    0.275946
    11  H    0.223667
    12  N    0.488092
    13  O   -0.460293
    14  O   -0.460042
    15  C   -0.306546
    16  C   -0.298330
    17  C   -0.481000
    18  H    0.150513
    19  H    0.146483
    20  H    0.154214
    21  H    0.153297
    22  H    0.151541
    23  H    0.159590
    24  H    0.163601
    25  C   -0.297939
    26  C   -0.299759
    27  C   -0.475886
    28  H    0.151044
    29  H    0.152948
    30  H    0.141601
    31  H    0.152693
    32  H    0.158456
    33  H    0.156410
    34  H    0.161181
 Sum of Mulliken charges =  -0.00000

 Dipole moment (field-independent basis, Debye):
    X=              4.7645    Y=             -1.0810    Z=              1.8276  Tot=              5.2162
 Quadrupole moment (field-independent basis, Debye-Ang):
   XX=           -122.5295   YY=            -91.8002   ZZ=            -92.3097
   XY=              1.8868   XZ=             -5.0786   YZ=              2.0763

 Normal termination of Gaussian 16 at Thu May  6 01:33:56 2021.
