 Gaussian 16, Revision A.03,
 Gaussian 16:  EM64L-G16RevA.03 25-Dec-2016

 -------------
 #p 6-31g* mp2
 -------------

 ------------------------------------------------------
 Input file generated by CHIRIPA (05-May-2021 14:53:14)
 ------------------------------------------------------
 Symbolic Z-matrix:
 Charge =  0 Multiplicity = 1

                         Standard orientation:
 ---------------------------------------------------------------------
 Center     Atomic      Atomic             Coordinates (Angstroms)
 Number     Number       Type             X           Y           Z
 ---------------------------------------------------------------------
      1          6           0        2.919818    1.138719   -0.551693
      2          6           0        1.577084    1.870045   -0.566339
      3          6           0        1.643553    3.213497   -1.293328
      4          1           0        3.673694    1.779060   -0.073593
      5          1           0        3.254660    0.980675   -1.586245
      6          1           0        1.244207    2.025435    0.467906
      7          1           0        0.826273    1.227812   -1.044287
      8          1           0        1.951555    3.073272   -2.334517
      9          1           0        2.371864    3.875427   -0.813731
     10          1           0        0.672943    3.719237   -1.291832
     11          6           0        2.869415   -0.205964    0.171505
     12          6           0        4.212148   -0.937290    0.186152
     13          6           0        4.145679   -2.280742    0.913141
     14          1           0        2.534573   -0.047920    1.206057
     15          1           0        2.115538   -0.846304   -0.306594
     16          1           0        4.962960   -0.295057    0.664100
     17          1           0        4.545025   -1.092680   -0.848093
     18          1           0        3.417369   -2.942672    0.433544
     19          1           0        3.837678   -2.140517    1.954329
     20          1           0        5.116290   -2.786481    0.911645
     21          6           0       -2.581847    1.908078    1.196980
     22          6           0       -1.393964    1.200589    1.408908
     23          6           0       -1.205530   -0.059297    0.832949
     24          6           0       -2.230442   -0.584048    0.047148
     25          6           0       -3.425278    0.096283   -0.182644
     26          6           0       -3.591932    1.354642    0.403280
     27          1           0       -2.719769    2.886195    1.648269
     28          1           0       -0.607804    1.627928    2.024844
     29          1           0       -0.295897   -0.628680    0.980566
     30          1           0       -4.190893   -0.355682   -0.801496
     31          1           0       -4.515505    1.901816    0.236969
     32          7           0       -2.042483   -1.917024   -0.567868
     33          8           0       -2.960685   -2.357404   -1.256059
     34          8           0       -0.980517   -2.496192   -0.350081
 ---------------------------------------------------------------------

 SCF Done:  E(RHF) =  -669.534221656     A.U. after   15 cycles
 E2 =    -0.2094186368D+01 EUMP2 =    -0.67162840802336D+03

 The electronic state is 1-A.
 Alpha  occ. eigenvalues --  -20.60799 -20.60792 -15.85842 -11.31150 -11.27712
 Alpha  occ. eigenvalues --  -11.27662 -11.27452 -11.26727 -11.26689 -11.21940
 Alpha  occ. eigenvalues --  -11.21645 -11.21612 -11.21556 -11.21421 -11.20908
 Alpha  occ. eigenvalues --   -1.59868  -1.39423  -1.19326  -1.08738  -1.08644
 Alpha  occ. eigenvalues --   -1.04727  -1.03685  -0.96132  -0.95574  -0.87150
 Alpha  occ. eigenvalues --   -0.86124  -0.82424  -0.79792  -0.78542  -0.77402
 Alpha  occ. eigenvalues --   -0.72061  -0.71189  -0.70430  -0.65329  -0.64970
 Alpha  occ. eigenvalues --   -0.64699  -0.62093  -0.61066  -0.59531  -0.57759
 Alpha  occ. eigenvalues --   -0.55406  -0.55227  -0.53146  -0.52881  -0.52766
 Alpha  occ. eigenvalues --   -0.52493  -0.50064  -0.48820  -0.48815  -0.48069
 Alpha  occ. eigenvalues --   -0.46805  -0.46008  -0.45893  -0.44823  -0.43961
 Alpha  occ. eigenvalues --   -0.37312  -0.36200
 Alpha virt. eigenvalues --    0.05059   0.11206   0.16509   0.20222   0.23023
 Alpha virt. eigenvalues --    0.24053   0.25055   0.26072   0.27662   0.28236
 Alpha virt. eigenvalues --    0.29886   0.30387   0.31487   0.31629   0.32169

 Mulliken charges:
               1
     1  C   -0.297249
     2  C   -0.300439
     3  C   -0.475839
     4  H    0.148630
     5  H    0.153077
     6  H    0.140145
     7  H    0.158237
     8  H    0.158468
     9  H    0.154331
    10  H    0.158246
    11  C   -0.307593
    12  C   -0.298716
    13  C   -0.477905
    14  H    0.139269
    15  H    0.163365
    16  H    0.150379
    17  H    0.154554
    18  H    0.164397
    19  H    0.152367
    20  H    0.160417
    21  C   -0.172565
    22  C   -0.215500
    23  C   -0.171961
    24  C    0.155920
    25  C   -0.171071
    26  C   -0.218835
    27  H    0.225276
    28  H    0.223183
    29  H    0.282932
    30  H    0.275173
    31  H    0.223133
    32  N    0.488336
    33  O   -0.460020
    34  O   -0.462142
 Sum of Mulliken charges =  -0.00000

 Dipole moment (field-independent basis, Debye):
    X=             -0.6115    Y=              4.5920    Z=              2.0459  Tot=              5.0642
 Quadrupole moment (field-independent basis, Debye-Ang):
   XX=            -87.7528   YY=           -101.6854   ZZ=            -93.8394
   XY=            -10.6664   XZ=             -2.9244   YZ=             -0.2898

 Normal termination of Gaussian 16 at Wed May  5 20:12:49 2021.
