 Gaussian 16, Revision A.03,
 Gaussian 16:  EM64L-G16RevA.03 25-Dec-2016

 -------------
 #p 6-31g* mp2
 -------------

 ------------------------------------------------------
 Input file generated by CHIRIPA (05-May-2021 14:53:12)
 ------------------------------------------------------
 Symbolic Z-matrix:
 Charge =  0 Multiplicity = 1

                         Standard orientation:
 ---------------------------------------------------------------------
 Center     Atomic      Atomic             Coordinates (Angstroms)
 Number     Number       Type             X           Y           Z
 ---------------------------------------------------------------------
      1          6           0        3.265451    0.337169   -0.368805
      2          6           0        4.248067   -0.330698    0.593694
      3          6           0        5.216149   -1.279412   -0.113805
      4          1           0        2.697842   -0.438915   -0.900274
      5          1           0        3.829643    0.890058   -1.132608
      6          1           0        3.682168   -0.881025    1.356266
      7          1           0        4.813269    0.447069    1.123073
      8          1           0        5.805934   -0.740317   -0.862224
      9          1           0        4.668407   -2.075957   -0.627707
     10          1           0        5.909562   -1.745886    0.592906
     11          6           0        2.291154    1.288522    0.323582
     12          6           0        1.308538    1.956389   -0.638918
     13          6           0        0.340457    2.905103    0.068582
     14          1           0        1.726962    0.735633    1.087385
     15          1           0        2.858763    2.064606    0.855051
     16          1           0        0.743337    1.178622   -1.168296
     17          1           0        1.874437    2.506716   -1.401489
     18          1           0        0.888199    3.701648    0.582484
     19          1           0       -0.249328    2.366008    0.817001
     20          1           0       -0.352957    3.371577   -0.638129
     21          6           0        0.141359   -1.642217   -0.063507
     22          6           0       -0.568999   -1.423728   -1.248487
     23          6           0       -1.850676   -0.866267   -1.215475
     24          6           0       -2.394056   -0.537665    0.025514
     25          6           0       -1.711420   -0.743176    1.223454
     26          6           0       -0.431108   -1.301844    1.166511
     27          1           0        1.136466   -2.075734   -0.098446
     28          1           0       -0.126909   -1.687092   -2.205168
     29          1           0       -2.422770   -0.686376   -2.117564
     30          1           0       -2.178415   -0.470388    2.162027
     31          1           0        0.118243   -1.470400    2.088383
     32          7           0       -3.750187    0.053133    0.073128
     33          8           0       -4.206702    0.333976    1.179183
     34          8           0       -4.330929    0.224170   -0.996509
 ---------------------------------------------------------------------

 SCF Done:  E(RHF) =  -669.533393764     A.U. after   15 cycles
 E2 =    -0.2096925852D+01 EUMP2 =    -0.67163031961589D+03

 The electronic state is 1-A.
 Alpha  occ. eigenvalues --  -20.60859 -20.60854 -15.85917 -11.31345 -11.27931
 Alpha  occ. eigenvalues --  -11.27919 -11.27634 -11.26936 -11.26918 -11.22470
 Alpha  occ. eigenvalues --  -11.22136 -11.21913 -11.21798 -11.21709 -11.21126
 Alpha  occ. eigenvalues --   -1.59934  -1.39486  -1.19540  -1.09120  -1.08821
 Alpha  occ. eigenvalues --   -1.04950  -1.04030  -0.96501  -0.95728  -0.87502
 Alpha  occ. eigenvalues --   -0.86341  -0.82570  -0.80143  -0.78800  -0.77601
 Alpha  occ. eigenvalues --   -0.72134  -0.71258  -0.70687  -0.65765  -0.65182
 Alpha  occ. eigenvalues --   -0.64889  -0.62283  -0.61497  -0.59881  -0.58090
 Alpha  occ. eigenvalues --   -0.55926  -0.55317  -0.53267  -0.53108  -0.53029
 Alpha  occ. eigenvalues --   -0.52890  -0.50442  -0.48899  -0.48885  -0.48424
 Alpha  occ. eigenvalues --   -0.47227  -0.46311  -0.46294  -0.44877  -0.44289
 Alpha  occ. eigenvalues --   -0.37397  -0.36457
 Alpha virt. eigenvalues --    0.04903   0.10922   0.16279   0.19094   0.23337
 Alpha virt. eigenvalues --    0.23544   0.25220   0.26038   0.27393   0.28310
 Alpha virt. eigenvalues --    0.29584   0.30390   0.31026   0.31329   0.31879

 Mulliken charges:
               1
     1  C   -0.299744
     2  C   -0.300217
     3  C   -0.474943
     4  H    0.138283
     5  H    0.153678
     6  H    0.143620
     7  H    0.157217
     8  H    0.158989
     9  H    0.149155
    10  H    0.162900
    11  C   -0.299341
    12  C   -0.304593
    13  C   -0.477103
    14  H    0.148028
    15  H    0.151111
    16  H    0.157517
    17  H    0.150295
    18  H    0.154449
    19  H    0.155758
    20  H    0.163028
    21  C   -0.165613
    22  C   -0.221787
    23  C   -0.169749
    24  C    0.160349
    25  C   -0.172272
    26  C   -0.219720
    27  H    0.229556
    28  H    0.224962
    29  H    0.276602
    30  H    0.276646
    31  H    0.224682
    32  N    0.488121
    33  O   -0.459919
    34  O   -0.459945
 Sum of Mulliken charges =  -0.00000

 Dipole moment (field-independent basis, Debye):
    X=              4.6940    Y=             -2.0795    Z=             -0.1758  Tot=              5.1370
 Quadrupole moment (field-independent basis, Debye-Ang):
   XX=           -118.2287   YY=            -93.2382   ZZ=            -89.9108
   XY=              3.6423   XZ=              1.0801   YZ=             -0.0251

 Normal termination of Gaussian 16 at Thu May  6 07:18:30 2021.
