 Gaussian 16, Revision A.03,
 Gaussian 16:  EM64L-G16RevA.03 25-Dec-2016

 -------------
 #p 6-31g* mp2
 -------------

 ------------------------------------------------------
 Input file generated by CHIRIPA (05-May-2021 14:51:08)
 ------------------------------------------------------
 Symbolic Z-matrix:
 Charge =  0 Multiplicity = 1

                         Standard orientation:
 ---------------------------------------------------------------------
 Center     Atomic      Atomic             Coordinates (Angstroms)
 Number     Number       Type             X           Y           Z
 ---------------------------------------------------------------------
      1          6           0        2.429182   -0.832168   -0.211816
      2          6           0        1.583119   -1.632148    0.779241
      3          6           0        0.172269   -1.912262    0.260750
      4          1           0        1.923104    0.117463   -0.433244
      5          1           0        2.488897   -1.383182   -1.160611
      6          1           0        1.526167   -1.080442    1.726338
      7          1           0        2.091363   -2.579902    0.998483
      8          1           0        0.211131   -2.483391   -0.672472
      9          1           0       -0.357276   -0.975411    0.059519
     10          1           0       -0.415196   -2.485228    0.984942
     11          6           0        3.842237   -0.544225    0.292259
     12          6           0        4.688301    0.255755   -0.698798
     13          6           0        6.099150    0.535869   -0.180306
     14          1           0        3.782522    0.006789    1.241055
     15          1           0        4.348315   -1.493856    0.513687
     16          1           0        4.180057    1.203509   -0.918039
     17          1           0        4.745253   -0.295951   -1.645895
     18          1           0        6.628695   -0.400982    0.020925
     19          1           0        6.060288    1.106998    0.752916
     20          1           0        6.686616    1.108835   -0.904498
     21          6           0       -3.631675    0.192908    0.263324
     22          6           0       -4.258942   -0.745977   -0.767702
     23          6           0       -5.248933   -1.730942   -0.145159
     24          1           0       -3.122464   -0.404503    1.031926
     25          1           0       -4.429122    0.748091    0.776398
     26          1           0       -3.460467   -1.298217   -1.279645
     27          1           0       -4.766555   -0.146256   -1.534044
     28          1           0       -6.065536   -1.195379    0.349746
     29          1           0       -4.752026   -2.353885    0.605592
     30          1           0       -5.685406   -2.392500   -0.899938
     31          6           0       -2.639745    1.183484   -0.343768
     32          6           0       -2.012478    2.122370    0.687258
     33          6           0       -1.022487    3.107334    0.064716
     34          1           0       -1.842297    0.628302   -0.856841
     35          1           0       -3.148955    1.780896   -1.112371
     36          1           0       -1.504864    1.522649    1.453600
     37          1           0       -2.810952    2.674609    1.199200
     38          1           0       -1.519392    3.730277   -0.686036
     39          1           0       -0.205883    2.571772   -0.430191
     40          1           0       -0.586013    3.768892    0.819494
 ---------------------------------------------------------------------

 SCF Done:  E(RHF) =  -470.733283656     A.U. after   11 cycles
 E2 =    -0.1583470077D+01 EUMP2 =    -0.47231675373260D+03

 The electronic state is 1-A.
 Alpha  occ. eigenvalues --  -11.21669 -11.21632 -11.21623 -11.21549 -11.21459
 Alpha  occ. eigenvalues --  -11.21392 -11.21384 -11.21317 -11.21141 -11.21126
 Alpha  occ. eigenvalues --  -11.21085 -11.21029  -1.08485  -1.08416  -1.03580
 Alpha  occ. eigenvalues --   -1.03523  -0.96048  -0.95960  -0.87054  -0.86987
 Alpha  occ. eigenvalues --   -0.79653  -0.79577  -0.78303  -0.78219  -0.65259
 Alpha  occ. eigenvalues --   -0.64950  -0.61049  -0.60841  -0.59396  -0.59342
 Alpha  occ. eigenvalues --   -0.57664  -0.57565  -0.55506  -0.55092  -0.52721
 Alpha  occ. eigenvalues --   -0.52672  -0.52487  -0.52365  -0.50069  -0.49810
 Alpha  occ. eigenvalues --   -0.48002  -0.47883  -0.46771  -0.46558  -0.45942
 Alpha  occ. eigenvalues --   -0.45774  -0.45732  -0.45503  -0.43831  -0.43775
 Alpha virt. eigenvalues --    0.19581   0.22733   0.23816   0.24847   0.25804
 Alpha virt. eigenvalues --    0.26331   0.26860   0.27618   0.28530   0.29513
 Alpha virt. eigenvalues --    0.30556   0.31105   0.31670   0.31820   0.32394

 Mulliken charges:
               1
     1  C   -0.299577
     2  C   -0.299298
     3  C   -0.484331
     4  H    0.149921
     5  H    0.149780
     6  H    0.151983
     7  H    0.152345
     8  H    0.155406
     9  H    0.163521
    10  H    0.160262
    11  C   -0.298314
    12  C   -0.299784
    13  C   -0.475749
    14  H    0.149789
    15  H    0.149832
    16  H    0.152209
    17  H    0.151954
    18  H    0.155169
    19  H    0.155299
    20  H    0.160405
    21  C   -0.299222
    22  C   -0.300171
    23  C   -0.475671
    24  H    0.151375
    25  H    0.149317
    26  H    0.153433
    27  H    0.151547
    28  H    0.154869
    29  H    0.155297
    30  H    0.160114
    31  C   -0.302658
    32  C   -0.300839
    33  C   -0.476716
    34  H    0.152282
    35  H    0.150489
    36  H    0.152185
    37  H    0.152484
    38  H    0.155758
    39  H    0.154967
    40  H    0.160338
 Sum of Mulliken charges =  -0.00000

 Dipole moment (field-independent basis, Debye):
    X=              0.0118    Y=             -0.0069    Z=             -0.0016  Tot=              0.0138
 Quadrupole moment (field-independent basis, Debye-Ang):
   XX=            -85.7287   YY=            -84.2371   ZZ=            -84.7384
   XY=             -1.6911   XZ=             -0.0486   YZ=              0.4496

 Normal termination of Gaussian 16 at Wed May  5 22:54:46 2021.
