 Gaussian 16, Revision A.03,
 Gaussian 16:  EM64L-G16RevA.03 25-Dec-2016

 -------------
 #p 6-31g* mp2
 -------------

 ------------------------------------------------------
 Input file generated by CHIRIPA (05-May-2021 14:55:20)
 ------------------------------------------------------
 Symbolic Z-matrix:
 Charge =  0 Multiplicity = 1

                         Standard orientation:
 ---------------------------------------------------------------------
 Center     Atomic      Atomic             Coordinates (Angstroms)
 Number     Number       Type             X           Y           Z
 ---------------------------------------------------------------------
      1          6           0       -4.302090    1.042439   -0.225695
      2          6           0       -3.288279    1.391279    0.672647
      3          6           0       -2.201826    0.537111    0.883750
      4          6           0       -2.160981   -0.663484    0.176508
      5          6           0       -3.155483   -1.039170   -0.725222
      6          6           0       -4.232579   -0.169536   -0.920538
      7          1           0       -5.142439    1.711984   -0.383553
      8          1           0       -3.339635    2.331875    1.213654
      9          1           0       -1.403217    0.782353    1.573314
     10          1           0       -3.076600   -1.983551   -1.249951
     11          1           0       -5.018476   -0.443052   -1.618821
     12          7           0       -1.015755   -1.575941    0.391636
     13          8           0       -1.003146   -2.627969   -0.243749
     14          8           0       -0.152419   -1.221818    1.191565
     15          6           0        3.076983   -0.048924   -0.464489
     16          6           0        4.096287   -0.906949    0.285710
     17          6           0        4.223722   -2.315978   -0.294109
     18          1           0        2.098253   -0.547310   -0.439115
     19          1           0        3.368501    0.013755   -1.522072
     20          1           0        3.803689   -0.966848    1.341842
     21          1           0        5.072661   -0.406369    0.258711
     22          1           0        4.538492   -2.274389   -1.341863
     23          1           0        3.262309   -2.838052   -0.252579
     24          1           0        4.957585   -2.912111    0.257192
     25          6           0        2.938321    1.362461    0.103396
     26          6           0        1.919017    2.220486   -0.646803
     27          6           0        1.791581    3.629516   -0.066984
     28          1           0        2.646803    1.299783    1.160980
     29          1           0        3.917051    1.860848    0.078022
     30          1           0        0.942643    1.719907   -0.619804
     31          1           0        2.211615    2.280386   -1.702935
     32          1           0        2.752994    4.151590   -0.108514
     33          1           0        1.476812    3.587926    0.980771
     34          1           0        1.057719    4.225648   -0.618286
 ---------------------------------------------------------------------

 SCF Done:  E(RHF) =  -669.536655932     A.U. after   15 cycles
 E2 =    -0.2092067533D+01 EUMP2 =    -0.67162872346544D+03

 The electronic state is 1-A.
 Alpha  occ. eigenvalues --  -20.61070 -20.61061 -15.86081 -11.31364 -11.27917
 Alpha  occ. eigenvalues --  -11.27906 -11.27637 -11.26910 -11.26900 -11.21180
 Alpha  occ. eigenvalues --  -11.20904 -11.20611 -11.20459 -11.20196 -11.19863
 Alpha  occ. eigenvalues --   -1.60121  -1.39677  -1.19521  -1.08933  -1.07568
 Alpha  occ. eigenvalues --   -1.04908  -1.02742  -0.95783  -0.95192  -0.86312
 Alpha  occ. eigenvalues --   -0.86217  -0.82617  -0.78857  -0.77679  -0.77317
 Alpha  occ. eigenvalues --   -0.72305  -0.71434  -0.70626  -0.65178  -0.64908
 Alpha  occ. eigenvalues --   -0.64170  -0.62255  -0.60129  -0.58632  -0.56795
 Alpha  occ. eigenvalues --   -0.55413  -0.54467  -0.53238  -0.52997  -0.51955
 Alpha  occ. eigenvalues --   -0.51621  -0.49219  -0.49062  -0.48988  -0.47165
 Alpha  occ. eigenvalues --   -0.45888  -0.45342  -0.44850  -0.44446  -0.42961
 Alpha  occ. eigenvalues --   -0.37491  -0.36500
 Alpha virt. eigenvalues --    0.04810   0.11087   0.16303   0.21071   0.23345
 Alpha virt. eigenvalues --    0.25067   0.26914   0.27427   0.28177   0.28548
 Alpha virt. eigenvalues --    0.28756   0.30989   0.31753   0.32227   0.32709

 Mulliken charges:
               1
     1  C   -0.170432
     2  C   -0.218426
     3  C   -0.170818
     4  C    0.158359
     5  C   -0.170661
     6  C   -0.218376
     7  H    0.226368
     8  H    0.224526
     9  H    0.276089
    10  H    0.276034
    11  H    0.224139
    12  N    0.487641
    13  O   -0.458296
    14  O   -0.460023
    15  C   -0.303850
    16  C   -0.297655
    17  C   -0.478637
    18  H    0.167497
    19  H    0.142655
    20  H    0.156445
    21  H    0.145040
    22  H    0.149807
    23  H    0.168470
    24  H    0.155808
    25  C   -0.296704
    26  C   -0.299428
    27  C   -0.474936
    28  H    0.151826
    29  H    0.145681
    30  H    0.148142
    31  H    0.150916
    32  H    0.156100
    33  H    0.151028
    34  H    0.155671
 Sum of Mulliken charges =  -0.00000

 Dipole moment (field-independent basis, Debye):
    X=             -4.3010    Y=              3.0116    Z=             -0.6896  Tot=              5.2957
 Quadrupole moment (field-independent basis, Debye-Ang):
   XX=            -77.2660   YY=            -98.7104   ZZ=            -93.1483
   XY=             -2.7438   XZ=              2.3730   YZ=              3.0556

 Normal termination of Gaussian 16 at Thu May  6 02:57:30 2021.
