 Gaussian 16, Revision A.03,
 Gaussian 16:  EM64L-G16RevA.03 25-Dec-2016

 -------------
 #p 6-31g* mp2
 -------------

 ------------------------------------------------------
 Input file generated by CHIRIPA (05-May-2021 14:53:12)
 ------------------------------------------------------
 Symbolic Z-matrix:
 Charge =  0 Multiplicity = 1

                         Standard orientation:
 ---------------------------------------------------------------------
 Center     Atomic      Atomic             Coordinates (Angstroms)
 Number     Number       Type             X           Y           Z
 ---------------------------------------------------------------------
      1          6           0        3.483726    0.648545   -0.576626
      2          6           0        2.779362    1.702541    0.278329
      3          6           0        2.174079    2.832112   -0.555636
      4          1           0        4.272718    1.132872   -1.168120
      5          1           0        2.765928    0.230442   -1.295898
      6          1           0        3.497924    2.117545    0.996700
      7          1           0        1.992082    1.215617    0.867999
      8          1           0        1.436711    2.437019   -1.261887
      9          1           0        2.951110    3.344072   -1.132456
     10          1           0        1.675551    3.574383    0.075524
     11          6           0        4.093947   -0.487196    0.242794
     12          6           0        4.798312   -1.541191   -0.612162
     13          6           0        5.403594   -2.670762    0.221803
     14          1           0        4.811745   -0.069092    0.962065
     15          1           0        3.304956   -0.971522    0.834288
     16          1           0        5.585592   -1.054267   -1.201832
     17          1           0        4.079749   -1.956196   -1.330532
     18          1           0        4.626564   -3.182722    0.798623
     19          1           0        6.140962   -2.275670    0.928055
     20          1           0        5.902123   -3.413033   -0.409356
     21          6           0       -4.967497   -1.238653   -0.846273
     22          6           0       -4.677865   -1.363066    0.516502
     23          6           0       -3.568206   -0.716134    1.068482
     24          6           0       -2.765954    0.050628    0.224825
     25          6           0       -3.028272    0.193949   -1.136770
     26          6           0       -4.143229   -0.461912   -1.667113
     27          1           0       -5.831565   -1.744675   -1.266662
     28          1           0       -5.316246   -1.965634    1.156365
     29          1           0       -3.320821   -0.795361    2.120121
     30          1           0       -2.373398    0.801564   -1.749438
     31          1           0       -4.365733   -0.363500   -2.725815
     32          7           0       -1.588403    0.740233    0.797729
     33          8           0       -0.897241    1.409889    0.033208
     34          8           0       -1.378898    0.598031    2.000444
 ---------------------------------------------------------------------

 SCF Done:  E(RHF) =  -669.536140286     A.U. after   15 cycles
 E2 =    -0.2091756124D+01 EUMP2 =    -0.67162789640977D+03

 The electronic state is 1-A.
 Alpha  occ. eigenvalues --  -20.61049 -20.61042 -15.86063 -11.31361 -11.27920
 Alpha  occ. eigenvalues --  -11.27915 -11.27650 -11.26918 -11.26908 -11.20898
 Alpha  occ. eigenvalues --  -11.20504 -11.20428 -11.20178 -11.19873 -11.19282
 Alpha  occ. eigenvalues --   -1.60101  -1.39658  -1.19525  -1.08935  -1.07322
 Alpha  occ. eigenvalues --   -1.04916  -1.02329  -0.95785  -0.94806  -0.86318
 Alpha  occ. eigenvalues --   -0.85846  -0.82615  -0.78477  -0.77674  -0.77052
 Alpha  occ. eigenvalues --   -0.72294  -0.71413  -0.70633  -0.65184  -0.64920
 Alpha  occ. eigenvalues --   -0.63951  -0.62264  -0.59702  -0.58265  -0.56393
 Alpha  occ. eigenvalues --   -0.55420  -0.54102  -0.53249  -0.53005  -0.51514
 Alpha  occ. eigenvalues --   -0.51250  -0.49065  -0.49033  -0.48727  -0.46771
 Alpha  occ. eigenvalues --   -0.45519  -0.45082  -0.44603  -0.44434  -0.42611
 Alpha  occ. eigenvalues --   -0.37502  -0.36516
 Alpha virt. eigenvalues --    0.04839   0.11140   0.16338   0.21248   0.23885
 Alpha virt. eigenvalues --    0.25548   0.27172   0.27633   0.28163   0.28560
 Alpha virt. eigenvalues --    0.29193   0.30828   0.32158   0.32731   0.32797

 Mulliken charges:
               1
     1  C   -0.297554
     2  C   -0.302371
     3  C   -0.467687
     4  H    0.144304
     5  H    0.146657
     6  H    0.143932
     7  H    0.170612
     8  H    0.160506
     9  H    0.141032
    10  H    0.161668
    11  C   -0.297668
    12  C   -0.298453
    13  C   -0.474961
    14  H    0.148004
    15  H    0.150664
    16  H    0.150207
    17  H    0.149213
    18  H    0.154247
    19  H    0.154668
    20  H    0.157174
    21  C   -0.170470
    22  C   -0.218591
    23  C   -0.170546
    24  C    0.157605
    25  C   -0.170649
    26  C   -0.218530
    27  H    0.226270
    28  H    0.224064
    29  H    0.276003
    30  H    0.275623
    31  H    0.224117
    32  N    0.492706
    33  O   -0.462589
    34  O   -0.459208
 Sum of Mulliken charges =  -0.00000

 Dipole moment (field-independent basis, Debye):
    X=             -4.5811    Y=             -2.4208    Z=             -1.9187  Tot=              5.5253
 Quadrupole moment (field-independent basis, Debye-Ang):
   XX=            -72.9925   YY=            -96.0440   ZZ=            -92.0048
   XY=              8.0256   XZ=              3.8243   YZ=             -1.9939

 Normal termination of Gaussian 16 at Wed May  5 21:45:32 2021.
