 Gaussian 16, Revision A.03,
 Gaussian 16:  EM64L-G16RevA.03 25-Dec-2016

 -------------
 #p 6-31g* mp2
 -------------

 ------------------------------------------------------
 Input file generated by CHIRIPA (05-May-2021 14:55:22)
 ------------------------------------------------------
 Symbolic Z-matrix:
 Charge =  0 Multiplicity = 1

                         Standard orientation:
 ---------------------------------------------------------------------
 Center     Atomic      Atomic             Coordinates (Angstroms)
 Number     Number       Type             X           Y           Z
 ---------------------------------------------------------------------
      1          6           0       -5.429714    2.026328    0.034683
      2          6           0       -4.052424    2.205757    0.200207
      3          6           0       -3.183812    1.111048    0.159275
      4          6           0       -3.729084   -0.154722   -0.049997
      5          6           0       -5.096706   -0.365832   -0.218322
      6          6           0       -5.946548    0.743368   -0.173685
      7          1           0       -6.097182    2.882353    0.067918
      8          1           0       -3.648237    3.200967    0.362183
      9          1           0       -2.113496    1.221420    0.284410
     10          1           0       -5.470054   -1.370063   -0.378160
     11          1           0       -7.015744    0.601030   -0.302548
     12          7           0       -2.819460   -1.321311   -0.095290
     13          8           0       -3.324806   -2.426192   -0.281033
     14          8           0       -1.618373   -1.108714    0.055810
     15          6           0        4.394694   -0.270507    0.511126
     16          6           0        3.182541   -0.807781   -0.250457
     17          6           0        2.049688   -1.248797    0.676873
     18          1           0        4.761615   -1.045843    1.197543
     19          1           0        4.080251    0.576835    1.136052
     20          1           0        3.499452   -1.652980   -0.874813
     21          1           0        2.818580   -0.031143   -0.935279
     22          1           0        1.705542   -0.410004    1.290543
     23          1           0        2.390283   -2.041056    1.351352
     24          1           0        1.193275   -1.629407    0.111583
     25          6           0        5.535550    0.174389   -0.402244
     26          6           0        6.747702    0.711662    0.359339
     27          6           0        7.880556    1.152678   -0.567991
     28          1           0        5.849993   -0.672953   -1.027170
     29          1           0        5.168629    0.949725   -1.088661
     30          1           0        7.111664   -0.064976    1.044161
     31          1           0        6.430792    1.556862    0.983695
     32          1           0        7.539961    1.944938   -1.242470
     33          1           0        8.224702    0.313885   -1.181662
     34          1           0        8.736969    1.533288   -0.002701
 ---------------------------------------------------------------------

 SCF Done:  E(RHF) =  -669.535923147     A.U. after   15 cycles
 E2 =    -0.2090617197D+01 EUMP2 =    -0.67162654034415D+03

 The electronic state is 1-A.
 Alpha  occ. eigenvalues --  -20.60888 -20.60881 -15.85929 -11.31264 -11.27830
 Alpha  occ. eigenvalues --  -11.27826 -11.27571 -11.26842 -11.26832 -11.21207
 Alpha  occ. eigenvalues --  -11.20870 -11.20756 -11.20713 -11.20646 -11.19658
 Alpha  occ. eigenvalues --   -1.59954  -1.39509  -1.19435  -1.08837  -1.07801
 Alpha  occ. eigenvalues --   -1.04834  -1.02808  -0.95680  -0.95225  -0.86250
 Alpha  occ. eigenvalues --   -0.86222  -0.82509  -0.78899  -0.77604  -0.77549
 Alpha  occ. eigenvalues --   -0.72156  -0.71270  -0.70544  -0.65091  -0.64837
 Alpha  occ. eigenvalues --   -0.64447  -0.62181  -0.60223  -0.58627  -0.56816
 Alpha  occ. eigenvalues --   -0.55338  -0.54541  -0.53165  -0.52927  -0.51848
 Alpha  occ. eigenvalues --   -0.51658  -0.49211  -0.48904  -0.48891  -0.47188
 Alpha  occ. eigenvalues --   -0.45972  -0.45131  -0.45067  -0.44916  -0.43018
 Alpha  occ. eigenvalues --   -0.37416  -0.36436
 Alpha virt. eigenvalues --    0.04973   0.11219   0.16469   0.21326   0.23427
 Alpha virt. eigenvalues --    0.25037   0.27162   0.27293   0.28027   0.28095
 Alpha virt. eigenvalues --    0.28958   0.30931   0.31995   0.32328   0.32608

 Mulliken charges:
               1
     1  C   -0.170653
     2  C   -0.218545
     3  C   -0.170881
     4  C    0.157679
     5  C   -0.170533
     6  C   -0.218609
     7  H    0.225866
     8  H    0.223683
     9  H    0.275916
    10  H    0.275812
    11  H    0.223698
    12  N    0.493316
    13  O   -0.459555
    14  O   -0.464494
    15  C   -0.297057
    16  C   -0.299751
    17  C   -0.481238
    18  H    0.148792
    19  H    0.146379
    20  H    0.150409
    21  H    0.148333
    22  H    0.148286
    23  H    0.149931
    24  H    0.187862
    25  C   -0.297437
    26  C   -0.298990
    27  C   -0.475280
    28  H    0.149233
    29  H    0.147744
    30  H    0.151682
    31  H    0.150408
    32  H    0.154106
    33  H    0.155063
    34  H    0.158825
 Sum of Mulliken charges =  -0.00000

 Dipole moment (field-independent basis, Debye):
    X=             -3.5069    Y=              4.0347    Z=              0.1294  Tot=              5.3474
 Quadrupole moment (field-independent basis, Debye-Ang):
   XX=            -69.7633   YY=            -93.7264   ZZ=            -96.0095
   XY=            -13.2407   XZ=              0.6983   YZ=              0.5318

 Normal termination of Gaussian 16 at Wed May  5 18:59:34 2021.
