 Gaussian 16, Revision A.03,
 Gaussian 16:  EM64L-G16RevA.03 25-Dec-2016

 -------------
 #p 6-31g* mp2
 -------------

 ------------------------------------------------------
 Input file generated by CHIRIPA (05-May-2021 14:51:11)
 ------------------------------------------------------
 Symbolic Z-matrix:
 Charge =  0 Multiplicity = 1

                         Standard orientation:
 ---------------------------------------------------------------------
 Center     Atomic      Atomic             Coordinates (Angstroms)
 Number     Number       Type             X           Y           Z
 ---------------------------------------------------------------------
      1          6           0       -4.285039   -0.707170   -0.109871
      2          6           0       -5.770301   -0.635988    0.246383
      3          6           0       -6.393934   -2.015679    0.459291
      4          1           0       -4.161106   -1.311400   -1.018987
      5          1           0       -3.747835   -1.233760    0.691072
      6          1           0       -6.304327   -0.108473   -0.554341
      7          1           0       -5.890731   -0.031698    1.154648
      8          1           0       -5.887223   -2.546238    1.271912
      9          1           0       -6.303170   -2.623449   -0.446787
     10          1           0       -7.455997   -1.941374    0.712985
     11          6           0       -3.647434    0.664168   -0.325786
     12          6           0       -2.162173    0.592987   -0.682040
     13          6           0       -1.538540    1.972677   -0.894948
     14          1           0       -4.184639    1.190758   -1.126729
     15          1           0       -3.771368    1.268399    0.583330
     16          1           0       -2.041743   -0.011304   -1.590305
     17          1           0       -1.628146    0.065471    0.118684
     18          1           0       -1.629304    2.580448    0.011130
     19          1           0       -2.045250    2.503236   -1.707569
     20          1           0       -0.476477    1.898373   -1.148642
     21          6           0        4.551708   -0.195509   -0.222129
     22          6           0        5.225521   -1.481979    0.256364
     23          6           0        6.394956   -1.903247   -0.634000
     24          1           0        4.197793   -0.335900   -1.252653
     25          1           0        5.297722    0.610583   -0.254931
     26          1           0        4.478154   -2.285070    0.289576
     27          1           0        5.577704   -1.338571    1.285935
     28          1           0        7.161283   -1.121756   -0.658786
     29          1           0        6.055486   -2.073632   -1.660807
     30          1           0        6.862059   -2.825135   -0.273726
     31          6           0        3.380766    0.238510    0.657786
     32          6           0        2.706952    1.524980    0.179294
     33          6           0        1.537517    1.946249    1.069658
     34          1           0        2.634752   -0.567580    0.690589
     35          1           0        3.734681    0.378903    1.688309
     36          1           0        2.354771    1.381573   -0.850278
     37          1           0        3.454320    2.328071    0.146081
     38          1           0        1.876987    2.116634    2.096464
     39          1           0        0.771190    1.164757    1.094443
     40          1           0        1.070415    2.868138    0.709383
 ---------------------------------------------------------------------

 SCF Done:  E(RHF) =  -470.732485417     A.U. after   11 cycles
 E2 =    -0.1583172018D+01 EUMP2 =    -0.47231565743445D+03

 The electronic state is 1-A.
 Alpha  occ. eigenvalues --  -11.21605 -11.21603 -11.21600 -11.21599 -11.21402
 Alpha  occ. eigenvalues --  -11.21402 -11.21343 -11.21342 -11.21071 -11.21069
 Alpha  occ. eigenvalues --  -11.20971 -11.20968  -1.08442  -1.08409  -1.03581
 Alpha  occ. eigenvalues --   -1.03459  -0.96077  -0.95852  -0.87104  -0.86855
 Alpha  occ. eigenvalues --   -0.79625  -0.79541  -0.78246  -0.78235  -0.65117
 Alpha  occ. eigenvalues --   -0.65011  -0.61126  -0.60797  -0.59511  -0.59151
 Alpha  occ. eigenvalues --   -0.57635  -0.57520  -0.55444  -0.55041  -0.52855
 Alpha  occ. eigenvalues --   -0.52473  -0.52379  -0.52316  -0.49994  -0.49757
 Alpha  occ. eigenvalues --   -0.47914  -0.47888  -0.46623  -0.46605  -0.45798
 Alpha  occ. eigenvalues --   -0.45775  -0.45723  -0.45670  -0.43849  -0.43663
 Alpha virt. eigenvalues --    0.21106   0.23064   0.23509   0.25211   0.26110
 Alpha virt. eigenvalues --    0.26535   0.26893   0.27476   0.27684   0.29428
 Alpha virt. eigenvalues --    0.29775   0.30063   0.31013   0.32259   0.32369

 Mulliken charges:
               1
     1  C   -0.298311
     2  C   -0.299656
     3  C   -0.475705
     4  H    0.149525
     5  H    0.149406
     6  H    0.151941
     7  H    0.152024
     8  H    0.155173
     9  H    0.155128
    10  H    0.160271
    11  C   -0.298290
    12  C   -0.302207
    13  C   -0.478127
    14  H    0.149684
    15  H    0.149957
    16  H    0.151594
    17  H    0.152260
    18  H    0.156073
    19  H    0.153900
    20  H    0.165722
    21  C   -0.298301
    22  C   -0.299662
    23  C   -0.475703
    24  H    0.149604
    25  H    0.149545
    26  H    0.151946
    27  H    0.151922
    28  H    0.155181
    29  H    0.155181
    30  H    0.160243
    31  C   -0.298191
    32  C   -0.302440
    33  C   -0.479433
    34  H    0.149499
    35  H    0.149782
    36  H    0.152197
    37  H    0.152202
    38  H    0.154380
    39  H    0.158650
    40  H    0.163036
 Sum of Mulliken charges =  -0.00000

 Dipole moment (field-independent basis, Debye):
    X=             -0.0010    Y=              0.0157    Z=              0.0049  Tot=              0.0165
 Quadrupole moment (field-independent basis, Debye-Ang):
   XX=            -85.5098   YY=            -85.5093   ZZ=            -83.8296
   XY=              0.1931   XZ=              1.1582   YZ=              0.3204

 Normal termination of Gaussian 16 at Wed May  5 23:04:14 2021.
