 Gaussian 16, Revision A.03,
 Gaussian 16:  EM64L-G16RevA.03 25-Dec-2016

 -------------
 #p 6-31g* mp2
 -------------

 ------------------------------------------------------
 Input file generated by CHIRIPA (05-May-2021 14:57:24)
 ------------------------------------------------------
 Symbolic Z-matrix:
 Charge =  0 Multiplicity = 1

                         Standard orientation:
 ---------------------------------------------------------------------
 Center     Atomic      Atomic             Coordinates (Angstroms)
 Number     Number       Type             X           Y           Z
 ---------------------------------------------------------------------
      1          6           0        2.588179    2.322521   -0.367493
      2          6           0        3.952354    2.013416   -0.367685
      3          6           0        4.380198    0.688614   -0.239638
      4          6           0        3.412325   -0.306585   -0.112788
      5          6           0        2.045931   -0.030463   -0.109102
      6          6           0        1.640991    1.301395   -0.238430
      7          1           0        2.264715    3.354400   -0.467460
      8          1           0        4.690188    2.804385   -0.467756
      9          1           0        5.429916    0.421215   -0.236703
     10          1           0        1.333973   -0.840551   -0.007651
     11          1           0        0.580885    1.538504   -0.237958
     12          7           0        3.853140   -1.712829    0.023448
     13          8           0        2.980559   -2.571355    0.133772
     14          8           0        5.062886   -1.929889    0.017325
     15          6           0       -1.939859    2.051303    0.842315
     16          6           0       -1.745470    0.804297    1.445399
     17          6           0       -2.515312   -0.297766    1.061539
     18          6           0       -3.475002   -0.116260    0.066884
     19          6           0       -3.692364    1.113385   -0.552807
     20          6           0       -2.910973    2.201602   -0.153109
     21          1           0       -1.337341    2.902035    1.146658
     22          1           0       -0.992016    0.684636    2.218724
     23          1           0       -2.385724   -1.274431    1.511817
     24          1           0       -4.451100    1.201717   -1.320880
     25          1           0       -3.064129    3.168862   -0.623212
     26          7           0       -4.296113   -1.275636   -0.347875
     27          8           0       -5.135138   -1.089598   -1.226546
     28          8           0       -4.085125   -2.348441    0.213562
 ---------------------------------------------------------------------

 SCF Done:  E(RHF) =  -868.336580457     A.U. after   16 cycles
 E2 =    -0.2601821062D+01 EUMP2 =    -0.87093840151908D+03

 The electronic state is 1-A.
 Alpha  occ. eigenvalues --  -20.61307 -20.61293 -20.61051 -20.61046 -15.86363
 Alpha  occ. eigenvalues --  -15.86106 -11.32009 -11.31570 -11.28580 -11.28565
 Alpha  occ. eigenvalues --  -11.28438 -11.28130 -11.28126 -11.27929 -11.27704
 Alpha  occ. eigenvalues --  -11.27684 -11.27185 -11.27072  -1.60372  -1.60125
 Alpha  occ. eigenvalues --   -1.39917  -1.39676  -1.20227  -1.19745  -1.09600
 Alpha  occ. eigenvalues --   -1.09132  -1.05644  -1.05148  -0.96369  -0.95952
 Alpha  occ. eigenvalues --   -0.87037  -0.86552  -0.83168  -0.82772  -0.78151
 Alpha  occ. eigenvalues --   -0.77799  -0.72575  -0.72320  -0.71700  -0.71452
 Alpha  occ. eigenvalues --   -0.71352  -0.70881  -0.65878  -0.65637  -0.65391
 Alpha  occ. eigenvalues --   -0.65145  -0.62953  -0.62503  -0.56186  -0.55709
 Alpha  occ. eigenvalues --   -0.54118  -0.53713  -0.53483  -0.53069  -0.49357
 Alpha  occ. eigenvalues --   -0.49313  -0.49087  -0.49072  -0.45259  -0.45059
 Alpha  occ. eigenvalues --   -0.38254  -0.37756  -0.37284  -0.36713
 Alpha virt. eigenvalues --    0.04300   0.04711   0.10282   0.10918   0.15615
 Alpha virt. eigenvalues --    0.16173   0.20082   0.21651   0.26289   0.26551
 Alpha virt. eigenvalues --    0.27736   0.28465   0.30245   0.31085   0.31875

 Mulliken charges:
               1
     1  C   -0.174434
     2  C   -0.217821
     3  C   -0.171133
     4  C    0.159933
     5  C   -0.176761
     6  C   -0.228725
     7  H    0.221951
     8  H    0.224031
     9  H    0.276811
    10  H    0.275940
    11  H    0.232915
    12  N    0.487851
    13  O   -0.458992
    14  O   -0.459327
    15  C   -0.185469
    16  C   -0.223225
    17  C   -0.172369
    18  C    0.160532
    19  C   -0.169801
    20  C   -0.217828
    21  H    0.225648
    22  H    0.230029
    23  H    0.281721
    24  H    0.279000
    25  H    0.225611
    26  N    0.487815
    27  O   -0.458119
    28  O   -0.455782
 Sum of Mulliken charges =  -0.00000

 Dipole moment (field-independent basis, Debye):
    X=              1.0766    Y=              8.8505    Z=              0.9795  Tot=              8.9694
 Quadrupole moment (field-independent basis, Debye-Ang):
   XX=           -129.1418   YY=           -107.7740   ZZ=           -103.5021
   XY=              2.9401   XZ=             -4.8767   YZ=             -2.6832

 Normal termination of Gaussian 16 at Wed May  5 17:55:25 2021.
