 Gaussian 16, Revision A.03,
 Gaussian 16:  EM64L-G16RevA.03 25-Dec-2016

 -------------
 #p 6-31g* mp2
 -------------

 ------------------------------------------------------
 Input file generated by CHIRIPA (05-May-2021 14:57:23)
 ------------------------------------------------------
 Symbolic Z-matrix:
 Charge =  0 Multiplicity = 1

                         Standard orientation:
 ---------------------------------------------------------------------
 Center     Atomic      Atomic             Coordinates (Angstroms)
 Number     Number       Type             X           Y           Z
 ---------------------------------------------------------------------
      1          6           0       -0.689819   -1.051035   -0.557564
      2          6           0       -1.625445   -1.887347    0.060259
      3          6           0       -2.937154   -1.451862    0.270781
      4          6           0       -3.280531   -0.168314   -0.150987
      5          6           0       -2.371153    0.688388   -0.769358
      6          6           0       -1.064997    0.231902   -0.969675
      7          1           0        0.326991   -1.397487   -0.717139
      8          1           0       -1.336890   -2.884186    0.381342
      9          1           0       -3.681611   -2.078604    0.746592
     10          1           0       -2.688448    1.676896   -1.078542
     11          1           0       -0.340488    0.883564   -1.449745
     12          7           0       -4.666239    0.303831    0.066481
     13          8           0       -4.943722    1.439020   -0.314290
     14          8           0       -5.448634   -0.470230    0.613585
     15          6           0        2.323694    2.635457    0.542341
     16          6           0        1.969541    1.650274    1.469978
     17          6           0        2.367654    0.323189    1.283163
     18          6           0        3.122574    0.015138    0.152459
     19          6           0        3.491190    0.974158   -0.789715
     20          6           0        3.082053    2.294855   -0.582561
     21          1           0        2.010148    3.663887    0.695363
     22          1           0        1.380649    1.911895    2.344510
     23          1           0        2.107390   -0.459397    1.985472
     24          1           0        4.078860    0.682860   -1.651809
     25          1           0        3.358552    3.057877   -1.304636
     26          7           0        3.549875   -1.386406   -0.056079
     27          8           0        4.214424   -1.632047   -1.060405
     28          8           0        3.212152   -2.212757    0.788743
 ---------------------------------------------------------------------

 SCF Done:  E(RHF) =  -868.338645476     A.U. after   16 cycles
 E2 =    -0.2601318693D+01 EUMP2 =    -0.87093996416925D+03

 The electronic state is 1-A.
 Alpha  occ. eigenvalues --  -20.61898 -20.61888 -20.60851 -20.60840 -15.86934
 Alpha  occ. eigenvalues --  -15.85899 -11.32224 -11.31212 -11.28782 -11.28743
 Alpha  occ. eigenvalues --  -11.28445 -11.27787 -11.27753 -11.27737 -11.27677
 Alpha  occ. eigenvalues --  -11.27414 -11.26756 -11.26688  -1.60983  -1.59926
 Alpha  occ. eigenvalues --   -1.40529  -1.39481  -1.20395  -1.19366  -1.09790
 Alpha  occ. eigenvalues --   -1.08755  -1.05746  -1.04757  -0.96629  -0.95605
 Alpha  occ. eigenvalues --   -0.87142  -0.86139  -0.83438  -0.82440  -0.78511
 Alpha  occ. eigenvalues --   -0.77506  -0.73130  -0.72376  -0.72115  -0.71439
 Alpha  occ. eigenvalues --   -0.71252  -0.70413  -0.66009  -0.65702  -0.65003
 Alpha  occ. eigenvalues --   -0.64733  -0.63070  -0.62104  -0.56214  -0.55239
 Alpha  occ. eigenvalues --   -0.54158  -0.53799  -0.53052  -0.52806  -0.49907
 Alpha  occ. eigenvalues --   -0.49886  -0.48877  -0.48867  -0.45929  -0.44898
 Alpha  occ. eigenvalues --   -0.38384  -0.37722  -0.36960  -0.36334
 Alpha virt. eigenvalues --    0.03941   0.05018   0.10275   0.11282   0.15481
 Alpha virt. eigenvalues --    0.16558   0.20592   0.21334   0.26536   0.27243
 Alpha virt. eigenvalues --    0.27397   0.27796   0.30224   0.30843   0.31692

 Mulliken charges:
               1
     1  C   -0.172774
     2  C   -0.221288
     3  C   -0.171977
     4  C    0.157963
     5  C   -0.173940
     6  C   -0.218790
     7  H    0.229692
     8  H    0.229327
     9  H    0.275798
    10  H    0.272800
    11  H    0.222817
    12  N    0.488032
    13  O   -0.462157
    14  O   -0.459922
    15  C   -0.173073
    16  C   -0.215740
    17  C   -0.171260
    18  C    0.148622
    19  C   -0.174196
    20  C   -0.221834
    21  H    0.230397
    22  H    0.229434
    23  H    0.277466
    24  H    0.277973
    25  H    0.227126
    26  N    0.486717
    27  O   -0.456374
    28  O   -0.460840
 Sum of Mulliken charges =  -0.00000

 Dipole moment (field-independent basis, Debye):
    X=              3.5874    Y=              3.3228    Z=              0.0790  Tot=              4.8904
 Quadrupole moment (field-independent basis, Debye-Ang):
   XX=           -146.2851   YY=           -100.1164   ZZ=           -100.5818
   XY=             22.4820   XZ=              1.0680   YZ=             -2.1240

 Normal termination of Gaussian 16 at Fri May  7 04:53:47 2021.
