 Gaussian 16, Revision A.03,
 Gaussian 16:  EM64L-G16RevA.03 25-Dec-2016

 -------------
 #p 6-31g* mp2
 -------------

 ------------------------------------------------------
 Input file generated by CHIRIPA (05-May-2021 14:57:23)
 ------------------------------------------------------
 Symbolic Z-matrix:
 Charge =  0 Multiplicity = 1

                         Standard orientation:
 ---------------------------------------------------------------------
 Center     Atomic      Atomic             Coordinates (Angstroms)
 Number     Number       Type             X           Y           Z
 ---------------------------------------------------------------------
      1          6           0       -1.701883    1.159472   -0.212126
      2          6           0       -1.855082   -0.193688   -0.531513
      3          6           0       -3.120071   -0.788687   -0.513378
      4          6           0       -4.215084    0.002617   -0.169758
      5          6           0       -4.094823    1.353325    0.153375
      6          6           0       -2.820271    1.927306    0.128698
      7          1           0       -0.715495    1.613518   -0.228755
      8          1           0       -0.988310   -0.792430   -0.796576
      9          1           0       -3.267240   -1.834034   -0.756296
     10          1           0       -4.977640    1.924557    0.413657
     11          1           0       -2.704288    2.978422    0.377193
     12          7           0       -5.559333   -0.616157   -0.147096
     13          8           0       -6.508191    0.102615    0.158966
     14          8           0       -5.638645   -1.808207   -0.435824
     15          6           0        1.699347   -0.198534    1.219340
     16          6           0        2.206069    1.018366    0.751464
     17          6           0        3.475959    1.082214    0.170214
     18          6           0        4.215329   -0.095517    0.072384
     19          6           0        3.738081   -1.323062    0.529172
     20          6           0        2.465619   -1.363311    1.106900
     21          1           0        0.711867   -0.238966    1.669502
     22          1           0        1.613200    1.924541    0.837474
     23          1           0        3.892610    2.010958   -0.200268
     24          1           0        4.352555   -2.209585    0.429596
     25          1           0        2.074645   -2.309769    1.469392
     26          7           0        5.561066   -0.040415   -0.541095
     27          8           0        6.192634   -1.092179   -0.615602
     28          8           0        5.958804    1.053494   -0.935817
 ---------------------------------------------------------------------

 SCF Done:  E(RHF) =  -868.337016440     A.U. after   16 cycles
 E2 =    -0.2601013129D+01 EUMP2 =    -0.87093802956863D+03

 The electronic state is 1-A.
 Alpha  occ. eigenvalues --  -20.61468 -20.61461 -20.61356 -20.61351 -15.86530
 Alpha  occ. eigenvalues --  -15.86413 -11.32083 -11.31930 -11.28722 -11.28657
 Alpha  occ. eigenvalues --  -11.28500 -11.28488 -11.28467 -11.28324 -11.27835
 Alpha  occ. eigenvalues --  -11.27690 -11.27569 -11.27558  -1.60539  -1.60428
 Alpha  occ. eigenvalues --   -1.40087  -1.39977  -1.20296  -1.20118  -1.09677
 Alpha  occ. eigenvalues --   -1.09489  -1.05727  -1.05531  -0.96471  -0.96291
 Alpha  occ. eigenvalues --   -0.87127  -0.86927  -0.83278  -0.83126  -0.78294
 Alpha  occ. eigenvalues --   -0.78134  -0.72745  -0.72628  -0.71866  -0.71753
 Alpha  occ. eigenvalues --   -0.71514  -0.71153  -0.65948  -0.65797  -0.65753
 Alpha  occ. eigenvalues --   -0.65485  -0.63065  -0.62860  -0.56249  -0.56068
 Alpha  occ. eigenvalues --   -0.54060  -0.53845  -0.53800  -0.53597  -0.49519
 Alpha  occ. eigenvalues --   -0.49485  -0.49397  -0.49374  -0.45450  -0.45348
 Alpha  occ. eigenvalues --   -0.38393  -0.38057  -0.37334  -0.37126
 Alpha virt. eigenvalues --    0.04206   0.04385   0.10136   0.10427   0.15630
 Alpha virt. eigenvalues --    0.15761   0.19090   0.21746   0.24849   0.26534
 Alpha virt. eigenvalues --    0.27518   0.28731   0.29538   0.30958   0.31884

 Mulliken charges:
               1
     1  C   -0.178755
     2  C   -0.225258
     3  C   -0.170673
     4  C    0.159459
     5  C   -0.170081
     6  C   -0.218722
     7  H    0.224236
     8  H    0.227053
     9  H    0.277391
    10  H    0.277983
    11  H    0.224591
    12  N    0.487885
    13  O   -0.458323
    14  O   -0.458782
    15  C   -0.177742
    16  C   -0.225352
    17  C   -0.169387
    18  C    0.159023
    19  C   -0.168976
    20  C   -0.220921
    21  H    0.231142
    22  H    0.218365
    23  H    0.277892
    24  H    0.279032
    25  H    0.227126
    26  N    0.488004
    27  O   -0.457629
    28  O   -0.458581
 Sum of Mulliken charges =  -0.00000

 Dipole moment (field-independent basis, Debye):
    X=              0.0612    Y=              1.8654    Z=              2.0617  Tot=              2.7810
 Quadrupole moment (field-independent basis, Debye-Ang):
   XX=           -183.1423   YY=            -96.0593   ZZ=           -105.5390
   XY=            -12.4440   XZ=              7.8696   YZ=             -0.1277

 Normal termination of Gaussian 16 at Thu May  6 14:34:58 2021.
