 Gaussian 16, Revision A.03,
 Gaussian 16:  EM64L-G16RevA.03 25-Dec-2016

 -------------
 #p 6-31g* mp2
 -------------

 ------------------------------------------------------
 Input file generated by CHIRIPA (05-May-2021 14:55:24)
 ------------------------------------------------------
 Symbolic Z-matrix:
 Charge =  0 Multiplicity = 1

                         Standard orientation:
 ---------------------------------------------------------------------
 Center     Atomic      Atomic             Coordinates (Angstroms)
 Number     Number       Type             X           Y           Z
 ---------------------------------------------------------------------
      1          6           0       -2.549248   -2.240736    0.312421
      2          6           0       -3.740639   -2.037385   -0.391678
      3          6           0       -4.279772   -0.753788   -0.519209
      4          6           0       -3.598166    0.308491    0.072625
      5          6           0       -2.409350    0.138076    0.780413
      6          6           0       -1.888570   -1.154272    0.895192
      7          1           0       -2.137565   -3.241264    0.406536
      8          1           0       -4.255890   -2.879280   -0.845302
      9          1           0       -5.200516   -0.567959   -1.058760
     10          1           0       -1.918484    0.996996    1.221688
     11          1           0       -0.963153   -1.309220    1.442585
     12          7           0       -4.159207    1.672009   -0.055636
     13          8           0       -3.539495    2.591265    0.474989
     14          8           0       -5.208039    1.795661   -0.684363
     15          6           0        5.229590   -0.130462    0.058564
     16          6           0        5.970866    1.168374   -0.260060
     17          6           0        7.454872    1.106365    0.102807
     18          1           0        5.337818   -0.353892    1.128756
     19          1           0        5.706241   -0.958949   -0.483476
     20          1           0        5.492104    1.994385    0.281336
     21          1           0        5.860698    1.388838   -1.329581
     22          1           0        7.952750    0.301555   -0.447648
     23          1           0        7.582061    0.910542    1.172421
     24          1           0        7.965461    2.045205   -0.133278
     25          6           0        3.745001   -0.083981   -0.298598
     26          6           0        3.003727   -1.382817    0.020025
     27          6           0        1.519720   -1.320807   -0.342841
     28          1           0        3.268351    0.744507    0.243442
     29          1           0        3.636774    0.139449   -1.368790
     30          1           0        3.113893   -1.603281    1.089546
     31          1           0        3.482488   -2.208828   -0.521371
     32          1           0        1.392531   -1.124985   -1.412457
     33          1           0        1.021842   -0.515998    0.207612
     34          1           0        1.009131   -2.259648   -0.106758
 ---------------------------------------------------------------------

 SCF Done:  E(RHF) =  -669.534692244     A.U. after   15 cycles
 E2 =    -0.2091707607D+01 EUMP2 =    -0.67162639985041D+03

 The electronic state is 1-A.
 Alpha  occ. eigenvalues --  -20.60724 -20.60719 -15.85776 -11.31134 -11.27684
 Alpha  occ. eigenvalues --  -11.27675 -11.27420 -11.26719 -11.26650 -11.22235
 Alpha  occ. eigenvalues --  -11.21911 -11.21868 -11.21850 -11.21730 -11.21288
 Alpha  occ. eigenvalues --   -1.59799  -1.39353  -1.19296  -1.08880  -1.08693
 Alpha  occ. eigenvalues --   -1.04703  -1.04009  -0.96478  -0.95532  -0.87516
 Alpha  occ. eigenvalues --   -0.86084  -0.82368  -0.80082  -0.78659  -0.77412
 Alpha  occ. eigenvalues --   -0.71995  -0.71121  -0.70408  -0.65526  -0.64950
 Alpha  occ. eigenvalues --   -0.64719  -0.62113  -0.61364  -0.59861  -0.58067
 Alpha  occ. eigenvalues --   -0.55790  -0.55186  -0.53382  -0.52978  -0.52875
 Alpha  occ. eigenvalues --   -0.52656  -0.50378  -0.48751  -0.48749  -0.48389
 Alpha  occ. eigenvalues --   -0.47094  -0.46206  -0.46113  -0.44761  -0.44260
 Alpha  occ. eigenvalues --   -0.37261  -0.36260
 Alpha virt. eigenvalues --    0.05097   0.11324   0.16543   0.20450   0.22644
 Alpha virt. eigenvalues --    0.23994   0.25999   0.26652   0.26718   0.27630
 Alpha virt. eigenvalues --    0.29051   0.30381   0.31209   0.31711   0.31759

 Mulliken charges:
               1
     1  C   -0.173090
     2  C   -0.218326
     3  C   -0.171499
     4  C    0.158793
     5  C   -0.173511
     6  C   -0.212714
     7  H    0.224894
     8  H    0.223101
     9  H    0.275270
    10  H    0.274654
    11  H    0.226513
    12  N    0.488081
    13  O   -0.460651
    14  O   -0.460574
    15  C   -0.298588
    16  C   -0.300147
    17  C   -0.475973
    18  H    0.149500
    19  H    0.149949
    20  H    0.153002
    21  H    0.152988
    22  H    0.155284
    23  H    0.155241
    24  H    0.161632
    25  C   -0.298932
    26  C   -0.300775
    27  C   -0.474809
    28  H    0.150246
    29  H    0.151876
    30  H    0.150239
    31  H    0.153662
    32  H    0.161692
    33  H    0.151529
    34  H    0.151443
 Sum of Mulliken charges =  -0.00000

 Dipole moment (field-independent basis, Debye):
    X=              2.1146    Y=             -4.7838    Z=              0.3918  Tot=              5.2449
 Quadrupole moment (field-independent basis, Debye-Ang):
   XX=           -107.1664   YY=            -97.6400   ZZ=            -93.0422
   XY=             19.6096   XZ=              0.3251   YZ=              1.2728

 Normal termination of Gaussian 16 at Thu May  6 16:01:12 2021.
