 Gaussian 16, Revision A.03,
 Gaussian 16:  EM64L-G16RevA.03 25-Dec-2016

 -------------
 #p 6-31g* mp2
 -------------

 ------------------------------------------------------
 Input file generated by CHIRIPA (05-May-2021 14:51:12)
 ------------------------------------------------------
 Symbolic Z-matrix:
 Charge =  0 Multiplicity = 1

                         Standard orientation:
 ---------------------------------------------------------------------
 Center     Atomic      Atomic             Coordinates (Angstroms)
 Number     Number       Type             X           Y           Z
 ---------------------------------------------------------------------
      1          6           0       -2.099769   -0.794305    0.239150
      2          6           0       -1.710299   -1.537063    1.517668
      3          6           0       -0.236940   -1.945183    1.538737
      4          1           0       -1.882002   -1.431951   -0.628565
      5          1           0       -1.469199    0.099664    0.136205
      6          1           0       -2.342356   -2.428621    1.618889
      7          1           0       -1.929196   -0.897650    2.382452
      8          1           0        0.408062   -1.063840    1.462517
      9          1           0       -0.007445   -2.603510    0.694616
     10          1           0        0.019809   -2.474708    2.461528
     11          6           0       -3.569653   -0.379723    0.203244
     12          6           0       -3.959122    0.363036   -1.075274
     13          6           0       -5.432482    0.771155   -1.096342
     14          1           0       -4.200222   -1.273691    0.306190
     15          1           0       -3.787420    0.257923    1.070960
     16          1           0       -3.740225   -0.276378   -1.940058
     17          1           0       -3.327066    1.254593   -1.176495
     18          1           0       -5.661977    1.429482   -0.252222
     19          1           0       -6.077483   -0.110187   -1.020123
     20          1           0       -5.689230    1.300680   -2.019134
     21          6           0        2.781772   -0.056118   -0.629865
     22          6           0        3.981676   -0.987262   -0.453272
     23          6           0        3.861107   -2.269626   -1.277165
     24          1           0        1.865414   -0.591383   -0.345745
     25          1           0        2.677767    0.198820   -1.693625
     26          1           0        4.084217   -1.239260    0.610024
     27          1           0        4.895305   -0.449657   -0.737664
     28          1           0        3.781837   -2.036173   -2.343850
     29          1           0        2.966142   -2.830263   -0.988504
     30          1           0        4.729489   -2.920657   -1.135977
     31          6           0        2.887650    1.230146    0.187471
     32          6           0        1.687745    2.161289    0.010878
     33          6           0        1.808314    3.443653    0.834771
     34          1           0        2.991655    0.975208    1.251231
     35          1           0        3.804008    1.765411   -0.096650
     36          1           0        0.774117    1.623684    0.295270
     37          1           0        1.585203    2.413288   -1.052418
     38          1           0        2.703280    4.004291    0.546110
     39          1           0        1.887583    3.210201    1.901455
     40          1           0        0.939933    4.094684    0.693582
 ---------------------------------------------------------------------

 SCF Done:  E(RHF) =  -470.732982753     A.U. after   11 cycles
 E2 =    -0.1583958324D+01 EUMP2 =    -0.47231694107614D+03

 The electronic state is 1-A.
 Alpha  occ. eigenvalues --  -11.21676 -11.21633 -11.21616 -11.21532 -11.21449
 Alpha  occ. eigenvalues --  -11.21387 -11.21369 -11.21243 -11.21175 -11.21100
 Alpha  occ. eigenvalues --  -11.21083 -11.21016  -1.08486  -1.08391  -1.03585
 Alpha  occ. eigenvalues --   -1.03507  -0.96048  -0.95944  -0.87067  -0.86962
 Alpha  occ. eigenvalues --   -0.79662  -0.79571  -0.78359  -0.78132  -0.65220
 Alpha  occ. eigenvalues --   -0.64953  -0.61006  -0.60884  -0.59404  -0.59322
 Alpha  occ. eigenvalues --   -0.57691  -0.57532  -0.55440  -0.55138  -0.52729
 Alpha  occ. eigenvalues --   -0.52656  -0.52526  -0.52327  -0.50036  -0.49836
 Alpha  occ. eigenvalues --   -0.48043  -0.47893  -0.46772  -0.46585  -0.46114
 Alpha  occ. eigenvalues --   -0.45763  -0.45705  -0.45191  -0.43834  -0.43751
 Alpha virt. eigenvalues --    0.19885   0.22800   0.23618   0.24268   0.25717
 Alpha virt. eigenvalues --    0.26596   0.26824   0.27587   0.27782   0.30033
 Alpha virt. eigenvalues --    0.30548   0.31510   0.31704   0.31924   0.32114

 Mulliken charges:
               1
     1  C   -0.304271
     2  C   -0.299303
     3  C   -0.481751
     4  H    0.150097
     5  H    0.154541
     6  H    0.152403
     7  H    0.152026
     8  H    0.160357
     9  H    0.155627
    10  H    0.160885
    11  C   -0.298042
    12  C   -0.299780
    13  C   -0.475757
    14  H    0.149724
    15  H    0.149667
    16  H    0.152113
    17  H    0.152275
    18  H    0.155191
    19  H    0.155184
    20  H    0.160368
    21  C   -0.305890
    22  C   -0.299043
    23  C   -0.476169
    24  H    0.158383
    25  H    0.148957
    26  H    0.151990
    27  H    0.151488
    28  H    0.154861
    29  H    0.155698
    30  H    0.159977
    31  C   -0.298367
    32  C   -0.305956
    33  C   -0.475404
    34  H    0.149125
    35  H    0.149889
    36  H    0.155778
    37  H    0.152498
    38  H    0.155599
    39  H    0.155078
    40  H    0.159953
 Sum of Mulliken charges =  -0.00000

 Dipole moment (field-independent basis, Debye):
    X=             -0.0365    Y=             -0.0159    Z=              0.0074  Tot=              0.0405
 Quadrupole moment (field-independent basis, Debye-Ang):
   XX=            -85.6676   YY=            -84.8577   ZZ=            -84.2900
   XY=              0.8857   XZ=             -0.3684   YZ=             -0.4551

 Normal termination of Gaussian 16 at Thu May  6 03:55:39 2021.
