 Gaussian 16, Revision A.03,
 Gaussian 16:  EM64L-G16RevA.03 25-Dec-2016

 -------------
 #p 6-31g* mp2
 -------------

 ------------------------------------------------------
 Input file generated by CHIRIPA (05-May-2021 14:51:12)
 ------------------------------------------------------
 Symbolic Z-matrix:
 Charge =  0 Multiplicity = 1

                         Standard orientation:
 ---------------------------------------------------------------------
 Center     Atomic      Atomic             Coordinates (Angstroms)
 Number     Number       Type             X           Y           Z
 ---------------------------------------------------------------------
      1          6           0        2.017794    1.312552    0.462448
      2          6           0        0.852851    2.008891   -0.241829
      3          6           0       -0.045660    2.781231    0.724589
      4          1           0        1.620795    0.626989    1.223592
      5          1           0        2.614496    2.063351    0.998771
      6          1           0        0.259318    1.257180   -0.777800
      7          1           0        1.252664    2.692734   -1.001516
      8          1           0        0.527004    3.551954    1.250557
      9          1           0       -0.471986    2.108243    1.475545
     10          1           0       -0.871876    3.271192    0.200026
     11          6           0        2.925032    0.536278   -0.490465
     12          6           0        4.089975   -0.160061    0.213812
     13          6           0        4.988486   -0.932401   -0.752605
     14          1           0        2.328330   -0.214521   -1.026788
     15          1           0        3.322031    1.221841   -1.251609
     16          1           0        3.690162   -0.843904    0.973499
     17          1           0        4.683508    0.591650    0.749783
     18          1           0        5.414812   -0.259413   -1.503561
     19          1           0        4.415822   -1.703124   -1.278574
     20          1           0        5.814702   -1.422361   -0.228043
     21          6           0       -3.094063   -0.559761    0.264540
     22          6           0       -3.931661    0.052017   -0.858911
     23          6           0       -5.173937    0.778128   -0.341892
     24          1           0       -3.717084   -1.259277    0.838533
     25          1           0       -2.792285    0.234289    0.961541
     26          1           0       -4.230609   -0.742737   -1.554334
     27          1           0       -3.306521    0.750013   -1.430415
     28          1           0       -4.891355    1.590398    0.335577
     29          1           0       -5.820694    0.089166    0.210954
     30          1           0       -5.758089    1.207798   -1.161654
     31          6           0       -1.848762   -1.289069   -0.236523
     32          6           0       -1.011165   -1.900847    0.886928
     33          6           0        0.231110   -2.626958    0.369908
     34          1           0       -2.150541   -2.083119   -0.933524
     35          1           0       -1.225742   -0.589554   -0.810516
     36          1           0       -1.636305   -2.598843    1.458431
     37          1           0       -0.712218   -1.106093    1.582350
     38          1           0        0.877867   -1.937996   -0.182937
     39          1           0       -0.051471   -3.439228   -0.307560
     40          1           0        0.815263   -3.056629    1.189670
 ---------------------------------------------------------------------

 SCF Done:  E(RHF) =  -470.732696574     A.U. after   11 cycles
 E2 =    -0.1585422393D+01 EUMP2 =    -0.47231811896648D+03

 The electronic state is 1-A.
 Alpha  occ. eigenvalues --  -11.21676 -11.21664 -11.21613 -11.21604 -11.21448
 Alpha  occ. eigenvalues --  -11.21433 -11.21388 -11.21371 -11.21166 -11.21134
 Alpha  occ. eigenvalues --  -11.21072 -11.21062  -1.08534  -1.08418  -1.03582
 Alpha  occ. eigenvalues --   -1.03562  -0.96073  -0.95971  -0.87082  -0.86996
 Alpha  occ. eigenvalues --   -0.79659  -0.79624  -0.78393  -0.78183  -0.65583
 Alpha  occ. eigenvalues --   -0.64719  -0.61027  -0.60884  -0.59401  -0.59377
 Alpha  occ. eigenvalues --   -0.57692  -0.57578  -0.55638  -0.54989  -0.52728
 Alpha  occ. eigenvalues --   -0.52700  -0.52514  -0.52375  -0.50212  -0.49733
 Alpha  occ. eigenvalues --   -0.47992  -0.47926  -0.46926  -0.46652  -0.46080
 Alpha  occ. eigenvalues --   -0.45903  -0.45654  -0.45195  -0.43828  -0.43817
 Alpha virt. eigenvalues --    0.18304   0.21760   0.24040   0.24687   0.25051
 Alpha virt. eigenvalues --    0.25857   0.27078   0.28395   0.28796   0.29685
 Alpha virt. eigenvalues --    0.30863   0.31350   0.31645   0.31847   0.32365

 Mulliken charges:
               1
     1  C   -0.301297
     2  C   -0.306124
     3  C   -0.477398
     4  H    0.152502
     5  H    0.150133
     6  H    0.157176
     7  H    0.152675
     8  H    0.155902
     9  H    0.155948
    10  H    0.160270
    11  C   -0.302146
    12  C   -0.300495
    13  C   -0.475854
    14  H    0.151886
    15  H    0.150418
    16  H    0.153319
    17  H    0.151958
    18  H    0.155017
    19  H    0.155681
    20  H    0.160335
    21  C   -0.299994
    22  C   -0.299723
    23  C   -0.475878
    24  H    0.149712
    25  H    0.151751
    26  H    0.151904
    27  H    0.151958
    28  H    0.155599
    29  H    0.155151
    30  H    0.160255
    31  C   -0.304551
    32  C   -0.301371
    33  C   -0.482931
    34  H    0.149980
    35  H    0.155288
    36  H    0.152659
    37  H    0.152646
    38  H    0.161561
    39  H    0.155734
    40  H    0.160344
 Sum of Mulliken charges =  -0.00000

 Dipole moment (field-independent basis, Debye):
    X=              0.0072    Y=              0.0037    Z=              0.0011  Tot=              0.0082
 Quadrupole moment (field-independent basis, Debye-Ang):
   XX=            -85.5266   YY=            -83.9815   ZZ=            -85.1420
   XY=              1.9233   XZ=              0.5987   YZ=             -0.4987

 Normal termination of Gaussian 16 at Thu May  6 03:54:47 2021.
