 Gaussian 16, Revision A.03,
 Gaussian 16:  EM64L-G16RevA.03 25-Dec-2016

 -------------
 #p 6-31g* mp2
 -------------

 ------------------------------------------------------
 Input file generated by CHIRIPA (05-May-2021 14:57:26)
 ------------------------------------------------------
 Symbolic Z-matrix:
 Charge =  0 Multiplicity = 1

                         Standard orientation:
 ---------------------------------------------------------------------
 Center     Atomic      Atomic             Coordinates (Angstroms)
 Number     Number       Type             X           Y           Z
 ---------------------------------------------------------------------
      1          6           0       -2.100892    2.164019    0.462882
      2          6           0       -2.499354    1.379275    1.550047
      3          6           0       -3.247085    0.215180    1.349225
      4          6           0       -3.580368   -0.136044    0.041994
      5          6           0       -3.198242    0.624941   -1.061714
      6          6           0       -2.450990    1.785015   -0.837236
      7          1           0       -1.520222    3.066754    0.628074
      8          1           0       -2.228899    1.671174    2.560836
      9          1           0       -3.568682   -0.410761    2.172748
     10          1           0       -3.482978    0.308246   -2.057730
     11          1           0       -2.142915    2.392527   -1.683442
     12          7           0       -4.371704   -1.366291   -0.183129
     13          8           0       -4.652551   -1.654011   -1.344585
     14          8           0       -4.696122   -2.019545    0.806138
     15          6           0        1.438652    1.427348   -0.376402
     16          6           0        2.719725    1.984229   -0.303910
     17          6           0        3.841319    1.166016   -0.139276
     18          6           0        3.644391   -0.211156   -0.050354
     19          6           0        2.380864   -0.796019   -0.119095
     20          6           0        1.273601    0.041445   -0.283927
     21          1           0        0.572936    2.070432   -0.504370
     22          1           0        2.850910    3.060203   -0.375431
     23          1           0        4.844411    1.570638   -0.080080
     24          1           0        2.281750   -1.872148   -0.044667
     25          1           0        0.279890   -0.393814   -0.339903
     26          7           0        4.824187   -1.087551    0.124041
     27          8           0        4.623966   -2.297848    0.199737
     28          8           0        5.926792   -0.547577    0.181733
 ---------------------------------------------------------------------

 SCF Done:  E(RHF) =  -868.336499189     A.U. after   16 cycles
 E2 =    -0.2602056898D+01 EUMP2 =    -0.87093855608657D+03

 The electronic state is 1-A.
 Alpha  occ. eigenvalues --  -20.61646 -20.61639 -20.60984 -20.60975 -15.86707
 Alpha  occ. eigenvalues --  -15.86036 -11.32337 -11.31479 -11.28930 -11.28867
 Alpha  occ. eigenvalues --  -11.28751 -11.28063 -11.28044 -11.28005 -11.27931
 Alpha  occ. eigenvalues --  -11.27808 -11.27139 -11.27018  -1.60718  -1.60056
 Alpha  occ. eigenvalues --   -1.40262  -1.39607  -1.20547  -1.19656  -1.09916
 Alpha  occ. eigenvalues --   -1.09046  -1.05949  -1.05059  -0.96698  -0.95868
 Alpha  occ. eigenvalues --   -0.87342  -0.86456  -0.83491  -0.82696  -0.78475
 Alpha  occ. eigenvalues --   -0.77717  -0.72915  -0.72252  -0.72052  -0.71767
 Alpha  occ. eigenvalues --   -0.71381  -0.70739  -0.66175  -0.65922  -0.65307
 Alpha  occ. eigenvalues --   -0.65068  -0.63253  -0.62399  -0.56563  -0.55637
 Alpha  occ. eigenvalues --   -0.54238  -0.54011  -0.53397  -0.53114  -0.49695
 Alpha  occ. eigenvalues --   -0.49655  -0.49018  -0.49003  -0.45607  -0.44995
 Alpha  occ. eigenvalues --   -0.38587  -0.37725  -0.37477  -0.36653
 Alpha virt. eigenvalues --    0.03967   0.04821   0.09943   0.10999   0.15322
 Alpha virt. eigenvalues --    0.16331   0.19334   0.21782   0.25631   0.26500
 Alpha virt. eigenvalues --    0.26941   0.29187   0.29940   0.30859   0.32135

 Mulliken charges:
               1
     1  C   -0.178940
     2  C   -0.217173
     3  C   -0.171595
     4  C    0.157318
     5  C   -0.172509
     6  C   -0.224228
     7  H    0.225254
     8  H    0.229118
     9  H    0.280353
    10  H    0.279929
    11  H    0.225606
    12  N    0.487791
    13  O   -0.457327
    14  O   -0.456493
    15  C   -0.172118
    16  C   -0.219647
    17  C   -0.170836
    18  C    0.158891
    19  C   -0.171177
    20  C   -0.221819
    21  H    0.217316
    22  H    0.220861
    23  H    0.275939
    24  H    0.277933
    25  H    0.228573
    26  N    0.487876
    27  O   -0.458673
    28  O   -0.460223
 Sum of Mulliken charges =  -0.00000

 Dipole moment (field-independent basis, Debye):
    X=             -1.6635    Y=              7.2173    Z=              0.2778  Tot=              7.4117
 Quadrupole moment (field-independent basis, Debye-Ang):
   XX=           -153.3953   YY=           -105.0038   ZZ=           -100.3963
   XY=             -1.0505   XZ=             -5.0717   YZ=             -0.8141

 Normal termination of Gaussian 16 at Thu May  6 16:29:36 2021.
