 Gaussian 16, Revision A.03,
 Gaussian 16:  EM64L-G16RevA.03 25-Dec-2016

 -------------
 #p 6-31g* mp2
 -------------

 ------------------------------------------------------
 Input file generated by CHIRIPA (05-May-2021 14:57:22)
 ------------------------------------------------------
 Symbolic Z-matrix:
 Charge =  0 Multiplicity = 1

                         Standard orientation:
 ---------------------------------------------------------------------
 Center     Atomic      Atomic             Coordinates (Angstroms)
 Number     Number       Type             X           Y           Z
 ---------------------------------------------------------------------
      1          6           0        5.573701    0.630159   -0.045016
      2          6           0        5.251827   -0.574030    0.589687
      3          6           0        3.957852   -1.096761    0.506450
      4          6           0        3.006166   -0.385883   -0.223096
      5          6           0        3.296027    0.816308   -0.866529
      6          6           0        4.596496    1.320268   -0.769821
      7          1           0        6.581414    1.028938    0.024878
      8          1           0        6.008709   -1.112133    1.153265
      9          1           0        3.681465   -2.026861    0.988054
     10          1           0        2.520161    1.330004   -1.421116
     11          1           0        4.843616    2.255681   -1.263762
     12          7           0        1.632855   -0.929339   -0.318346
     13          8           0        0.812460   -0.283879   -0.967169
     14          8           0        1.402853   -1.990468    0.257623
     15          6           0       -4.980695   -1.335487   -0.596952
     16          6           0       -5.098415    0.024145   -0.903653
     17          6           0       -4.135742    0.937287   -0.463226
     18          6           0       -3.063496    0.454071    0.285158
     19          6           0       -2.918323   -0.894497    0.606994
     20          6           0       -3.892942   -1.789668    0.156066
     21          1           0       -5.733162   -2.037858   -0.943164
     22          1           0       -5.942114    0.379706   -1.488283
     23          1           0       -4.202273    1.995221   -0.686316
     24          1           0       -2.066065   -1.219015    1.191599
     25          1           0       -3.798939   -2.845014    0.395758
     26          7           0       -2.038033    1.411262    0.756977
     27          8           0       -1.102852    0.960284    1.414772
     28          8           0       -2.188874    2.594362    0.460061
 ---------------------------------------------------------------------

 SCF Done:  E(RHF) =  -868.339552193     A.U. after   16 cycles
 E2 =    -0.2599597270D+01 EUMP2 =    -0.87093914946300D+03

 The electronic state is 1-A.
 Alpha  occ. eigenvalues --  -20.60376 -20.60310 -20.59707 -20.59646 -15.85378
 Alpha  occ. eigenvalues --  -15.84725 -11.30677 -11.30007 -11.27278 -11.27214
 Alpha  occ. eigenvalues --  -11.27020 -11.26681 -11.26502 -11.26434 -11.26294
 Alpha  occ. eigenvalues --  -11.26250 -11.25707 -11.25591  -1.59383  -1.58731
 Alpha  occ. eigenvalues --   -1.38949  -1.38291  -1.18851  -1.18206  -1.08266
 Alpha  occ. eigenvalues --   -1.07634  -1.04256  -1.03612  -0.95116  -0.94477
 Alpha  occ. eigenvalues --   -0.85659  -0.85021  -0.81962  -0.81325  -0.76999
 Alpha  occ. eigenvalues --   -0.76352  -0.71658  -0.71040  -0.70652  -0.69991
 Alpha  occ. eigenvalues --   -0.69933  -0.69361  -0.64522  -0.64278  -0.63885
 Alpha  occ. eigenvalues --   -0.63649  -0.61608  -0.60957  -0.54787  -0.54180
 Alpha  occ. eigenvalues --   -0.52576  -0.52361  -0.51937  -0.51724  -0.48407
 Alpha  occ. eigenvalues --   -0.48377  -0.47737  -0.47695  -0.44529  -0.43532
 Alpha  occ. eigenvalues --   -0.36831  -0.36211  -0.35850  -0.35198
 Alpha virt. eigenvalues --    0.05547   0.06215   0.11807   0.12454   0.17038
 Alpha virt. eigenvalues --    0.17673   0.21880   0.22463   0.27789   0.28371
 Alpha virt. eigenvalues --    0.28777   0.29387   0.31406   0.31962   0.33038

 Mulliken charges:
               1
     1  C   -0.170661
     2  C   -0.218758
     3  C   -0.170503
     4  C    0.161364
     5  C   -0.167236
     6  C   -0.218705
     7  H    0.224087
     8  H    0.221456
     9  H    0.273335
    10  H    0.277891
    11  H    0.223066
    12  N    0.493335
    13  O   -0.458814
    14  O   -0.468967
    15  C   -0.171043
    16  C   -0.219649
    17  C   -0.171643
    18  C    0.160950
    19  C   -0.161385
    20  C   -0.219956
    21  H    0.221414
    22  H    0.218629
    23  H    0.271439
    24  H    0.283712
    25  H    0.222306
    26  N    0.491602
    27  O   -0.458619
    28  O   -0.468646
 Sum of Mulliken charges =  -0.00000

 Dipole moment (field-independent basis, Debye):
    X=              1.4346    Y=             -1.4789    Z=             -1.2988  Tot=              2.4356
 Quadrupole moment (field-independent basis, Debye-Ang):
   XX=            -54.8761   YY=           -104.5549   ZZ=           -104.8014
   XY=             10.0152   XZ=              6.0948   YZ=             -6.8922

 Normal termination of Gaussian 16 at Wed May  5 19:19:37 2021.
