 Gaussian 16, Revision A.03,
 Gaussian 16:  EM64L-G16RevA.03 25-Dec-2016

 -------------
 #p 6-31g* mp2
 -------------

 ------------------------------------------------------
 Input file generated by CHIRIPA (05-May-2021 14:53:13)
 ------------------------------------------------------
 Symbolic Z-matrix:
 Charge =  0 Multiplicity = 1

                         Standard orientation:
 ---------------------------------------------------------------------
 Center     Atomic      Atomic             Coordinates (Angstroms)
 Number     Number       Type             X           Y           Z
 ---------------------------------------------------------------------
      1          6           0       -2.930097    0.492739    0.165616
      2          6           0       -3.307629   -0.631482   -0.799570
      3          6           0       -4.317708   -1.610604   -0.200526
      4          1           0       -2.517709    0.055006    1.085002
      5          1           0       -3.839289    1.035853    0.458515
      6          1           0       -2.397821   -1.171444   -1.091641
      7          1           0       -3.718989   -0.191015   -1.716842
      8          1           0       -5.241307   -1.091087    0.074551
      9          1           0       -3.912634   -2.077087    0.703305
     10          1           0       -4.573530   -2.406079   -0.907375
     11          6           0       -1.921108    1.479673   -0.418875
     12          6           0       -1.543575    2.603893    0.546310
     13          6           0       -0.533496    3.583016   -0.052733
     14          1           0       -1.011915    0.936558   -0.711775
     15          1           0       -2.333495    1.917406   -1.338262
     16          1           0       -1.132216    2.163427    1.463583
     17          1           0       -2.453383    3.143856    0.838382
     18          1           0       -0.938571    4.049498   -0.956564
     19          1           0        0.390103    3.063498   -0.327811
     20          1           0       -0.277674    4.378490    0.654116
     21          6           0        3.854468    0.690915   -0.526180
     22          6           0        3.381050    0.680126    0.789982
     23          6           0        2.296036   -0.125696    1.147669
     24          6           0        1.705568   -0.911754    0.159363
     25          6           0        2.154214   -0.922833   -1.160442
     26          6           0        3.240621   -0.109188   -1.495482
     27          1           0        4.697874    1.319935   -0.795243
     28          1           0        3.855818    1.300471    1.544843
     29          1           0        1.909210   -0.153307    2.159115
     30          1           0        1.660356   -1.552044   -1.890931
     31          1           0        3.606153   -0.102829   -2.518414
     32          7           0        0.556174   -1.768983    0.526042
     33          8           0        0.053352   -2.452366   -0.363225
     34          8           0        0.179866   -1.741265    1.695769
 ---------------------------------------------------------------------

 SCF Done:  E(RHF) =  -669.536896194     A.U. after   15 cycles
 E2 =    -0.2093558903D+01 EUMP2 =    -0.67163045509708D+03

 The electronic state is 1-A.
 Alpha  occ. eigenvalues --  -20.61103 -20.61098 -15.86109 -11.31395 -11.27945
 Alpha  occ. eigenvalues --  -11.27939 -11.27667 -11.26940 -11.26924 -11.21285
 Alpha  occ. eigenvalues --  -11.20960 -11.20890 -11.20447 -11.20358 -11.19868
 Alpha  occ. eigenvalues --   -1.60147  -1.39705  -1.19552  -1.08963  -1.07734
 Alpha  occ. eigenvalues --   -1.04935  -1.02796  -0.95810  -0.95291  -0.86337
 Alpha  occ. eigenvalues --   -0.86310  -0.82643  -0.78936  -0.77707  -0.77462
 Alpha  occ. eigenvalues --   -0.72329  -0.71477  -0.70650  -0.65204  -0.64933
 Alpha  occ. eigenvalues --   -0.64341  -0.62280  -0.60178  -0.58722  -0.56875
 Alpha  occ. eigenvalues --   -0.55437  -0.54582  -0.53269  -0.53023  -0.52010
 Alpha  occ. eigenvalues --   -0.51708  -0.49260  -0.49100  -0.49063  -0.47238
 Alpha  occ. eigenvalues --   -0.46007  -0.45479  -0.45002  -0.44430  -0.43065
 Alpha  occ. eigenvalues --   -0.37507  -0.36525
 Alpha virt. eigenvalues --    0.04768   0.11097   0.16227   0.21219   0.23064
 Alpha virt. eigenvalues --    0.25067   0.26915   0.27127   0.28039   0.28342
 Alpha virt. eigenvalues --    0.28541   0.30987   0.31828   0.32172   0.32549

 Mulliken charges:
               1
     1  C   -0.303586
     2  C   -0.306574
     3  C   -0.475397
     4  H    0.161498
     5  H    0.145266
     6  H    0.169989
     7  H    0.143477
     8  H    0.148204
     9  H    0.164431
    10  H    0.157912
    11  C   -0.297957
    12  C   -0.298779
    13  C   -0.476487
    14  H    0.142881
    15  H    0.147604
    16  H    0.151578
    17  H    0.152182
    18  H    0.154496
    19  H    0.153045
    20  H    0.156965
    21  C   -0.170463
    22  C   -0.218337
    23  C   -0.171178
    24  C    0.158650
    25  C   -0.171513
    26  C   -0.218236
    27  H    0.226750
    28  H    0.224661
    29  H    0.276141
    30  H    0.276436
    31  H    0.224513
    32  N    0.489299
    33  O   -0.458334
    34  O   -0.459135
 Sum of Mulliken charges =  -0.00000

 Dipole moment (field-independent basis, Debye):
    X=              4.2638    Y=              2.7889    Z=             -1.2130  Tot=              5.2373
 Quadrupole moment (field-independent basis, Debye-Ang):
   XX=            -81.8952   YY=           -101.0184   ZZ=            -90.7122
   XY=              0.9867   XZ=             -1.1240   YZ=              3.4677

 Normal termination of Gaussian 16 at Thu May  6 12:03:24 2021.
