 Gaussian 16, Revision A.03,
 Gaussian 16:  EM64L-G16RevA.03 25-Dec-2016

 -------------
 #p 6-31g* mp2
 -------------

 ------------------------------------------------------
 Input file generated by CHIRIPA (05-May-2021 14:51:09)
 ------------------------------------------------------
 Symbolic Z-matrix:
 Charge =  0 Multiplicity = 1

                         Standard orientation:
 ---------------------------------------------------------------------
 Center     Atomic      Atomic             Coordinates (Angstroms)
 Number     Number       Type             X           Y           Z
 ---------------------------------------------------------------------
      1          6           0        4.302843   -0.009371   -0.424101
      2          6           0        4.506799   -1.449793    0.046612
      3          6           0        5.829432   -2.047261   -0.434499
      4          1           0        4.342448    0.020086   -1.521602
      5          1           0        5.137545    0.608180   -0.064521
      6          1           0        3.671246   -2.064162   -0.312581
      7          1           0        4.466513   -1.475853    1.143113
      8          1           0        6.675217   -1.458828   -0.064369
      9          1           0        5.875432   -2.050479   -1.528334
     10          1           0        5.954734   -3.077383   -0.086637
     11          6           0        2.985033    0.601687    0.048883
     12          6           0        2.781078    2.042109   -0.421830
     13          6           0        1.458444    2.639577    0.059281
     14          1           0        2.150331   -0.015864   -0.310698
     15          1           0        2.945429    0.572231    1.146384
     16          1           0        2.821364    2.068169   -1.518331
     17          1           0        3.616630    2.656478   -0.062637
     18          1           0        1.412445    2.642796    1.153116
     19          1           0        0.612660    2.051144   -0.310849
     20          1           0        1.333142    3.669699   -0.288581
     21          6           0       -4.239755    0.011929   -0.177789
     22          6           0       -5.465705   -0.901068   -0.216103
     23          6           0       -6.649452   -0.270780   -0.950454
     24          1           0       -4.511299    0.959670    0.306974
     25          1           0       -3.944056    0.260488   -1.206465
     26          1           0       -5.758167   -1.148950    0.812311
     27          1           0       -5.191161   -1.846820   -0.700660
     28          1           0       -6.381093   -0.039067   -1.986259
     29          1           0       -6.951320    0.662767   -0.464691
     30          1           0       -7.514982   -0.940467   -0.965924
     31          6           0       -3.048121   -0.604246    0.553008
     32          6           0       -1.822172    0.308752    0.591321
     33          6           0       -0.638423   -0.321536    1.325671
     34          1           0       -3.343820   -0.852804    1.581684
     35          1           0       -2.776577   -1.551987    0.068244
     36          1           0       -2.096716    1.254504    1.075878
     37          1           0       -1.529709    0.556635   -0.437093
     38          1           0       -0.336556   -1.255084    0.839910
     39          1           0       -0.906783   -0.553248    2.361477
     40          1           0        0.227105    0.348150    1.341143
 ---------------------------------------------------------------------

 SCF Done:  E(RHF) =  -470.731620956     A.U. after   11 cycles
 E2 =    -0.1584374934D+01 EUMP2 =    -0.47231599588953D+03

 The electronic state is 1-A.
 Alpha  occ. eigenvalues --  -11.21604 -11.21585 -11.21584 -11.21559 -11.21384
 Alpha  occ. eigenvalues --  -11.21377 -11.21322 -11.21317 -11.21060 -11.21058
 Alpha  occ. eigenvalues --  -11.21045 -11.20849  -1.08450  -1.08379  -1.03591
 Alpha  occ. eigenvalues --   -1.03434  -0.96017  -0.95895  -0.87005  -0.86947
 Alpha  occ. eigenvalues --   -0.79617  -0.79547  -0.78248  -0.78216  -0.65108
 Alpha  occ. eigenvalues --   -0.64988  -0.61025  -0.60810  -0.59698  -0.59064
 Alpha  occ. eigenvalues --   -0.57828  -0.57294  -0.55263  -0.55213  -0.52762
 Alpha  occ. eigenvalues --   -0.52583  -0.52529  -0.52209  -0.49976  -0.49824
 Alpha  occ. eigenvalues --   -0.47973  -0.47741  -0.46657  -0.46557  -0.45779
 Alpha  occ. eigenvalues --   -0.45751  -0.45678  -0.45631  -0.43785  -0.43650
 Alpha virt. eigenvalues --    0.21659   0.23146   0.23454   0.25019   0.25924
 Alpha virt. eigenvalues --    0.26685   0.26758   0.27078   0.28058   0.29523
 Alpha virt. eigenvalues --    0.29897   0.31424   0.31607   0.31643   0.32258

 Mulliken charges:
               1
     1  C   -0.297903
     2  C   -0.299494
     3  C   -0.475720
     4  H    0.149397
     5  H    0.149368
     6  H    0.151811
     7  H    0.152206
     8  H    0.155161
     9  H    0.155046
    10  H    0.160254
    11  C   -0.303106
    12  C   -0.298146
    13  C   -0.484611
    14  H    0.154150
    15  H    0.149632
    16  H    0.151645
    17  H    0.151748
    18  H    0.154786
    19  H    0.163840
    20  H    0.160881
    21  C   -0.298231
    22  C   -0.299606
    23  C   -0.475670
    24  H    0.149713
    25  H    0.149235
    26  H    0.151935
    27  H    0.151821
    28  H    0.155096
    29  H    0.155194
    30  H    0.160183
    31  C   -0.298135
    32  C   -0.300770
    33  C   -0.485310
    34  H    0.149696
    35  H    0.149368
    36  H    0.152731
    37  H    0.150333
    38  H    0.153197
    39  H    0.153885
    40  H    0.174390
 Sum of Mulliken charges =  -0.00000

 Dipole moment (field-independent basis, Debye):
    X=              0.0239    Y=              0.0216    Z=              0.0016  Tot=              0.0323
 Quadrupole moment (field-independent basis, Debye-Ang):
   XX=            -86.3466   YY=            -85.0004   ZZ=            -83.6136
   XY=              0.7888   XZ=             -0.1033   YZ=              0.7002

 Normal termination of Gaussian 16 at Thu May  6 05:18:39 2021.
