 Gaussian 16, Revision A.03,
 Gaussian 16:  EM64L-G16RevA.03 25-Dec-2016

 -------------
 #p 6-31g* mp2
 -------------

 ------------------------------------------------------
 Input file generated by CHIRIPA (05-May-2021 14:57:25)
 ------------------------------------------------------
 Symbolic Z-matrix:
 Charge =  0 Multiplicity = 1

                         Standard orientation:
 ---------------------------------------------------------------------
 Center     Atomic      Atomic             Coordinates (Angstroms)
 Number     Number       Type             X           Y           Z
 ---------------------------------------------------------------------
      1          6           0        2.448116    2.142506    0.908544
      2          6           0        1.958532    1.559676   -0.264970
      3          6           0        2.569485    0.422271   -0.801250
      4          6           0        3.673029   -0.108446   -0.135052
      5          6           0        4.184259    0.449298    1.035783
      6          6           0        3.557462    1.586437    1.554038
      7          1           0        1.967359    3.025966    1.318138
      8          1           0        1.097159    1.989370   -0.768403
      9          1           0        2.211151   -0.049181   -1.708304
     10          1           0        5.044598   -0.001758    1.515140
     11          1           0        3.939848    2.036948    2.465556
     12          7           0        4.328204   -1.312425   -0.693246
     13          8           0        5.299009   -1.760811   -0.087338
     14          8           0        3.858520   -1.784920   -1.726098
     15          6           0       -3.129694    2.249447   -0.795666
     16          6           0       -4.317830    1.593938   -1.135022
     17          6           0       -4.569629    0.297629   -0.675967
     18          6           0       -3.607136   -0.316151    0.124140
     19          6           0       -2.413774    0.310679    0.479469
     20          6           0       -2.183127    1.606859    0.009078
     21          1           0       -2.942307    3.256401   -1.156673
     22          1           0       -5.054740    2.090534   -1.759841
     23          1           0       -5.480978   -0.233024   -0.923491
     24          1           0       -1.698095   -0.210126    1.103956
     25          1           0       -1.259519    2.113507    0.274219
     26          7           0       -3.862508   -1.688427    0.616121
     27          8           0       -2.998585   -2.207409    1.319634
     28          8           0       -4.921756   -2.219050    0.288906
 ---------------------------------------------------------------------

 SCF Done:  E(RHF) =  -868.336578193     A.U. after   16 cycles
 E2 =    -0.2599941442D+01 EUMP2 =    -0.87093651963512D+03

 The electronic state is 1-A.
 Alpha  occ. eigenvalues --  -20.61083 -20.61078 -20.61042 -20.61037 -15.86145
 Alpha  occ. eigenvalues --  -15.86104 -11.31666 -11.31647 -11.28299 -11.28275
 Alpha  occ. eigenvalues --  -11.28252 -11.28225 -11.28107 -11.28098 -11.27420
 Alpha  occ. eigenvalues --  -11.27401 -11.27282 -11.27276  -1.60156  -1.60113
 Alpha  occ. eigenvalues --   -1.39705  -1.39662  -1.19880  -1.19858  -1.09257
 Alpha  occ. eigenvalues --   -1.09232  -1.05330  -1.05273  -0.96049  -0.96031
 Alpha  occ. eigenvalues --   -0.86766  -0.86645  -0.82900  -0.82840  -0.77938
 Alpha  occ. eigenvalues --   -0.77821  -0.72359  -0.72320  -0.71482  -0.71437
 Alpha  occ. eigenvalues --   -0.70995  -0.70985  -0.65600  -0.65535  -0.65505
 Alpha  occ. eigenvalues --   -0.65116  -0.62778  -0.62492  -0.55854  -0.55806
 Alpha  occ. eigenvalues --   -0.53685  -0.53600  -0.53528  -0.53222  -0.49137
 Alpha  occ. eigenvalues --   -0.49103  -0.49090  -0.49061  -0.45075  -0.45027
 Alpha  occ. eigenvalues --   -0.37895  -0.37864  -0.36990  -0.36815
 Alpha virt. eigenvalues --    0.04630   0.04711   0.10536   0.10751   0.15980
 Alpha virt. eigenvalues --    0.16191   0.19030   0.21850   0.25222   0.27394
 Alpha virt. eigenvalues --    0.27772   0.28448   0.30274   0.30885   0.31764

 Mulliken charges:
               1
     1  C   -0.172669
     2  C   -0.223708
     3  C   -0.169574
     4  C    0.159486
     5  C   -0.169259
     6  C   -0.217857
     7  H    0.222556
     8  H    0.218025
     9  H    0.278401
    10  H    0.278218
    11  H    0.225512
    12  N    0.488158
    13  O   -0.458463
    14  O   -0.458254
    15  C   -0.171026
    16  C   -0.218367
    17  C   -0.169409
    18  C    0.159046
    19  C   -0.170499
    20  C   -0.222484
    21  H    0.224514
    22  H    0.225306
    23  H    0.277887
    24  H    0.278418
    25  H    0.215051
    26  N    0.488060
    27  O   -0.458295
    28  O   -0.458774
 Sum of Mulliken charges =  -0.00000

 Dipole moment (field-independent basis, Debye):
    X=             -1.3723    Y=              8.8505    Z=              0.2397  Tot=              8.9594
 Quadrupole moment (field-independent basis, Debye-Ang):
   XX=           -121.1665   YY=           -110.4497   ZZ=           -102.6813
   XY=             -1.8997   XZ=             19.4756   YZ=              0.4361

 Normal termination of Gaussian 16 at Thu May  6 00:22:29 2021.
