 Gaussian 16, Revision A.03,
 Gaussian 16:  EM64L-G16RevA.03 25-Dec-2016

 -------------
 #p 6-31g* mp2
 -------------

 ------------------------------------------------------
 Input file generated by CHIRIPA (05-May-2021 14:57:26)
 ------------------------------------------------------
 Symbolic Z-matrix:
 Charge =  0 Multiplicity = 1

                         Standard orientation:
 ---------------------------------------------------------------------
 Center     Atomic      Atomic             Coordinates (Angstroms)
 Number     Number       Type             X           Y           Z
 ---------------------------------------------------------------------
      1          6           0        3.647674   -2.417538    0.022439
      2          6           0        4.289117   -1.666234   -0.967820
      3          6           0        4.066125   -0.289941   -1.070979
      4          6           0        3.191472    0.305272   -0.163238
      5          6           0        2.537418   -0.416147    0.834288
      6          6           0        2.775409   -1.791201    0.918753
      7          1           0        3.826725   -3.486194    0.095315
      8          1           0        4.967047   -2.149989   -1.665270
      9          1           0        4.549502    0.315627   -1.827981
     10          1           0        1.867076    0.094174    1.515194
     11          1           0        2.275872   -2.372165    1.688810
     12          7           0        2.947461    1.761636   -0.262553
     13          8           0        2.172287    2.262304    0.549281
     14          8           0        3.535999    2.374888   -1.150348
     15          6           0       -5.329932   -0.317007   -1.231502
     16          6           0       -4.963246    0.939318   -0.737829
     17          6           0       -3.802776    1.090572    0.027009
     18          6           0       -3.028837   -0.040906    0.280126
     19          6           0       -3.367608   -1.305894   -0.197714
     20          6           0       -4.532349   -1.433633   -0.960347
     21          1           0       -6.233073   -0.425371   -1.824790
     22          1           0       -5.580745    1.808258   -0.946835
     23          1           0       -3.495457    2.051456    0.421564
     24          1           0       -2.731868   -2.153625    0.027242
     25          1           0       -4.814665   -2.410540   -1.342443
     26          7           0       -1.798038    0.106773    1.088659
     27          8           0       -1.133242   -0.905655    1.297634
     28          8           0       -1.521441    1.232156    1.498102
 ---------------------------------------------------------------------

 SCF Done:  E(RHF) =  -868.339228291     A.U. after   16 cycles
 E2 =    -0.2599529627D+01 EUMP2 =    -0.87093875791861D+03

 The electronic state is 1-A.
 Alpha  occ. eigenvalues --  -20.61058 -20.60964 -20.59694 -20.59628 -15.86016
 Alpha  occ. eigenvalues --  -15.84708 -11.31275 -11.30007 -11.27865 -11.27790
 Alpha  occ. eigenvalues --  -11.27563 -11.26846 -11.26796 -11.26705 -11.26431
 Alpha  occ. eigenvalues --  -11.26391 -11.25733 -11.25509  -1.60061  -1.58750
 Alpha  occ. eigenvalues --   -1.39615  -1.38295  -1.19437  -1.18211  -1.08857
 Alpha  occ. eigenvalues --   -1.07646  -1.04824  -1.03577  -0.95710  -0.94468
 Alpha  occ. eigenvalues --   -0.86228  -0.84999  -0.82546  -0.81278  -0.77605
 Alpha  occ. eigenvalues --   -0.76309  -0.72245  -0.71361  -0.70922  -0.70549
 Alpha  occ. eigenvalues --   -0.70080  -0.69335  -0.65094  -0.64831  -0.63859
 Alpha  occ. eigenvalues --   -0.63591  -0.62171  -0.60892  -0.55338  -0.54164
 Alpha  occ. eigenvalues --   -0.53158  -0.52917  -0.51963  -0.51666  -0.49036
 Alpha  occ. eigenvalues --   -0.48977  -0.47711  -0.47665  -0.45032  -0.43711
 Alpha  occ. eigenvalues --   -0.37414  -0.36420  -0.36264  -0.35165
 Alpha virt. eigenvalues --    0.04910   0.06198   0.11237   0.12456   0.16434
 Alpha virt. eigenvalues --    0.17656   0.21365   0.22554   0.27286   0.28202
 Alpha virt. eigenvalues --    0.28553   0.29504   0.30942   0.32004   0.32511

 Mulliken charges:
               1
     1  C   -0.172650
     2  C   -0.220238
     3  C   -0.172885
     4  C    0.153775
     5  C   -0.167860
     6  C   -0.219178
     7  H    0.220535
     8  H    0.217986
     9  H    0.271245
    10  H    0.292945
    11  H    0.227246
    12  N    0.486636
    13  O   -0.452562
    14  O   -0.468187
    15  C   -0.170341
    16  C   -0.218616
    17  C   -0.169656
    18  C    0.158832
    19  C   -0.170772
    20  C   -0.218605
    21  H    0.226015
    22  H    0.224944
    23  H    0.279264
    24  H    0.272860
    25  H    0.222767
    26  N    0.489038
    27  O   -0.473169
    28  O   -0.449368
 Sum of Mulliken charges =  -0.00000

 Dipole moment (field-independent basis, Debye):
    X=             -3.9328    Y=             -5.4381    Z=             -2.2590  Tot=              7.0812
 Quadrupole moment (field-independent basis, Debye-Ang):
   XX=            -73.2932   YY=           -104.0248   ZZ=           -104.6178
   XY=            -15.4884   XZ=              6.4810   YZ=              1.4012

 Normal termination of Gaussian 16 at Fri May  7 03:31:52 2021.
