 Gaussian 16, Revision A.03,
 Gaussian 16:  EM64L-G16RevA.03 25-Dec-2016

 -------------
 #p 6-31g* mp2
 -------------

 ------------------------------------------------------
 Input file generated by CHIRIPA (05-May-2021 14:53:11)
 ------------------------------------------------------
 Symbolic Z-matrix:
 Charge =  0 Multiplicity = 1

                         Standard orientation:
 ---------------------------------------------------------------------
 Center     Atomic      Atomic             Coordinates (Angstroms)
 Number     Number       Type             X           Y           Z
 ---------------------------------------------------------------------
      1          6           0        4.208746    0.182510    0.129398
      2          6           0        5.679685    0.334301   -0.259554
      3          6           0        6.192348    1.764357   -0.086607
      4          1           0        3.602516    0.867039   -0.479577
      5          1           0        4.078872    0.495685    1.174601
      6          1           0        5.806992    0.019624   -1.303291
      7          1           0        6.282463   -0.350807    0.350283
      8          1           0        6.094265    2.085380    0.955470
      9          1           0        5.616092    2.457915   -0.707500
     10          1           0        7.245913    1.850212   -0.370318
     11          6           0        3.681674   -1.241527   -0.038058
     12          6           0        2.210735   -1.393319    0.350894
     13          6           0        1.698072   -2.823375    0.177947
     14          1           0        3.811548   -1.554702   -1.083261
     15          1           0        4.287904   -1.926056    0.570917
     16          1           0        1.607958   -0.708210   -0.258943
     17          1           0        2.083428   -1.078641    1.394631
     18          1           0        2.274328   -3.516933    0.798840
     19          1           0        1.796155   -3.144397   -0.864130
     20          1           0        0.644507   -2.909229    0.461658
     21          6           0       -1.620189    2.468090    0.052963
     22          6           0       -3.009416    2.592487    0.158306
     23          6           0       -3.829238    1.461049    0.110478
     24          6           0       -3.223537    0.215065   -0.044249
     25          6           0       -1.842527    0.058546   -0.151969
     26          6           0       -1.042199    1.203745   -0.101566
     27          1           0       -0.990903    3.352363    0.091118
     28          1           0       -3.461051    3.573126    0.278386
     29          1           0       -4.907475    1.528607    0.189592
     30          1           0       -1.421390   -0.932368   -0.270924
     31          1           0        0.036405    1.104123   -0.183632
     32          7           0       -4.081127   -0.990021   -0.096246
     33          8           0       -3.522956   -2.076450   -0.233192
     34          8           0       -5.295240   -0.825321    0.000929
 ---------------------------------------------------------------------

 SCF Done:  E(RHF) =  -669.535499674     A.U. after   15 cycles
 E2 =    -0.2091593430D+01 EUMP2 =    -0.67162709310415D+03

 The electronic state is 1-A.
 Alpha  occ. eigenvalues --  -20.60725 -20.60720 -15.85777 -11.31127 -11.27696
 Alpha  occ. eigenvalues --  -11.27676 -11.27429 -11.26713 -11.26658 -11.22465
 Alpha  occ. eigenvalues --  -11.22164 -11.22093 -11.22027 -11.21600 -11.21590
 Alpha  occ. eigenvalues --   -1.59801  -1.39355  -1.19295  -1.09112  -1.08694
 Alpha  occ. eigenvalues --   -1.04698  -1.04166  -0.96580  -0.95532  -0.87591
 Alpha  occ. eigenvalues --   -0.86095  -0.82372  -0.80253  -0.78949  -0.77409
 Alpha  occ. eigenvalues --   -0.71996  -0.71123  -0.70409  -0.65755  -0.64947
 Alpha  occ. eigenvalues --   -0.64700  -0.62136  -0.61502  -0.59935  -0.58202
 Alpha  occ. eigenvalues --   -0.55851  -0.55197  -0.53258  -0.53059  -0.53026
 Alpha  occ. eigenvalues --   -0.52754  -0.50508  -0.48761  -0.48752  -0.48533
 Alpha  occ. eigenvalues --   -0.47284  -0.46469  -0.46382  -0.44764  -0.44418
 Alpha  occ. eigenvalues --   -0.37280  -0.36296
 Alpha virt. eigenvalues --    0.05113   0.11351   0.16607   0.19262   0.22592
 Alpha virt. eigenvalues --    0.23377   0.24589   0.25959   0.26374   0.28581
 Alpha virt. eigenvalues --    0.29084   0.30051   0.31118   0.31502   0.32554

 Mulliken charges:
               1
     1  C   -0.298520
     2  C   -0.300062
     3  C   -0.476046
     4  H    0.143682
     5  H    0.149980
     6  H    0.153532
     7  H    0.154282
     8  H    0.155444
     9  H    0.153873
    10  H    0.162538
    11  C   -0.297907
    12  C   -0.306249
    13  C   -0.479492
    14  H    0.152062
    15  H    0.153720
    16  H    0.142750
    17  H    0.154616
    18  H    0.159949
    19  H    0.158637
    20  H    0.165411
    21  C   -0.171216
    22  C   -0.218644
    23  C   -0.170900
    24  C    0.158629
    25  C   -0.175704
    26  C   -0.223979
    27  H    0.225712
    28  H    0.223110
    29  H    0.275325
    30  H    0.278889
    31  H    0.230055
    32  N    0.487913
    33  O   -0.460771
    34  O   -0.460614
 Sum of Mulliken charges =  -0.00000

 Dipole moment (field-independent basis, Debye):
    X=              3.2238    Y=              4.1168    Z=              0.2191  Tot=              5.2334
 Quadrupole moment (field-independent basis, Debye-Ang):
   XX=           -110.6258   YY=            -92.1743   ZZ=            -94.6711
   XY=            -16.7101   XZ=             -0.9445   YZ=             -0.1101

 Normal termination of Gaussian 16 at Thu May  6 07:14:53 2021.
