 Gaussian 16, Revision A.03,
 Gaussian 16:  EM64L-G16RevA.03 25-Dec-2016

 -------------
 #p 6-31g* mp2
 -------------

 ------------------------------------------------------
 Input file generated by CHIRIPA (05-May-2021 14:55:23)
 ------------------------------------------------------
 Symbolic Z-matrix:
 Charge =  0 Multiplicity = 1

                         Standard orientation:
 ---------------------------------------------------------------------
 Center     Atomic      Atomic             Coordinates (Angstroms)
 Number     Number       Type             X           Y           Z
 ---------------------------------------------------------------------
      1          6           0        5.099573    1.096743    0.868982
      2          6           0        3.921564    1.022956    1.619563
      3          6           0        2.786639    0.393554    1.099617
      4          6           0        2.865283   -0.153762   -0.180051
      5          6           0        4.024332   -0.096389   -0.952453
      6          6           0        5.147113    0.537821   -0.412371
      7          1           0        5.976494    1.587546    1.280710
      8          1           0        3.881751    1.456139    2.614959
      9          1           0        1.861755    0.322187    1.659004
     10          1           0        4.033536   -0.537516   -1.941765
     11          1           0        6.060617    0.593632   -0.997556
     12          7           0        1.670216   -0.822627   -0.741153
     13          8           0        1.765237   -1.296954   -1.871030
     14          8           0        0.661130   -0.859891   -0.040443
     15          6           0       -4.098480   -0.609604    0.441966
     16          6           0       -3.062248   -1.706570    0.195248
     17          6           0       -3.434009   -3.031594    0.861507
     18          1           0       -4.212317   -0.458270    1.524134
     19          1           0       -5.075416   -0.947173    0.069088
     20          1           0       -2.087270   -1.366479    0.567230
     21          1           0       -2.950725   -1.855177   -0.886462
     22          1           0       -4.394211   -3.396956    0.483189
     23          1           0       -3.525849   -2.905481    1.945141
     24          1           0       -2.679635   -3.801648    0.672303
     25          6           0       -3.740865    0.721028   -0.217775
     26          6           0       -4.777097    1.817996    0.028943
     27          6           0       -4.405336    3.143019   -0.637316
     28          1           0       -2.763929    1.058597    0.155103
     29          1           0       -3.627028    0.569694   -1.299942
     30          1           0       -4.888620    1.966601    1.110653
     31          1           0       -5.752074    1.477903   -0.343039
     32          1           0       -4.313496    3.016905   -1.720949
     33          1           0       -3.445134    3.508380   -0.258998
     34          1           0       -5.159710    3.913072   -0.448112
 ---------------------------------------------------------------------

 SCF Done:  E(RHF) =  -669.535900713     A.U. after   15 cycles
 E2 =    -0.2090905111D+01 EUMP2 =    -0.67162680582404D+03

 The electronic state is 1-A.
 Alpha  occ. eigenvalues --  -20.60926 -20.60919 -15.85972 -11.31299 -11.27867
 Alpha  occ. eigenvalues --  -11.27859 -11.27601 -11.26873 -11.26863 -11.20890
 Alpha  occ. eigenvalues --  -11.20510 -11.20404 -11.20286 -11.20019 -11.19885
 Alpha  occ. eigenvalues --   -1.59990  -1.39547  -1.19468  -1.08870  -1.07397
 Alpha  occ. eigenvalues --   -1.04867  -1.02508  -0.95711  -0.95020  -0.86266
 Alpha  occ. eigenvalues --   -0.86044  -0.82549  -0.78579  -0.77603  -0.77124
 Alpha  occ. eigenvalues --   -0.72194  -0.71307  -0.70577  -0.65126  -0.64870
 Alpha  occ. eigenvalues --   -0.64038  -0.62215  -0.59913  -0.58396  -0.56586
 Alpha  occ. eigenvalues --   -0.55369  -0.54335  -0.53197  -0.52959  -0.51733
 Alpha  occ. eigenvalues --   -0.51433  -0.49042  -0.48945  -0.48921  -0.46874
 Alpha  occ. eigenvalues --   -0.45608  -0.44969  -0.44690  -0.44534  -0.42767
 Alpha  occ. eigenvalues --   -0.37447  -0.36468
 Alpha virt. eigenvalues --    0.04936   0.11187   0.16434   0.21301   0.23805
 Alpha virt. eigenvalues --    0.25270   0.27225   0.27561   0.28090   0.28677
 Alpha virt. eigenvalues --    0.28952   0.30889   0.32226   0.32445   0.32807

 Mulliken charges:
               1
     1  C   -0.170636
     2  C   -0.218476
     3  C   -0.170700
     4  C    0.157465
     5  C   -0.170464
     6  C   -0.218558
     7  H    0.226010
     8  H    0.223774
     9  H    0.275065
    10  H    0.275921
    11  H    0.223846
    12  N    0.494606
    13  O   -0.458995
    14  O   -0.466054
    15  C   -0.298185
    16  C   -0.305816
    17  C   -0.475486
    18  H    0.144186
    19  H    0.144893
    20  H    0.175631
    21  H    0.154080
    22  H    0.149694
    23  H    0.149200
    24  H    0.161735
    25  C   -0.297152
    26  C   -0.298860
    27  C   -0.474699
    28  H    0.152007
    29  H    0.151012
    30  H    0.148967
    31  H    0.150322
    32  H    0.155318
    33  H    0.153157
    34  H    0.157193
 Sum of Mulliken charges =  -0.00000

 Dipole moment (field-independent basis, Debye):
    X=              4.5565    Y=              2.3224    Z=              1.9041  Tot=              5.4572
 Quadrupole moment (field-independent basis, Debye-Ang):
   XX=            -70.9347   YY=            -97.6158   ZZ=            -91.6967
   XY=              5.7266   XZ=              3.3248   YZ=              1.1719

 Normal termination of Gaussian 16 at Wed May  5 20:44:28 2021.
