 Gaussian 16, Revision A.03,
 Gaussian 16:  EM64L-G16RevA.03 25-Dec-2016

 -------------
 #p 6-31g* mp2
 -------------

 ------------------------------------------------------
 Input file generated by CHIRIPA (05-May-2021 14:55:22)
 ------------------------------------------------------
 Symbolic Z-matrix:
 Charge =  0 Multiplicity = 1

                         Standard orientation:
 ---------------------------------------------------------------------
 Center     Atomic      Atomic             Coordinates (Angstroms)
 Number     Number       Type             X           Y           Z
 ---------------------------------------------------------------------
      1          6           0       -3.745648    2.250892    0.481662
      2          6           0       -4.630726    1.253199    0.060038
      3          6           0       -4.149832    0.012912   -0.370050
      4          6           0       -2.771644   -0.196531   -0.365527
      5          6           0       -1.864441    0.777493    0.048660
      6          6           0       -2.367759    2.010279    0.474640
      7          1           0       -4.127928    3.211463    0.814170
      8          1           0       -5.701309    1.437261    0.064427
      9          1           0       -4.812638   -0.777117   -0.701653
     10          1           0       -0.802459    0.564495    0.033058
     11          1           0       -1.678049    2.783250    0.801534
     12          7           0       -2.250673   -1.505596   -0.818668
     13          8           0       -1.032074   -1.665196   -0.805204
     14          8           0       -3.070800   -2.347255   -1.178723
     15          6           0        3.461948   -0.517214    0.922263
     16          6           0        2.063818   -0.268966    1.489354
     17          6           0        1.686795   -1.262512    2.588679
     18          1           0        3.513877   -1.540884    0.526856
     19          1           0        4.196315   -0.459443    1.737593
     20          1           0        1.332456   -0.325820    0.672963
     21          1           0        2.015152    0.754296    1.883284
     22          1           0        2.393966   -1.201432    3.422213
     23          1           0        1.707391   -2.287685    2.205015
     24          1           0        0.683549   -1.066770    2.979888
     25          6           0        3.853268    0.468013   -0.177703
     26          6           0        5.251397    0.219765   -0.744793
     27          6           0        5.628421    1.213311   -1.844118
     28          1           0        3.118901    0.410241   -0.993033
     29          1           0        3.801338    1.491684    0.217704
     30          1           0        5.300063   -0.803497   -1.138724
     31          1           0        5.982760    0.276618    0.071597
     32          1           0        5.607824    2.238483   -1.460455
     33          1           0        4.921250    1.152231   -2.677653
     34          1           0        6.631666    1.017569   -2.235327
 ---------------------------------------------------------------------

 SCF Done:  E(RHF) =  -669.535915708     A.U. after   15 cycles
 E2 =    -0.2091644531D+01 EUMP2 =    -0.67162756023894D+03

 The electronic state is 1-A.
 Alpha  occ. eigenvalues --  -20.60843 -20.60838 -15.85886 -11.31201 -11.27774
 Alpha  occ. eigenvalues --  -11.27738 -11.27513 -11.26784 -11.26765 -11.21460
 Alpha  occ. eigenvalues --  -11.21429 -11.21231 -11.21138 -11.20940 -11.20779
 Alpha  occ. eigenvalues --   -1.59911  -1.39467  -1.19375  -1.08781  -1.08244
 Alpha  occ. eigenvalues --   -1.04771  -1.03343  -0.95777  -0.95621  -0.86794
 Alpha  occ. eigenvalues --   -0.86175  -0.82455  -0.79441  -0.78102  -0.77490
 Alpha  occ. eigenvalues --   -0.72111  -0.71227  -0.70490  -0.65037  -0.64901
 Alpha  occ. eigenvalues --   -0.64730  -0.62144  -0.60703  -0.59159  -0.57408
 Alpha  occ. eigenvalues --   -0.55283  -0.55036  -0.53105  -0.52876  -0.52479
 Alpha  occ. eigenvalues --   -0.52210  -0.49700  -0.48877  -0.48858  -0.47737
 Alpha  occ. eigenvalues --   -0.46428  -0.45616  -0.45510  -0.44873  -0.43599
 Alpha  occ. eigenvalues --   -0.37359  -0.36371
 Alpha virt. eigenvalues --    0.05014   0.11264   0.16519   0.20794   0.23122
 Alpha virt. eigenvalues --    0.24216   0.25753   0.27003   0.27768   0.28180
 Alpha virt. eigenvalues --    0.29228   0.30479   0.31561   0.31832   0.32116

 Mulliken charges:
               1
     1  C   -0.170301
     2  C   -0.219092
     3  C   -0.169954
     4  C    0.155142
     5  C   -0.174520
     6  C   -0.222756
     7  H    0.225687
     8  H    0.223459
     9  H    0.275561
    10  H    0.288206
    11  H    0.224492
    12  N    0.488604
    13  O   -0.464758
    14  O   -0.459606
    15  C   -0.296520
    16  C   -0.314011
    17  C   -0.473470
    18  H    0.155903
    19  H    0.148164
    20  H    0.166219
    21  H    0.142874
    22  H    0.152614
    23  H    0.163864
    24  H    0.156929
    25  C   -0.299368
    26  C   -0.299678
    27  C   -0.475821
    28  H    0.151756
    29  H    0.145148
    30  H    0.154624
    31  H    0.151148
    32  H    0.153156
    33  H    0.156021
    34  H    0.160283
 Sum of Mulliken charges =  -0.00000

 Dipole moment (field-independent basis, Debye):
    X=             -1.8608    Y=              4.4717    Z=              1.5392  Tot=              5.0821
 Quadrupole moment (field-independent basis, Debye-Ang):
   XX=            -80.2767   YY=            -96.5651   ZZ=            -97.0155
   XY=            -11.4030   XZ=             -2.4281   YZ=             -0.7783

 Normal termination of Gaussian 16 at Wed May  5 15:58:56 2021.
