 Gaussian 16, Revision A.03,
 Gaussian 16:  EM64L-G16RevA.03 25-Dec-2016

 -------------
 #p 6-31g* mp2
 -------------

 ------------------------------------------------------
 Input file generated by CHIRIPA (05-May-2021 14:55:20)
 ------------------------------------------------------
 Symbolic Z-matrix:
 Charge =  0 Multiplicity = 1

                         Standard orientation:
 ---------------------------------------------------------------------
 Center     Atomic      Atomic             Coordinates (Angstroms)
 Number     Number       Type             X           Y           Z
 ---------------------------------------------------------------------
      1          6           0        2.837782    1.938452    1.305913
      2          6           0        3.629591    0.841818    1.662217
      3          6           0        3.524450   -0.365943    0.965936
      4          6           0        2.613038   -0.442320   -0.086102
      5          6           0        1.810301    0.632540   -0.465022
      6          6           0        1.932261    1.830503    0.245300
      7          1           0        2.925991    2.872864    1.852254
      8          1           0        4.333683    0.922769    2.485471
      9          1           0        4.125232   -1.230577    1.220664
     10          1           0        1.117412    0.521462   -1.290240
     11          1           0        1.316052    2.680523   -0.033624
     12          7           0        2.492827   -1.715736   -0.830655
     13          8           0        1.682285   -1.757374   -1.753654
     14          8           0        3.211424   -2.648090   -0.477141
     15          6           0       -3.504852   -0.452615    0.003558
     16          6           0       -4.622720   -0.803111    0.986160
     17          6           0       -4.880660   -2.307501    1.075995
     18          1           0       -3.763913   -0.841673   -0.990659
     19          1           0       -2.582823   -0.966029    0.309604
     20          1           0       -5.542016   -0.288089    0.679139
     21          1           0       -4.361056   -0.413007    1.978112
     22          1           0       -3.978759   -2.834058    1.404496
     23          1           0       -5.166429   -2.708431    0.098143
     24          1           0       -5.683523   -2.535596    1.783982
     25          6           0       -3.235244    1.047675   -0.097279
     26          6           0       -2.117375    1.398172   -1.079882
     27          6           0       -1.859435    2.902563   -1.169716
     28          1           0       -4.157272    1.561090   -0.403326
     29          1           0       -2.976182    1.436733    0.896937
     30          1           0       -2.379039    1.008068   -2.071833
     31          1           0       -1.198079    0.883150   -0.772861
     32          1           0       -1.573666    3.303492   -0.191865
     33          1           0       -2.761336    3.429120   -1.498217
     34          1           0       -1.056573    3.130656   -1.877703
 ---------------------------------------------------------------------

 SCF Done:  E(RHF) =  -669.535348994     A.U. after   15 cycles
 E2 =    -0.2092163525D+01 EUMP2 =    -0.67162751251911D+03

 The electronic state is 1-A.
 Alpha  occ. eigenvalues --  -20.60767 -20.60762 -15.85820 -11.31189 -11.27764
 Alpha  occ. eigenvalues --  -11.27724 -11.27498 -11.26784 -11.26745 -11.22083
 Alpha  occ. eigenvalues --  -11.21838 -11.21669 -11.21619 -11.21410 -11.20985
 Alpha  occ. eigenvalues --   -1.59843  -1.39396  -1.19365  -1.08757  -1.08658
 Alpha  occ. eigenvalues --   -1.04770  -1.03810  -0.96265  -0.95592  -0.87281
 Alpha  occ. eigenvalues --   -0.86160  -0.82422  -0.79895  -0.78420  -0.77465
 Alpha  occ. eigenvalues --   -0.72038  -0.71168  -0.70480  -0.65316  -0.65004
 Alpha  occ. eigenvalues --   -0.64764  -0.62212  -0.61130  -0.59656  -0.57852
 Alpha  occ. eigenvalues --   -0.55565  -0.55243  -0.53103  -0.53001  -0.52868
 Alpha  occ. eigenvalues --   -0.52664  -0.50183  -0.48797  -0.48794  -0.48186
 Alpha  occ. eigenvalues --   -0.46905  -0.45962  -0.45856  -0.44798  -0.44038
 Alpha  occ. eigenvalues --   -0.37347  -0.36349
 Alpha virt. eigenvalues --    0.05017   0.11234   0.16467   0.19841   0.22948
 Alpha virt. eigenvalues --    0.23853   0.26032   0.26528   0.26838   0.28387
 Alpha virt. eigenvalues --    0.29459   0.30777   0.31308   0.31569   0.31862

 Mulliken charges:
               1
     1  C   -0.171275
     2  C   -0.218282
     3  C   -0.171197
     4  C    0.158256
     5  C   -0.174796
     6  C   -0.222486
     7  H    0.225748
     8  H    0.223441
     9  H    0.275578
    10  H    0.279533
    11  H    0.229240
    12  N    0.487898
    13  O   -0.460129
    14  O   -0.460524
    15  C   -0.299398
    16  C   -0.299986
    17  C   -0.476019
    18  H    0.152735
    19  H    0.153360
    20  H    0.151305
    21  H    0.150702
    22  H    0.157341
    23  H    0.156732
    24  H    0.159791
    25  C   -0.297857
    26  C   -0.305810
    27  C   -0.479805
    28  H    0.150375
    29  H    0.148298
    30  H    0.158315
    31  H    0.150911
    32  H    0.151015
    33  H    0.161287
    34  H    0.155706
 Sum of Mulliken charges =  -0.00000

 Dipole moment (field-independent basis, Debye):
    X=              0.3182    Y=              4.4099    Z=              2.6057  Tot=              5.1321
 Quadrupole moment (field-independent basis, Debye-Ang):
   XX=            -89.7176   YY=            -99.6572   ZZ=            -93.4429
   XY=              9.7501   XZ=             10.1154   YZ=             -2.7250

 Normal termination of Gaussian 16 at Thu May  6 14:06:20 2021.
