 Gaussian 16, Revision A.03,
 Gaussian 16:  EM64L-G16RevA.03 25-Dec-2016

 -------------
 #p 6-31g* mp2
 -------------

 ------------------------------------------------------
 Input file generated by CHIRIPA (05-May-2021 14:57:21)
 ------------------------------------------------------
 Symbolic Z-matrix:
 Charge =  0 Multiplicity = 1

                         Standard orientation:
 ---------------------------------------------------------------------
 Center     Atomic      Atomic             Coordinates (Angstroms)
 Number     Number       Type             X           Y           Z
 ---------------------------------------------------------------------
      1          6           0       -1.903339    1.962914   -0.776066
      2          6           0       -1.329551    0.697944   -0.611335
      3          6           0       -2.109441   -0.387529   -0.201373
      4          6           0       -3.465949   -0.171293    0.036154
      5          6           0       -4.066847    1.076952   -0.119073
      6          6           0       -3.267751    2.148055   -0.529843
      7          1           0       -1.290042    2.800554   -1.094848
      8          1           0       -0.270198    0.551222   -0.801834
      9          1           0       -1.691014   -1.377483   -0.065992
     10          1           0       -5.125678    1.192244    0.078418
     11          1           0       -3.716065    3.129331   -0.656953
     12          7           0       -4.301750   -1.312828    0.470590
     13          8           0       -5.494457   -1.096179    0.673441
     14          8           0       -3.748317   -2.402596    0.600025
     15          6           0        2.742234    2.348407    0.689777
     16          6           0        3.602095    1.592429    1.493304
     17          6           0        3.933680    0.280889    1.140510
     18          6           0        3.384847   -0.245510   -0.027812
     19          6           0        2.525275    0.482396   -0.849140
     20          6           0        2.207511    1.791959   -0.476824
     21          1           0        2.490019    3.366474    0.971418
     22          1           0        4.018855    2.021984    2.399857
     23          1           0        4.596823   -0.326682    1.744262
     24          1           0        2.125494    0.026902   -1.746981
     25          1           0        1.539465    2.376721   -1.102774
     26          7           0        3.728566   -1.632932   -0.411633
     27          8           0        3.231818   -2.073648   -1.445870
     28          8           0        4.488211   -2.253405    0.329034
 ---------------------------------------------------------------------

 SCF Done:  E(RHF) =  -868.335112943     A.U. after   16 cycles
 E2 =    -0.2602370852D+01 EUMP2 =    -0.87093748379526D+03

 The electronic state is 1-A.
 Alpha  occ. eigenvalues --  -20.61495 -20.61480 -20.60888 -20.60875 -15.86555
 Alpha  occ. eigenvalues --  -15.85939 -11.32154 -11.31423 -11.28818 -11.28667
 Alpha  occ. eigenvalues --  -11.28495 -11.28005 -11.27952 -11.27924 -11.27889
 Alpha  occ. eigenvalues --  -11.27705 -11.27103 -11.26985  -1.60563  -1.59957
 Alpha  occ. eigenvalues --   -1.40110  -1.39506  -1.20355  -1.19615  -1.09687
 Alpha  occ. eigenvalues --   -1.09023  -1.05831  -1.05016  -0.96485  -0.95831
 Alpha  occ. eigenvalues --   -0.87181  -0.86454  -0.83343  -0.82644  -0.78374
 Alpha  occ. eigenvalues --   -0.77635  -0.72764  -0.72158  -0.71894  -0.71427
 Alpha  occ. eigenvalues --   -0.71281  -0.70810  -0.66037  -0.65849  -0.65265
 Alpha  occ. eigenvalues --   -0.65086  -0.63166  -0.62301  -0.56243  -0.55657
 Alpha  occ. eigenvalues --   -0.54196  -0.53888  -0.53357  -0.52995  -0.49542
 Alpha  occ. eigenvalues --   -0.49508  -0.48928  -0.48902  -0.45465  -0.44885
 Alpha  occ. eigenvalues --   -0.38315  -0.37690  -0.37348  -0.36582
 Alpha virt. eigenvalues --    0.04160   0.04869   0.10083   0.11080   0.15462
 Alpha virt. eigenvalues --    0.16305   0.18642   0.22172   0.24875   0.26107
 Alpha virt. eigenvalues --    0.28054   0.28834   0.30479   0.31084   0.32866

 Mulliken charges:
               1
     1  C   -0.176676
     2  C   -0.219717
     3  C   -0.174001
     4  C    0.159446
     5  C   -0.171222
     6  C   -0.217743
     7  H    0.215946
     8  H    0.227829
     9  H    0.280552
    10  H    0.276406
    11  H    0.222992
    12  N    0.487785
    13  O   -0.460365
    14  O   -0.457466
    15  C   -0.169658
    16  C   -0.217157
    17  C   -0.169121
    18  C    0.160002
    19  C   -0.180657
    20  C   -0.220946
    21  H    0.227802
    22  H    0.228012
    23  H    0.279869
    24  H    0.276276
    25  H    0.219053
    26  N    0.487920
    27  O   -0.459236
    28  O   -0.455923
 Sum of Mulliken charges =  -0.00000

 Dipole moment (field-independent basis, Debye):
    X=              2.0039    Y=              8.7327    Z=              0.0520  Tot=              8.9598
 Quadrupole moment (field-independent basis, Debye-Ang):
   XX=           -127.7983   YY=           -107.7960   ZZ=           -102.7291
   XY=             -0.4026   XZ=             13.0837   YZ=              0.0029

 Normal termination of Gaussian 16 at Thu May  6 11:12:51 2021.
