 Gaussian 16, Revision A.03,
 Gaussian 16:  EM64L-G16RevA.03 25-Dec-2016

 -------------
 #p 6-31g* mp2
 -------------

 ------------------------------------------------------
 Input file generated by CHIRIPA (05-May-2021 14:55:23)
 ------------------------------------------------------
 Symbolic Z-matrix:
 Charge =  0 Multiplicity = 1

                         Standard orientation:
 ---------------------------------------------------------------------
 Center     Atomic      Atomic             Coordinates (Angstroms)
 Number     Number       Type             X           Y           Z
 ---------------------------------------------------------------------
      1          6           0       -1.674548    1.758959    0.899913
      2          6           0       -1.184146    0.709137    0.116395
      3          6           0       -2.037501   -0.307092   -0.323621
      4          6           0       -3.381644   -0.241755    0.040110
      5          6           0       -3.900310    0.791040    0.819604
      6          6           0       -3.028678    1.796493    1.248402
      7          1           0       -1.004543    2.544204    1.237371
      8          1           0       -0.132975    0.677403   -0.155775
      9          1           0       -1.684378   -1.131449   -0.931204
     10          1           0       -4.953053    0.795444    1.074814
     11          1           0       -3.412312    2.610581    1.856787
     12          7           0       -4.294727   -1.311887   -0.419777
     13          8           0       -5.474797   -1.231336   -0.085735
     14          8           0       -3.813043   -2.210944   -1.105570
     15          6           0        4.777828   -0.240081    0.109531
     16          6           0        4.646199   -1.745417    0.343243
     17          6           0        5.938678   -2.378807    0.859101
     18          1           0        5.589530   -0.056398   -0.607648
     19          1           0        5.075380    0.245210    1.049399
     20          1           0        4.347638   -2.227552   -0.596450
     21          1           0        3.834589   -1.925548    1.059803
     22          1           0        6.237681   -1.924695    1.809353
     23          1           0        6.753644   -2.228414    0.143690
     24          1           0        5.822176   -3.455203    1.019285
     25          6           0        3.493933    0.407463   -0.406249
     26          6           0        3.625562    1.912800   -0.639960
     27          6           0        2.333083    2.546190   -1.155818
     28          1           0        3.196382   -0.077827   -1.346116
     29          1           0        2.682231    0.223781    0.310931
     30          1           0        4.437172    2.092931   -1.356520
     31          1           0        3.924123    2.394935    0.299733
     32          1           0        1.518117    2.395797   -0.440407
     33          1           0        2.034080    2.092078   -2.106071
     34          1           0        2.449586    3.622586   -1.316002
 ---------------------------------------------------------------------

 SCF Done:  E(RHF) =  -669.535383890     A.U. after   15 cycles
 E2 =    -0.2091455381D+01 EUMP2 =    -0.67162683927083D+03

 The electronic state is 1-A.
 Alpha  occ. eigenvalues --  -20.60712 -20.60707 -15.85764 -11.31118 -11.27687
 Alpha  occ. eigenvalues --  -11.27668 -11.27425 -11.26708 -11.26638 -11.22541
 Alpha  occ. eigenvalues --  -11.22325 -11.22248 -11.22142 -11.22048 -11.21486
 Alpha  occ. eigenvalues --   -1.59788  -1.39341  -1.19286  -1.09228  -1.08687
 Alpha  occ. eigenvalues --   -1.04687  -1.04302  -0.96773  -0.95524  -0.87790
 Alpha  occ. eigenvalues --   -0.86090  -0.82354  -0.80382  -0.79022  -0.77400
 Alpha  occ. eigenvalues --   -0.71984  -0.71110  -0.70405  -0.65875  -0.64940
 Alpha  occ. eigenvalues --   -0.64707  -0.62096  -0.61645  -0.60142  -0.58363
 Alpha  occ. eigenvalues --   -0.56078  -0.55195  -0.53439  -0.53252  -0.53006
 Alpha  occ. eigenvalues --   -0.52750  -0.50718  -0.48788  -0.48739  -0.48627
 Alpha  occ. eigenvalues --   -0.47404  -0.46551  -0.46455  -0.44749  -0.44551
 Alpha  occ. eigenvalues --   -0.37270  -0.36285
 Alpha virt. eigenvalues --    0.05127   0.11332   0.16617   0.19236   0.22522
 Alpha virt. eigenvalues --    0.23775   0.25338   0.26169   0.26330   0.27722
 Alpha virt. eigenvalues --    0.28848   0.30008   0.31017   0.31482   0.31547

 Mulliken charges:
               1
     1  C   -0.173105
     2  C   -0.225120
     3  C   -0.172307
     4  C    0.158881
     5  C   -0.171416
     6  C   -0.218456
     7  H    0.225325
     8  H    0.233425
     9  H    0.275788
    10  H    0.275316
    11  H    0.223086
    12  N    0.487987
    13  O   -0.460660
    14  O   -0.460534
    15  C   -0.298523
    16  C   -0.300592
    17  C   -0.476235
    18  H    0.152308
    19  H    0.150734
    20  H    0.153238
    21  H    0.152081
    22  H    0.155688
    23  H    0.156195
    24  H    0.162644
    25  C   -0.301611
    26  C   -0.300148
    27  C   -0.478968
    28  H    0.150957
    29  H    0.144688
    30  H    0.156868
    31  H    0.153488
    32  H    0.144200
    33  H    0.159149
    34  H    0.165630
 Sum of Mulliken charges =  -0.00000

 Dipole moment (field-independent basis, Debye):
    X=              3.4803    Y=              3.7694    Z=              1.5693  Tot=              5.3650
 Quadrupole moment (field-independent basis, Debye-Ang):
   XX=           -113.5530   YY=            -96.2537   ZZ=            -93.3080
   XY=            -15.1103   XZ=             -8.2181   YZ=              1.2837

 Normal termination of Gaussian 16 at Thu May  6 06:19:37 2021.
