 Gaussian 16, Revision A.03,
 Gaussian 16:  EM64L-G16RevA.03 25-Dec-2016

 -------------
 #p 6-31g* mp2
 -------------

 ------------------------------------------------------
 Input file generated by CHIRIPA (05-May-2021 14:57:23)
 ------------------------------------------------------
 Symbolic Z-matrix:
 Charge =  0 Multiplicity = 1

                         Standard orientation:
 ---------------------------------------------------------------------
 Center     Atomic      Atomic             Coordinates (Angstroms)
 Number     Number       Type             X           Y           Z
 ---------------------------------------------------------------------
      1          6           0       -2.885310    2.531355    0.170500
      2          6           0       -1.999388    1.620567    0.755417
      3          6           0       -2.178633    0.244859    0.582656
      4          6           0       -3.259311   -0.187149   -0.184672
      5          6           0       -4.159140    0.695393   -0.780255
      6          6           0       -3.960463    2.066681   -0.594121
      7          1           0       -2.738521    3.598322    0.309899
      8          1           0       -1.163534    1.978576    1.349742
      9          1           0       -1.507925   -0.482213    1.024171
     10          1           0       -4.983124    0.308340   -1.367330
     11          1           0       -4.650069    2.771708   -1.049561
     12          7           0       -3.459355   -1.641210   -0.374645
     13          8           0       -4.419233   -1.996336   -1.055202
     14          8           0       -2.652484   -2.398243    0.160608
     15          6           0        4.745821    0.264622   -1.835743
     16          6           0        4.137750    1.372223   -1.235752
     17          6           0        3.293981    1.208359   -0.133142
     18          6           0        3.079444   -0.083156    0.345661
     19          6           0        3.670695   -1.206501   -0.230367
     20          6           0        4.510767   -1.018943   -1.332024
     21          1           0        5.399846    0.401118   -2.691907
     22          1           0        4.318479    2.370228   -1.624814
     23          1           0        2.810362    2.048344    0.350549
     24          1           0        3.471382   -2.189015    0.179948
     25          1           0        4.981655   -1.880953   -1.795972
     26          7           0        2.188140   -0.269174    1.512441
     27          8           0        2.015304   -1.417424    1.915290
     28          8           0        1.679249    0.736798    2.002022
 ---------------------------------------------------------------------

 SCF Done:  E(RHF) =  -868.339772004     A.U. after   16 cycles
 E2 =    -0.2598951426D+01 EUMP2 =    -0.87093872343027D+03

 The electronic state is 1-A.
 Alpha  occ. eigenvalues --  -20.61500 -20.61401 -20.60147 -20.60123 -15.86473
 Alpha  occ. eigenvalues --  -15.85183 -11.31595 -11.30468 -11.28184 -11.28094
 Alpha  occ. eigenvalues --  -11.27838 -11.27125 -11.27085 -11.27065 -11.26883
 Alpha  occ. eigenvalues --  -11.26780 -11.26120 -11.25857  -1.60514  -1.59218
 Alpha  occ. eigenvalues --   -1.40072  -1.38770  -1.19747  -1.18631  -1.09188
 Alpha  occ. eigenvalues --   -1.08057  -1.05115  -1.03990  -0.96061  -0.94900
 Alpha  occ. eigenvalues --   -0.86525  -0.85405  -0.82903  -0.81706  -0.77980
 Alpha  occ. eigenvalues --   -0.76755  -0.72693  -0.71823  -0.71401  -0.70856
 Alpha  occ. eigenvalues --   -0.70544  -0.69753  -0.65406  -0.65117  -0.64271
 Alpha  occ. eigenvalues --   -0.63965  -0.62467  -0.61302  -0.55626  -0.54546
 Alpha  occ. eigenvalues --   -0.53453  -0.53206  -0.52376  -0.52049  -0.49471
 Alpha  occ. eigenvalues --   -0.49424  -0.48168  -0.48151  -0.45517  -0.44193
 Alpha  occ. eigenvalues --   -0.37712  -0.36703  -0.36656  -0.35605
 Alpha virt. eigenvalues --    0.04504   0.05727   0.10954   0.12031   0.16021
 Alpha virt. eigenvalues --    0.17233   0.21039   0.22258   0.26958   0.27565
 Alpha virt. eigenvalues --    0.28547   0.28979   0.30707   0.31599   0.32406

 Mulliken charges:
               1
     1  C   -0.172511
     2  C   -0.225599
     3  C   -0.176704
     4  C    0.157921
     5  C   -0.172859
     6  C   -0.218961
     7  H    0.222257
     8  H    0.239538
     9  H    0.285744
    10  H    0.272711
    11  H    0.219820
    12  N    0.487478
    13  O   -0.464297
    14  O   -0.457852
    15  C   -0.169749
    16  C   -0.218328
    17  C   -0.170598
    18  C    0.157930
    19  C   -0.169104
    20  C   -0.218321
    21  H    0.227309
    22  H    0.223583
    23  H    0.271446
    24  H    0.279114
    25  H    0.226211
    26  N    0.488471
    27  O   -0.452015
    28  O   -0.472635
 Sum of Mulliken charges =  -0.00000

 Dipole moment (field-independent basis, Debye):
    X=              4.2712    Y=              5.5874    Z=             -3.3838  Tot=              7.8046
 Quadrupole moment (field-independent basis, Debye-Ang):
   XX=            -87.9515   YY=           -102.4768   ZZ=           -107.5790
   XY=            -17.1446   XZ=            -12.2311   YZ=             -0.9727

 Normal termination of Gaussian 16 at Thu May  6 11:18:58 2021.
