 Gaussian 16, Revision A.03,
 Gaussian 16:  EM64L-G16RevA.03 25-Dec-2016

 -------------
 #p 6-31g* mp2
 -------------

 ------------------------------------------------------
 Input file generated by CHIRIPA (05-May-2021 14:53:15)
 ------------------------------------------------------
 Symbolic Z-matrix:
 Charge =  0 Multiplicity = 1

                         Standard orientation:
 ---------------------------------------------------------------------
 Center     Atomic      Atomic             Coordinates (Angstroms)
 Number     Number       Type             X           Y           Z
 ---------------------------------------------------------------------
      1          6           0       -3.608922   -0.735606    0.339552
      2          6           0       -2.437068   -0.824305   -0.638648
      3          6           0       -1.220651   -1.532299   -0.041264
      4          1           0       -3.282933   -0.206193    1.245310
      5          1           0       -3.891831   -1.749480    0.654859
      6          1           0       -2.157352    0.189355   -0.953084
      7          1           0       -2.765938   -1.353400   -1.542263
      8          1           0       -1.477239   -2.554244    0.256043
      9          1           0       -0.865195   -1.002724    0.848569
     10          1           0       -0.394724   -1.584587   -0.757483
     11          6           0       -4.832415   -0.030434   -0.243136
     12          6           0       -6.004269    0.058265    0.735064
     13          6           0       -7.220685    0.766259    0.137679
     14          1           0       -4.549505    0.983439   -0.558443
     15          1           0       -5.158403   -0.559847   -1.148895
     16          1           0       -5.675399    0.587360    1.638678
     17          1           0       -6.283985   -0.955395    1.049500
     18          1           0       -7.576142    0.236684   -0.752153
     19          1           0       -6.964098    1.788204   -0.159627
     20          1           0       -8.046613    0.818547    0.853898
     21          6           0        4.517246   -1.889687    0.256477
     22          6           0        3.332800   -1.842680   -0.486087
     23          6           0        2.648516   -0.635383   -0.655614
     24          6           0        3.179467    0.510851   -0.066099
     25          6           0        4.357307    0.496291    0.679400
     26          6           0        5.024824   -0.722110    0.835829
     27          1           0        5.042301   -2.831857    0.383082
     28          1           0        2.936274   -2.747859   -0.937156
     29          1           0        1.729572   -0.570515   -1.225484
     30          1           0        4.727990    1.415235    1.117069
     31          1           0        5.944472   -0.755631    1.413037
     32          7           0        2.463922    1.794840   -0.238636
     33          8           0        2.952454    2.790644    0.290842
     34          8           0        1.428095    1.781113   -0.900082
 ---------------------------------------------------------------------

 SCF Done:  E(RHF) =  -669.535435528     A.U. after   15 cycles
 E2 =    -0.2091178489D+01 EUMP2 =    -0.67162661401653D+03

 The electronic state is 1-A.
 Alpha  occ. eigenvalues --  -20.60775 -20.60770 -15.85825 -11.31161 -11.27741
 Alpha  occ. eigenvalues --  -11.27713 -11.27482 -11.26751 -11.26736 -11.21387
 Alpha  occ. eigenvalues --  -11.21376 -11.21190 -11.21179 -11.21107 -11.20848
 Alpha  occ. eigenvalues --   -1.59848  -1.39402  -1.19339  -1.08740  -1.08218
 Alpha  occ. eigenvalues --   -1.04742  -1.03367  -0.95855  -0.95574  -0.86879
 Alpha  occ. eigenvalues --   -0.86136  -0.82412  -0.79426  -0.78017  -0.77461
 Alpha  occ. eigenvalues --   -0.72046  -0.71170  -0.70462  -0.64995  -0.64840
 Alpha  occ. eigenvalues --   -0.64750  -0.62138  -0.60743  -0.59222  -0.57455
 Alpha  occ. eigenvalues --   -0.55257  -0.55113  -0.53101  -0.52932  -0.52454
 Alpha  occ. eigenvalues --   -0.52252  -0.49766  -0.48802  -0.48800  -0.47749
 Alpha  occ. eigenvalues --   -0.46422  -0.45573  -0.45465  -0.44812  -0.43632
 Alpha  occ. eigenvalues --   -0.37322  -0.36327
 Alpha virt. eigenvalues --    0.05055   0.11294   0.16545   0.20645   0.23097
 Alpha virt. eigenvalues --    0.24090   0.26348   0.26899   0.27726   0.27949
 Alpha virt. eigenvalues --    0.28956   0.30913   0.31563   0.31643   0.32167

 Mulliken charges:
               1
     1  C   -0.298860
     2  C   -0.301836
     3  C   -0.473611
     4  H    0.151600
     5  H    0.146984
     6  H    0.164747
     7  H    0.149453
     8  H    0.152563
     9  H    0.159914
    10  H    0.147430
    11  C   -0.298892
    12  C   -0.299640
    13  C   -0.475763
    14  H    0.153266
    15  H    0.148548
    16  H    0.152668
    17  H    0.150486
    18  H    0.154497
    19  H    0.156523
    20  H    0.159578
    21  C   -0.170708
    22  C   -0.219538
    23  C   -0.171927
    24  C    0.157735
    25  C   -0.170846
    26  C   -0.218738
    27  H    0.225551
    28  H    0.223547
    29  H    0.280187
    30  H    0.275414
    31  H    0.223315
    32  N    0.487870
    33  O   -0.460487
    34  O   -0.461030
 Sum of Mulliken charges =  -0.00000

 Dipole moment (field-independent basis, Debye):
    X=              2.4948    Y=             -4.4309    Z=              0.6283  Tot=              5.1236
 Quadrupole moment (field-independent basis, Debye-Ang):
   XX=            -77.4716   YY=            -98.4720   ZZ=            -93.9935
   XY=            -10.9641   XZ=              3.9556   YZ=              2.4752

 Normal termination of Gaussian 16 at Thu May  6 09:01:11 2021.
