 Gaussian 16, Revision A.03,
 Gaussian 16:  EM64L-G16RevA.03 25-Dec-2016

 -------------
 #p 6-31g* mp2
 -------------

 ------------------------------------------------------
 Input file generated by CHIRIPA (05-May-2021 14:57:21)
 ------------------------------------------------------
 Symbolic Z-matrix:
 Charge =  0 Multiplicity = 1

                         Standard orientation:
 ---------------------------------------------------------------------
 Center     Atomic      Atomic             Coordinates (Angstroms)
 Number     Number       Type             X           Y           Z
 ---------------------------------------------------------------------
      1          6           0        5.768983    1.408941    0.742493
      2          6           0        5.664590    0.074256    1.147757
      3          6           0        4.582843   -0.710108    0.736486
      4          6           0        3.619310   -0.124950   -0.083565
      5          6           0        3.695264    1.201931   -0.504170
      6          6           0        4.785720    1.967534   -0.080726
      7          1           0        6.612693    2.010967    1.066707
      8          1           0        6.426715   -0.362202    1.787066
      9          1           0        4.477271   -1.745935    1.035376
     10          1           0        2.919835    1.609123   -1.141605
     11          1           0        4.864199    3.003800   -0.397015
     12          7           0        2.469503   -0.945390   -0.525404
     13          8           0        1.633888   -0.406318   -1.247752
     14          8           0        2.425670   -2.111988   -0.141002
     15          6           0       -5.871008    1.282194    0.676184
     16          6           0       -5.600130    0.043657    1.267092
     17          6           0       -4.460483   -0.681197    0.906067
     18          6           0       -3.609446   -0.135219   -0.053587
     19          6           0       -3.852002    1.096158   -0.660356
     20          6           0       -4.997620    1.803572   -0.283960
     21          1           0       -6.758632    1.838504    0.962607
     22          1           0       -6.276644   -0.363705    2.013035
     23          1           0       -4.226664   -1.642332    1.347616
     24          1           0       -3.158964    1.476395   -1.400988
     25          1           0       -5.205461    2.765195   -0.744535
     26          7           0       -2.399793   -0.893358   -0.443924
     27          8           0       -1.665779   -0.390534   -1.291879
     28          8           0       -2.208585   -1.976057    0.105476
 ---------------------------------------------------------------------

 SCF Done:  E(RHF) =  -868.333939561     A.U. after   16 cycles
 E2 =    -0.2600820351D+01 EUMP2 =    -0.87093475991276D+03

 The electronic state is 1-A.
 Alpha  occ. eigenvalues --  -20.59568 -20.59511 -20.59503 -20.59441 -15.84613
 Alpha  occ. eigenvalues --  -15.84550 -11.30438 -11.30388 -11.27064 -11.27058
 Alpha  occ. eigenvalues --  -11.27015 -11.27011 -11.26894 -11.26850 -11.26186
 Alpha  occ. eigenvalues --  -11.26174 -11.26142 -11.26129  -1.58610  -1.58550
 Alpha  occ. eigenvalues --   -1.38158  -1.38091  -1.18656  -1.18608  -1.07966
 Alpha  occ. eigenvalues --   -1.07913  -1.04127  -1.04080  -0.94731  -0.94650
 Alpha  occ. eigenvalues --   -0.85503  -0.85456  -0.81572  -0.81475  -0.76529
 Alpha  occ. eigenvalues --   -0.76460  -0.70938  -0.70602  -0.70002  -0.69881
 Alpha  occ. eigenvalues --   -0.69762  -0.69712  -0.64300  -0.64239  -0.64134
 Alpha  occ. eigenvalues --   -0.64087  -0.61470  -0.61423  -0.54617  -0.54569
 Alpha  occ. eigenvalues --   -0.52434  -0.52386  -0.52226  -0.52180  -0.47807
 Alpha  occ. eigenvalues --   -0.47564  -0.47501  -0.47211  -0.43575  -0.43269
 Alpha  occ. eigenvalues --   -0.36667  -0.36615  -0.35754  -0.35707
 Alpha virt. eigenvalues --    0.05956   0.06137   0.11894   0.11940   0.17375
 Alpha virt. eigenvalues --    0.17541   0.21971   0.22017   0.27851   0.27891
 Alpha virt. eigenvalues --    0.28901   0.28957   0.31488   0.31533   0.33166

 Mulliken charges:
               1
     1  C   -0.172439
     2  C   -0.218556
     3  C   -0.171740
     4  C    0.159373
     5  C   -0.172080
     6  C   -0.218621
     7  H    0.222413
     8  H    0.220904
     9  H    0.275367
    10  H    0.275581
    11  H    0.220266
    12  N    0.486086
    13  O   -0.446559
    14  O   -0.460124
    15  C   -0.172409
    16  C   -0.218544
    17  C   -0.171854
    18  C    0.159293
    19  C   -0.172099
    20  C   -0.218615
    21  H    0.222598
    22  H    0.221040
    23  H    0.275423
    24  H    0.275364
    25  H    0.220496
    26  N    0.485751
    27  O   -0.446950
    28  O   -0.459365
 Sum of Mulliken charges =  -0.00000

 Dipole moment (field-independent basis, Debye):
    X=             -0.2247    Y=              5.4046    Z=              2.7396  Tot=              6.0634
 Quadrupole moment (field-independent basis, Debye-Ang):
   XX=            -48.0384   YY=           -101.4805   ZZ=           -102.9943
   XY=              0.2722   XZ=              0.7054   YZ=             -5.7576

 Normal termination of Gaussian 16 at Wed May  5 19:15:52 2021.
