 Gaussian 16, Revision A.03,
 Gaussian 16:  EM64L-G16RevA.03 25-Dec-2016

 -------------
 #p 6-31g* mp2
 -------------

 ------------------------------------------------------
 Input file generated by CHIRIPA (05-May-2021 14:51:11)
 ------------------------------------------------------
 Symbolic Z-matrix:
 Charge =  0 Multiplicity = 1

                         Standard orientation:
 ---------------------------------------------------------------------
 Center     Atomic      Atomic             Coordinates (Angstroms)
 Number     Number       Type             X           Y           Z
 ---------------------------------------------------------------------
      1          6           0        3.510088   -0.144335    0.190042
      2          6           0        4.788998   -0.409168   -0.605092
      3          6           0        5.857472    0.661062   -0.379783
      4          1           0        3.109711    0.839971   -0.088858
      5          1           0        3.756202   -0.090046    1.259563
      6          1           0        4.540332   -0.464317   -1.672678
      7          1           0        5.186272   -1.393041   -0.324407
      8          1           0        6.134251    0.712371    0.678216
      9          1           0        5.484641    1.646371   -0.677716
     10          1           0        6.763155    0.452072   -0.957643
     11          6           0        2.432480   -1.205634   -0.024739
     12          6           0        1.153570   -0.940801    0.770395
     13          6           0        0.085096   -2.011031    0.545086
     14          1           0        2.186366   -1.259923   -1.094261
     15          1           0        2.832857   -2.189940    0.254160
     16          1           0        0.756296    0.043072    0.489710
     17          1           0        1.402236   -0.885652    1.837981
     18          1           0        0.457927   -2.996340    0.843018
     19          1           0       -0.191683   -2.062340   -0.512913
     20          1           0       -0.820587   -1.802041    1.122946
     21          6           0       -3.615642    0.358396   -0.343434
     22          6           0       -3.746470   -1.124805    0.004391
     23          6           0       -5.040709   -1.744010   -0.524122
     24          1           0       -4.477913    0.902017    0.066335
     25          1           0       -3.661103    0.477300   -1.434851
     26          1           0       -3.699387   -1.241014    1.094755
     27          1           0       -2.883691   -1.664927   -0.406090
     28          1           0       -5.092054   -1.657445   -1.614293
     29          1           0       -5.912385   -1.231123   -0.104920
     30          1           0       -5.113683   -2.804659   -0.264204
     31          6           0       -2.326927    0.991573    0.178131
     32          6           0       -2.196097    2.474774   -0.169694
     33          6           0       -0.901859    3.093979    0.358820
     34          1           0       -2.281466    0.872669    1.269548
     35          1           0       -1.464656    0.447952   -0.231638
     36          1           0       -3.058878    3.014896    0.240787
     37          1           0       -2.243180    2.590984   -1.260058
     38          1           0       -0.030184    2.581092   -0.060382
     39          1           0       -0.850515    3.007414    1.448990
     40          1           0       -0.828885    4.154628    0.098901
 ---------------------------------------------------------------------

 SCF Done:  E(RHF) =  -470.731694628     A.U. after   11 cycles
 E2 =    -0.1585111561D+01 EUMP2 =    -0.47231680618899D+03

 The electronic state is 1-A.
 Alpha  occ. eigenvalues --  -11.21606 -11.21595 -11.21529 -11.21522 -11.21392
 Alpha  occ. eigenvalues --  -11.21365 -11.21332 -11.21300 -11.21110 -11.21062
 Alpha  occ. eigenvalues --  -11.21030 -11.20994  -1.08470  -1.08364  -1.03525
 Alpha  occ. eigenvalues --   -1.03507  -0.96012  -0.95926  -0.87004  -0.86970
 Alpha  occ. eigenvalues --   -0.79724  -0.79447  -0.78325  -0.78154  -0.65261
 Alpha  occ. eigenvalues --   -0.64878  -0.60986  -0.60863  -0.59395  -0.59287
 Alpha  occ. eigenvalues --   -0.57689  -0.57474  -0.55369  -0.55170  -0.52809
 Alpha  occ. eigenvalues --   -0.52563  -0.52414  -0.52327  -0.49950  -0.49902
 Alpha  occ. eigenvalues --   -0.48081  -0.47782  -0.46851  -0.46392  -0.45982
 Alpha  occ. eigenvalues --   -0.45736  -0.45687  -0.45274  -0.43790  -0.43686
 Alpha virt. eigenvalues --    0.20943   0.22841   0.23650   0.24133   0.25475
 Alpha virt. eigenvalues --    0.26102   0.26602   0.27389   0.28666   0.30215
 Alpha virt. eigenvalues --    0.30646   0.30848   0.31429   0.31979   0.32525

 Mulliken charges:
               1
     1  C   -0.298452
     2  C   -0.299592
     3  C   -0.475706
     4  H    0.149361
     5  H    0.149777
     6  H    0.151723
     7  H    0.151993
     8  H    0.155239
     9  H    0.155253
    10  H    0.160186
    11  C   -0.297792
    12  C   -0.308068
    13  C   -0.481037
    14  H    0.148573
    15  H    0.149681
    16  H    0.159540
    17  H    0.151887
    18  H    0.155274
    19  H    0.152939
    20  H    0.168022
    21  C   -0.297100
    22  C   -0.304846
    23  C   -0.475444
    24  H    0.149183
    25  H    0.148794
    26  H    0.150506
    27  H    0.159190
    28  H    0.154819
    29  H    0.154778
    30  H    0.160238
    31  C   -0.305456
    32  C   -0.299623
    33  C   -0.477821
    34  H    0.148654
    35  H    0.159625
    36  H    0.151977
    37  H    0.151423
    38  H    0.155939
    39  H    0.155869
    40  H    0.160494
 Sum of Mulliken charges =  -0.00000

 Dipole moment (field-independent basis, Debye):
    X=             -0.0018    Y=             -0.0036    Z=              0.0163  Tot=              0.0168
 Quadrupole moment (field-independent basis, Debye-Ang):
   XX=            -86.2103   YY=            -85.3132   ZZ=            -83.4917
   XY=             -1.3976   XZ=             -0.4402   YZ=             -0.4486

 Normal termination of Gaussian 16 at Thu May  6 02:15:29 2021.
