 Gaussian 16, Revision A.03,
 Gaussian 16:  EM64L-G16RevA.03 25-Dec-2016

 -------------
 #p 6-31g* mp2
 -------------

 ------------------------------------------------------
 Input file generated by CHIRIPA (05-May-2021 14:51:10)
 ------------------------------------------------------
 Symbolic Z-matrix:
 Charge =  0 Multiplicity = 1

                         Standard orientation:
 ---------------------------------------------------------------------
 Center     Atomic      Atomic             Coordinates (Angstroms)
 Number     Number       Type             X           Y           Z
 ---------------------------------------------------------------------
      1          6           0       -3.647822   -0.715534    0.212601
      2          6           0       -4.146204    0.729572    0.176986
      3          6           0       -5.600934    0.864474    0.627939
      4          1           0       -4.290743   -1.334316   -0.428262
      5          1           0       -3.754045   -1.107624    1.233570
      6          1           0       -4.037786    1.119270   -0.843306
      7          1           0       -3.501906    1.345021    0.817859
      8          1           0       -5.721479    0.501590    1.653797
      9          1           0       -6.260404    0.274555   -0.016806
     10          1           0       -5.936631    1.905658    0.594736
     11          6           0       -2.195192   -0.866602   -0.235477
     12          6           0       -1.696810   -2.311708   -0.199862
     13          6           0       -0.242080   -2.446610   -0.650815
     14          1           0       -2.088970   -0.474512   -1.256446
     15          1           0       -1.552271   -0.247820    0.405386
     16          1           0       -2.341108   -2.927157   -0.840735
     17          1           0       -1.805228   -2.701405    0.820430
     18          1           0        0.417390   -1.856691   -0.006070
     19          1           0       -0.121535   -2.083726   -1.676673
     20          1           0        0.093617   -3.487794   -0.617612
     21          6           0        3.567898    0.592447    0.366630
     22          6           0        4.066755   -0.801212   -0.016567
     23          6           0        5.360754   -1.184242    0.702216
     24          1           0        4.348745    1.330385    0.137131
     25          1           0        3.410262    0.631885    1.453364
     26          1           0        4.222082   -0.838433   -1.102432
     27          1           0        3.284555   -1.535896    0.213694
     28          1           0        5.215893   -1.175075    1.787358
     29          1           0        6.158746   -0.473648    0.463753
     30          1           0        5.699463   -2.184160    0.413598
     31          6           0        2.275117    0.989689   -0.343754
     32          6           0        1.776259    2.383348    0.039442
     33          6           0        0.482261    2.766378   -0.679340
     34          1           0        2.432752    0.950251   -1.430488
     35          1           0        1.494269    0.251750   -0.114254
     36          1           0        2.558459    3.118032   -0.190818
     37          1           0        1.620932    2.420568    1.125308
     38          1           0       -0.315732    2.055783   -0.440876
     39          1           0        0.627120    2.757210   -1.764481
     40          1           0        0.143551    3.766296   -0.390723
 ---------------------------------------------------------------------

 SCF Done:  E(RHF) =  -470.733002605     A.U. after   11 cycles
 E2 =    -0.1583929773D+01 EUMP2 =    -0.47231693237818D+03

 The electronic state is 1-A.
 Alpha  occ. eigenvalues --  -11.21654 -11.21623 -11.21548 -11.21543 -11.21463
 Alpha  occ. eigenvalues --  -11.21398 -11.21343 -11.21267 -11.21096 -11.21086
 Alpha  occ. eigenvalues --  -11.21034 -11.20980  -1.08484  -1.08371  -1.03568
 Alpha  occ. eigenvalues --   -1.03472  -0.96030  -0.95912  -0.87042  -0.86932
 Alpha  occ. eigenvalues --   -0.79647  -0.79533  -0.78367  -0.78109  -0.65182
 Alpha  occ. eigenvalues --   -0.64955  -0.60968  -0.60874  -0.59399  -0.59276
 Alpha  occ. eigenvalues --   -0.57725  -0.57456  -0.55387  -0.55142  -0.52710
 Alpha  occ. eigenvalues --   -0.52628  -0.52518  -0.52257  -0.50009  -0.49827
 Alpha  occ. eigenvalues --   -0.48051  -0.47834  -0.46765  -0.46610  -0.46065
 Alpha  occ. eigenvalues --   -0.45773  -0.45676  -0.45146  -0.43824  -0.43724
 Alpha virt. eigenvalues --    0.20612   0.22765   0.23762   0.24085   0.25355
 Alpha virt. eigenvalues --    0.26251   0.26757   0.27189   0.28880   0.29547
 Alpha virt. eigenvalues --    0.31012   0.31667   0.31774   0.31866   0.32034

 Mulliken charges:
               1
     1  C   -0.298207
     2  C   -0.300323
     3  C   -0.475726
     4  H    0.150018
     5  H    0.149458
     6  H    0.152594
     7  H    0.152259
     8  H    0.155129
     9  H    0.155250
    10  H    0.160536
    11  C   -0.302095
    12  C   -0.299904
    13  C   -0.481086
    14  H    0.151094
    15  H    0.151615
    16  H    0.152361
    17  H    0.151717
    18  H    0.160180
    19  H    0.156430
    20  H    0.160487
    21  C   -0.297913
    22  C   -0.301995
    23  C   -0.475616
    24  H    0.149529
    25  H    0.148613
    26  H    0.152061
    27  H    0.154465
    28  H    0.154863
    29  H    0.155093
    30  H    0.160213
    31  C   -0.305870
    32  C   -0.298850
    33  C   -0.480375
    34  H    0.149302
    35  H    0.157513
    36  H    0.151668
    37  H    0.150814
    38  H    0.160358
    39  H    0.154708
    40  H    0.159634
 Sum of Mulliken charges =  -0.00000

 Dipole moment (field-independent basis, Debye):
    X=             -0.0496    Y=             -0.0399    Z=             -0.0227  Tot=              0.0676
 Quadrupole moment (field-independent basis, Debye-Ang):
   XX=            -86.3671   YY=            -84.9377   ZZ=            -83.5194
   XY=              0.8725   XZ=             -0.2299   YZ=             -0.0561

 Normal termination of Gaussian 16 at Thu May  6 00:37:04 2021.
