 Gaussian 16, Revision A.03,
 Gaussian 16:  EM64L-G16RevA.03 25-Dec-2016

 -------------
 #p 6-31g* mp2
 -------------

 ------------------------------------------------------
 Input file generated by CHIRIPA (05-May-2021 14:55:21)
 ------------------------------------------------------
 Symbolic Z-matrix:
 Charge =  0 Multiplicity = 1

                         Standard orientation:
 ---------------------------------------------------------------------
 Center     Atomic      Atomic             Coordinates (Angstroms)
 Number     Number       Type             X           Y           Z
 ---------------------------------------------------------------------
      1          6           0       -2.030631    2.470516    0.081177
      2          6           0       -3.407149    2.282513    0.243574
      3          6           0       -3.977486    1.019061    0.062044
      4          6           0       -3.137970   -0.038943   -0.283109
      5          6           0       -1.762993    0.116517   -0.452109
      6          6           0       -1.214385    1.388825   -0.265535
      7          1           0       -1.596019    3.455435    0.224154
      8          1           0       -4.043486    3.120745    0.512809
      9          1           0       -5.040037    0.845410    0.181413
     10          1           0       -1.154263   -0.738284   -0.720773
     11          1           0       -0.145037    1.531885   -0.392320
     12          7           0       -3.730258   -1.381191   -0.477957
     13          8           0       -2.969028   -2.297075   -0.781803
     14          8           0       -4.944508   -1.491945   -0.323143
     15          6           0        3.150055   -0.099254    0.445748
     16          6           0        2.587385   -0.867671    1.641960
     17          6           0        1.102679   -0.589049    1.878204
     18          1           0        2.998349    0.977083    0.605215
     19          1           0        2.578352   -0.365558   -0.454048
     20          1           0        3.160870   -0.601043    2.538977
     21          1           0        2.740619   -1.942293    1.479714
     22          1           0        0.513108   -0.872254    1.000251
     23          1           0        0.935746    0.476617    2.065532
     24          1           0        0.721062   -1.148503    2.737994
     25          6           0        4.633250   -0.367371    0.196802
     26          6           0        5.195919    0.401047   -0.999411
     27          6           0        6.680625    0.122423   -1.235655
     28          1           0        5.204952   -0.101067    1.096597
     29          1           0        4.784955   -1.443708    0.037334
     30          1           0        5.042684    1.475669   -0.837165
     31          1           0        4.622435    0.134419   -1.896428
     32          1           0        6.847558   -0.943242   -1.422983
     33          1           0        7.270197    0.405630   -0.357702
     34          1           0        7.062243    0.681879   -2.095445
 ---------------------------------------------------------------------

 SCF Done:  E(RHF) =  -669.534346864     A.U. after   15 cycles
 E2 =    -0.2092640570D+01 EUMP2 =    -0.67162698743359D+03

 The electronic state is 1-A.
 Alpha  occ. eigenvalues --  -20.60729 -20.60724 -15.85782 -11.31131 -11.27687
 Alpha  occ. eigenvalues --  -11.27683 -11.27425 -11.26714 -11.26669 -11.22117
 Alpha  occ. eigenvalues --  -11.22061 -11.22055 -11.21865 -11.21594 -11.21421
 Alpha  occ. eigenvalues --   -1.59804  -1.39359  -1.19301  -1.08975  -1.08697
 Alpha  occ. eigenvalues --   -1.04717  -1.04012  -0.96482  -0.95538  -0.87499
 Alpha  occ. eigenvalues --   -0.86102  -0.82380  -0.80091  -0.78817  -0.77411
 Alpha  occ. eigenvalues --   -0.72003  -0.71126  -0.70429  -0.65608  -0.64956
 Alpha  occ. eigenvalues --   -0.64712  -0.62131  -0.61376  -0.59832  -0.58093
 Alpha  occ. eigenvalues --   -0.55790  -0.55202  -0.53296  -0.53113  -0.52801
 Alpha  occ. eigenvalues --   -0.52666  -0.50408  -0.48760  -0.48758  -0.48386
 Alpha  occ. eigenvalues --   -0.47113  -0.46335  -0.46265  -0.44766  -0.44284
 Alpha  occ. eigenvalues --   -0.37281  -0.36230
 Alpha virt. eigenvalues --    0.05094   0.11278   0.16558   0.19857   0.22680
 Alpha virt. eigenvalues --    0.23857   0.25373   0.26083   0.27284   0.27981
 Alpha virt. eigenvalues --    0.29184   0.29983   0.31051   0.31626   0.31818

 Mulliken charges:
               1
     1  C   -0.172646
     2  C   -0.218128
     3  C   -0.171647
     4  C    0.157926
     5  C   -0.171315
     6  C   -0.215118
     7  H    0.225165
     8  H    0.223085
     9  H    0.275273
    10  H    0.274637
    11  H    0.226976
    12  N    0.488170
    13  O   -0.460881
    14  O   -0.460504
    15  C   -0.299645
    16  C   -0.300352
    17  C   -0.476970
    18  H    0.144807
    19  H    0.145160
    20  H    0.153756
    21  H    0.156505
    22  H    0.151510
    23  H    0.151671
    24  H    0.166754
    25  C   -0.298335
    26  C   -0.300118
    27  C   -0.476051
    28  H    0.151255
    29  H    0.152888
    30  H    0.150243
    31  H    0.152026
    32  H    0.156889
    33  H    0.155849
    34  H    0.161165
 Sum of Mulliken charges =  -0.00000

 Dipole moment (field-independent basis, Debye):
    X=              2.2110    Y=              4.6663    Z=              0.7559  Tot=              5.2187
 Quadrupole moment (field-independent basis, Debye-Ang):
   XX=           -104.4557   YY=            -94.3592   ZZ=            -95.3273
   XY=            -16.9111   XZ=             -3.3689   YZ=             -0.5630

 Normal termination of Gaussian 16 at Thu May  6 15:48:34 2021.
