 Gaussian 16, Revision A.03,
 Gaussian 16:  EM64L-G16RevA.03 25-Dec-2016

 -------------
 #p 6-31g* mp2
 -------------

 ------------------------------------------------------
 Input file generated by CHIRIPA (05-May-2021 14:55:25)
 ------------------------------------------------------
 Symbolic Z-matrix:
 Charge =  0 Multiplicity = 1

                         Standard orientation:
 ---------------------------------------------------------------------
 Center     Atomic      Atomic             Coordinates (Angstroms)
 Number     Number       Type             X           Y           Z
 ---------------------------------------------------------------------
      1          6           0        4.972585    0.707361    0.242340
      2          6           0        4.716676   -0.628584    0.568352
      3          6           0        3.443087   -1.173820    0.380641
      4          6           0        2.444300   -0.350850   -0.137466
      5          6           0        2.668081    0.983824   -0.471916
      6          6           0        3.949274    1.507889   -0.275840
      7          1           0        5.964893    1.122690    0.391408
      8          1           0        5.509472   -1.252633    0.970947
      9          1           0        3.217452   -2.204852    0.624527
     10          1           0        1.857548    1.581169   -0.871457
     11          1           0        4.145132    2.545738   -0.529916
     12          7           0        1.091982   -0.916861   -0.340615
     13          8           0        0.229133   -0.170939   -0.798576
     14          8           0        0.920492   -2.095706   -0.038036
     15          6           0       -3.482358    1.032822   -0.157336
     16          6           0       -2.757573    2.100688    0.662624
     17          6           0       -2.903586    3.502114    0.068926
     18          1           0       -3.091694    1.040135   -1.184114
     19          1           0       -4.547532    1.293669   -0.226315
     20          1           0       -1.694335    1.837178    0.731204
     21          1           0       -3.149874    2.090702    1.687620
     22          1           0       -3.958534    3.789959    0.015714
     23          1           0       -2.494725    3.534994   -0.946136
     24          1           0       -2.377838    4.249887    0.670828
     25          6           0       -3.345617   -0.373456    0.423537
     26          6           0       -4.070403   -1.441321   -0.396424
     27          6           0       -3.924390   -2.842748    0.197274
     28          1           0       -2.280444   -0.634302    0.492517
     29          1           0       -3.736282   -0.380769    1.450314
     30          1           0       -3.678102   -1.431335   -1.421419
     31          1           0       -5.133641   -1.177811   -0.465003
     32          1           0       -4.333251   -2.875627    1.212338
     33          1           0       -2.869442   -3.130591    0.250487
     34          1           0       -4.450138   -3.590520   -0.404627
 ---------------------------------------------------------------------

 SCF Done:  E(RHF) =  -669.536982395     A.U. after   15 cycles
 E2 =    -0.2091945771D+01 EUMP2 =    -0.67162892816643D+03

 The electronic state is 1-A.
 Alpha  occ. eigenvalues --  -20.61183 -20.61177 -15.86178 -11.31417 -11.27967
 Alpha  occ. eigenvalues --  -11.27963 -11.27690 -11.26954 -11.26944 -11.20499
 Alpha  occ. eigenvalues --  -11.20314 -11.20135 -11.20023 -11.19670 -11.19657
 Alpha  occ. eigenvalues --   -1.60220  -1.39779  -1.19575  -1.08996  -1.07029
 Alpha  occ. eigenvalues --   -1.04957  -1.02281  -0.95851  -0.94731  -0.86362
 Alpha  occ. eigenvalues --   -0.85761  -0.82688  -0.78363  -0.77752  -0.76820
 Alpha  occ. eigenvalues --   -0.72402  -0.71520  -0.70683  -0.65234  -0.64961
 Alpha  occ. eigenvalues --   -0.63611  -0.62305  -0.59665  -0.58147  -0.56355
 Alpha  occ. eigenvalues --   -0.55467  -0.54004  -0.53293  -0.53046  -0.51506
 Alpha  occ. eigenvalues --   -0.51183  -0.49224  -0.49162  -0.48605  -0.46692
 Alpha  occ. eigenvalues --   -0.45432  -0.45208  -0.44391  -0.44069  -0.42483
 Alpha  occ. eigenvalues --   -0.37547  -0.36553
 Alpha virt. eigenvalues --    0.04728   0.11102   0.16220   0.21175   0.24172
 Alpha virt. eigenvalues --    0.25461   0.27122   0.27658   0.28353   0.29014
 Alpha virt. eigenvalues --    0.29211   0.30930   0.32026   0.32677   0.32799

 Mulliken charges:
               1
     1  C   -0.170255
     2  C   -0.218612
     3  C   -0.170523
     4  C    0.158297
     5  C   -0.170675
     6  C   -0.218553
     7  H    0.226518
     8  H    0.224285
     9  H    0.276116
    10  H    0.276091
    11  H    0.224440
    12  N    0.489107
    13  O   -0.460463
    14  O   -0.458476
    15  C   -0.294646
    16  C   -0.301327
    17  C   -0.475148
    18  H    0.154347
    19  H    0.142049
    20  H    0.158059
    21  H    0.146833
    22  H    0.153141
    23  H    0.153641
    24  H    0.153696
    25  C   -0.306058
    26  C   -0.297406
    27  C   -0.478446
    28  H    0.174424
    29  H    0.139977
    30  H    0.154872
    31  H    0.144092
    32  H    0.149255
    33  H    0.167149
    34  H    0.154200
 Sum of Mulliken charges =  -0.00000

 Dipole moment (field-independent basis, Debye):
    X=              5.2547    Y=              1.8409    Z=              0.6275  Tot=              5.6031
 Quadrupole moment (field-independent basis, Debye-Ang):
   XX=            -72.3020   YY=            -94.2740   ZZ=            -95.0915
   XY=              1.7664   XZ=              1.6760   YZ=             -2.0237

 Normal termination of Gaussian 16 at Thu May  6 11:08:12 2021.
