 Gaussian 16, Revision A.03,
 Gaussian 16:  EM64L-G16RevA.03 25-Dec-2016

 -------------
 #p 6-31g* mp2
 -------------

 ------------------------------------------------------
 Input file generated by CHIRIPA (05-May-2021 14:53:13)
 ------------------------------------------------------
 Symbolic Z-matrix:
 Charge =  0 Multiplicity = 1

                         Standard orientation:
 ---------------------------------------------------------------------
 Center     Atomic      Atomic             Coordinates (Angstroms)
 Number     Number       Type             X           Y           Z
 ---------------------------------------------------------------------
      1          6           0        3.643532    0.029609   -0.294375
      2          6           0        5.101077    0.450181   -0.102895
      3          6           0        5.533815    1.544264   -1.079376
      4          1           0        3.502152   -0.320775   -1.325969
      5          1           0        2.996269    0.909008   -0.171483
      6          1           0        5.745296   -0.430019   -0.224743
      7          1           0        5.239049    0.799425    0.928420
      8          1           0        4.915530    2.439036   -0.954048
      9          1           0        5.424653    1.202608   -2.113762
     10          1           0        6.579035    1.829768   -0.924906
     11          6           0        3.196107   -1.063430    0.674545
     12          6           0        1.738561   -1.484003    0.483065
     13          6           0        1.305824   -2.578086    1.459546
     14          1           0        3.843370   -1.942829    0.551654
     15          1           0        3.337487   -0.713046    1.706140
     16          1           0        1.600590   -1.833246   -0.548249
     17          1           0        1.094343   -0.603803    0.604913
     18          1           0        1.414986   -2.236429    2.493933
     19          1           0        1.924109   -3.472858    1.334218
     20          1           0        0.260603   -2.863589    1.305076
     21          6           0       -3.560001   -1.807125   -0.978295
     22          6           0       -4.408697   -0.917790   -0.310973
     23          6           0       -3.927374    0.310005    0.153133
     24          6           0       -2.585859    0.617584   -0.068283
     25          6           0       -1.715397   -0.247321   -0.729741
     26          6           0       -2.218426   -1.469648   -1.185184
     27          1           0       -3.942336   -2.758782   -1.335458
     28          1           0       -5.451033   -1.177228   -0.148886
     29          1           0       -4.562449    1.017172    0.672761
     30          1           0       -0.681090    0.039232   -0.876418
     31          1           0       -1.557015   -2.158359   -1.703119
     32          7           0       -2.064815    1.914501    0.418459
     33          8           0       -0.878934    2.161898    0.210814
     34          8           0       -2.852168    2.659071    0.998398
 ---------------------------------------------------------------------

 SCF Done:  E(RHF) =  -669.535839154     A.U. after   15 cycles
 E2 =    -0.2092111006D+01 EUMP2 =    -0.67162795015972D+03

 The electronic state is 1-A.
 Alpha  occ. eigenvalues --  -20.60828 -20.60821 -15.85869 -11.31181 -11.27769
 Alpha  occ. eigenvalues --  -11.27710 -11.27508 -11.26772 -11.26757 -11.21866
 Alpha  occ. eigenvalues --  -11.21431 -11.21404 -11.21305 -11.21221 -11.20841
 Alpha  occ. eigenvalues --   -1.59894  -1.39450  -1.19364  -1.08770  -1.08420
 Alpha  occ. eigenvalues --   -1.04761  -1.03546  -0.95969  -0.95608  -0.86992
 Alpha  occ. eigenvalues --   -0.86162  -0.82442  -0.79667  -0.78241  -0.77468
 Alpha  occ. eigenvalues --   -0.72090  -0.71212  -0.70477  -0.65073  -0.65010
 Alpha  occ. eigenvalues --   -0.64740  -0.62136  -0.60928  -0.59359  -0.57590
 Alpha  occ. eigenvalues --   -0.55278  -0.55228  -0.53094  -0.52882  -0.52679
 Alpha  occ. eigenvalues --   -0.52377  -0.49901  -0.48848  -0.48845  -0.47936
 Alpha  occ. eigenvalues --   -0.46667  -0.45767  -0.45636  -0.44847  -0.43780
 Alpha  occ. eigenvalues --   -0.37349  -0.36342
 Alpha virt. eigenvalues --    0.05001   0.11233   0.16470   0.20697   0.23044
 Alpha virt. eigenvalues --    0.24219   0.25860   0.26205   0.27559   0.28196
 Alpha virt. eigenvalues --    0.29317   0.30540   0.31543   0.31744   0.32030

 Mulliken charges:
               1
     1  C   -0.302372
     2  C   -0.299553
     3  C   -0.476340
     4  H    0.145386
     5  H    0.160283
     6  H    0.150030
     7  H    0.153611
     8  H    0.159348
     9  H    0.153558
    10  H    0.159770
    11  C   -0.296745
    12  C   -0.309032
    13  C   -0.476005
    14  H    0.148282
    15  H    0.153376
    16  H    0.141540
    17  H    0.162239
    18  H    0.159529
    19  H    0.154766
    20  H    0.157121
    21  C   -0.170708
    22  C   -0.218720
    23  C   -0.170631
    24  C    0.157065
    25  C   -0.170920
    26  C   -0.221191
    27  H    0.225672
    28  H    0.223427
    29  H    0.275492
    30  H    0.280922
    31  H    0.224433
    32  N    0.488765
    33  O   -0.462614
    34  O   -0.459785
 Sum of Mulliken charges =  -0.00000

 Dipole moment (field-independent basis, Debye):
    X=             -1.8184    Y=             -4.4580    Z=             -1.6355  Tot=              5.0848
 Quadrupole moment (field-independent basis, Debye-Ang):
   XX=            -81.2694   YY=           -101.0781   ZZ=            -94.5123
   XY=              9.4011   XZ=              3.0904   YZ=              0.7310

 Normal termination of Gaussian 16 at Thu May  6 07:22:20 2021.
