 Gaussian 16, Revision A.03,
 Gaussian 16:  EM64L-G16RevA.03 25-Dec-2016

 -------------
 #p 6-31g* mp2
 -------------

 ------------------------------------------------------
 Input file generated by CHIRIPA (05-May-2021 14:57:24)
 ------------------------------------------------------
 Symbolic Z-matrix:
 Charge =  0 Multiplicity = 1

                         Standard orientation:
 ---------------------------------------------------------------------
 Center     Atomic      Atomic             Coordinates (Angstroms)
 Number     Number       Type             X           Y           Z
 ---------------------------------------------------------------------
      1          6           0        1.631429    2.341087   -1.248541
      2          6           0        1.429369    1.037840   -1.714631
      3          6           0        2.060594   -0.044116   -1.093766
      4          6           0        2.890998    0.214628   -0.004376
      5          6           0        3.112330    1.501635    0.483391
      6          6           0        2.470785    2.568424   -0.152949
      7          1           0        1.137070    3.175686   -1.736854
      8          1           0        0.778057    0.858305   -2.565280
      9          1           0        1.921825   -1.063150   -1.433959
     10          1           0        3.767308    1.649181    1.333480
     11          1           0        2.629559    3.579484    0.211186
     12          7           0        3.564710   -0.922763    0.661097
     13          8           0        4.291470   -0.668280    1.619061
     14          8           0        3.353250   -2.047196    0.212129
     15          6           0       -4.532443    1.161389    1.036162
     16          6           0       -4.623834    0.707843   -0.283862
     17          6           0       -3.658533   -0.158651   -0.805334
     18          6           0       -2.610539   -0.553234    0.024907
     19          6           0       -2.491893   -0.118701    1.344148
     20          6           0       -3.468641    0.747400    1.844529
     21          1           0       -5.286758    1.834351    1.433063
     22          1           0       -5.448896    1.027698   -0.913948
     23          1           0       -3.704939   -0.525078   -1.823664
     24          1           0       -1.657833   -0.454978    1.948036
     25          1           0       -3.395114    1.098026    2.870054
     26          7           0       -1.582559   -1.470344   -0.515987
     27          8           0       -0.669065   -1.803258    0.235900
     28          8           0       -1.709788   -1.838896   -1.681586
 ---------------------------------------------------------------------

 SCF Done:  E(RHF) =  -868.338457246     A.U. after   16 cycles
 E2 =    -0.2600457856D+01 EUMP2 =    -0.87093891510198D+03

 The electronic state is 1-A.
 Alpha  occ. eigenvalues --  -20.61273 -20.61212 -20.59901 -20.59827 -15.86259
 Alpha  occ. eigenvalues --  -15.84922 -11.31559 -11.30347 -11.28144 -11.28087
 Alpha  occ. eigenvalues --  -11.27854 -11.27135 -11.27095 -11.27075 -11.26854
 Alpha  occ. eigenvalues --  -11.26834 -11.26105 -11.25949  -1.60312  -1.58940
 Alpha  occ. eigenvalues --   -1.39863  -1.38487  -1.19728  -1.18583  -1.09138
 Alpha  occ. eigenvalues --   -1.07983  -1.05117  -1.03993  -0.95982  -0.94789
 Alpha  occ. eigenvalues --   -0.86518  -0.85391  -0.82810  -0.81617  -0.77870
 Alpha  occ. eigenvalues --   -0.76621  -0.72476  -0.71644  -0.71147  -0.70832
 Alpha  occ. eigenvalues --   -0.70256  -0.69709  -0.65379  -0.65117  -0.64240
 Alpha  occ. eigenvalues --   -0.64007  -0.62460  -0.61305  -0.55623  -0.54558
 Alpha  occ. eigenvalues --   -0.53458  -0.53204  -0.52348  -0.52083  -0.49259
 Alpha  occ. eigenvalues --   -0.49225  -0.47929  -0.47877  -0.45284  -0.43874
 Alpha  occ. eigenvalues --   -0.37715  -0.36723  -0.36615  -0.35584
 Alpha virt. eigenvalues --    0.04615   0.05915   0.10934   0.12063   0.16155
 Alpha virt. eigenvalues --    0.17323   0.21097   0.22120   0.27017   0.27898
 Alpha virt. eigenvalues --    0.28126   0.29064   0.30680   0.31594   0.32241

 Mulliken charges:
               1
     1  C   -0.171337
     2  C   -0.228718
     3  C   -0.160316
     4  C    0.155882
     5  C   -0.172609
     6  C   -0.221039
     7  H    0.220866
     8  H    0.225747
     9  H    0.289576
    10  H    0.272493
    11  H    0.218555
    12  N    0.488203
    13  O   -0.467439
    14  O   -0.452189
    15  C   -0.170831
    16  C   -0.219029
    17  C   -0.172737
    18  C    0.158070
    19  C   -0.169845
    20  C   -0.219068
    21  H    0.226432
    22  H    0.223689
    23  H    0.274493
    24  H    0.278821
    25  H    0.225096
    26  N    0.486906
    27  O   -0.454124
    28  O   -0.465549
 Sum of Mulliken charges =  -0.00000

 Dipole moment (field-independent basis, Debye):
    X=             -6.1492    Y=              6.9169    Z=             -0.4018  Tot=              9.2638
 Quadrupole moment (field-independent basis, Debye-Ang):
   XX=            -99.2043   YY=           -106.1596   ZZ=            -99.4167
   XY=              5.3560   XZ=             -8.4514   YZ=              1.0729

 Normal termination of Gaussian 16 at Thu May  6 11:22:07 2021.
