 Gaussian 16, Revision A.03,
 Gaussian 16:  EM64L-G16RevA.03 25-Dec-2016

 -------------
 #p 6-31g* mp2
 -------------

 ------------------------------------------------------
 Input file generated by CHIRIPA (05-May-2021 14:57:24)
 ------------------------------------------------------
 Symbolic Z-matrix:
 Charge =  0 Multiplicity = 1

                         Standard orientation:
 ---------------------------------------------------------------------
 Center     Atomic      Atomic             Coordinates (Angstroms)
 Number     Number       Type             X           Y           Z
 ---------------------------------------------------------------------
      1          6           0       -3.631744   -2.409276    0.631741
      2          6           0       -4.755762   -1.656942    0.988248
      3          6           0       -4.833343   -0.299195    0.664133
      4          6           0       -3.763906    0.276625   -0.019992
      5          6           0       -2.630562   -0.446339   -0.388968
      6          6           0       -2.574595   -1.802643   -0.054520
      7          1           0       -3.579873   -3.463447    0.887534
      8          1           0       -5.578254   -2.125418    1.521243
      9          1           0       -5.691646    0.306712    0.927972
     10          1           0       -1.826423    0.048517   -0.919906
     11          1           0       -1.700423   -2.384455   -0.332662
     12          7           0       -3.834596    1.713248   -0.368587
     13          8           0       -2.879115    2.197027   -0.971621
     14          8           0       -4.844146    2.328290   -0.032182
     15          6           0        6.006747    0.608408    0.891490
     16          6           0        4.838339    0.993898    1.556877
     17          6           0        3.583779    0.640309    1.051307
     18          6           0        3.534299   -0.102524   -0.127268
     19          6           0        4.680388   -0.501582   -0.813217
     20          6           0        5.924187   -0.136788   -0.289353
     21          1           0        6.977141    0.887437    1.291335
     22          1           0        4.899425    1.572662    2.474127
     23          1           0        2.663332    0.925522    1.546128
     24          1           0        4.587551   -1.078155   -1.725556
     25          1           0        6.829921   -0.437551   -0.808229
     26          7           0        2.211848   -0.482784   -0.672177
     27          8           0        2.195225   -1.137530   -1.712210
     28          8           0        1.216975   -0.118885   -0.048926
 ---------------------------------------------------------------------

 SCF Done:  E(RHF) =  -868.340295309     A.U. after   16 cycles
 E2 =    -0.2598406234D+01 EUMP2 =    -0.87093870154304D+03

 The electronic state is 1-A.
 Alpha  occ. eigenvalues --  -20.61415 -20.61391 -20.59790 -20.59765 -15.86414
 Alpha  occ. eigenvalues --  -15.84824 -11.31528 -11.30001 -11.28075 -11.28051
 Alpha  occ. eigenvalues --  -11.27774 -11.27036 -11.27015 -11.26674 -11.26370
 Alpha  occ. eigenvalues --  -11.26363 -11.25686 -11.25423  -1.60465  -1.58861
 Alpha  occ. eigenvalues --   -1.40021  -1.38415  -1.19679  -1.18185  -1.09126
 Alpha  occ. eigenvalues --   -1.07640  -1.05043  -1.03528  -0.96002  -0.94488
 Alpha  occ. eigenvalues --   -0.86454  -0.84959  -0.82839  -0.81302  -0.77912
 Alpha  occ. eigenvalues --   -0.76350  -0.72652  -0.71755  -0.71051  -0.70786
 Alpha  occ. eigenvalues --   -0.70182  -0.69311  -0.65336  -0.65046  -0.63833
 Alpha  occ. eigenvalues --   -0.63533  -0.62390  -0.60843  -0.55561  -0.54119
 Alpha  occ. eigenvalues --   -0.53387  -0.53132  -0.51923  -0.51605  -0.49419
 Alpha  occ. eigenvalues --   -0.49399  -0.47813  -0.47789  -0.45472  -0.43860
 Alpha  occ. eigenvalues --   -0.37648  -0.36633  -0.36227  -0.35124
 Alpha virt. eigenvalues --    0.04601   0.06135   0.11025   0.12503   0.16142
 Alpha virt. eigenvalues --    0.17638   0.21182   0.22636   0.27116   0.28034
 Alpha virt. eigenvalues --    0.28648   0.29525   0.30784   0.32129   0.32294

 Mulliken charges:
               1
     1  C   -0.172158
     2  C   -0.219945
     3  C   -0.172765
     4  C    0.155690
     5  C   -0.169743
     6  C   -0.220933
     7  H    0.221252
     8  H    0.218282
     9  H    0.271208
    10  H    0.291554
    11  H    0.231832
    12  N    0.487828
    13  O   -0.458804
    14  O   -0.466072
    15  C   -0.169866
    16  C   -0.218643
    17  C   -0.170045
    18  C    0.157664
    19  C   -0.170457
    20  C   -0.218686
    21  H    0.227052
    22  H    0.225323
    23  H    0.277530
    24  H    0.275597
    25  H    0.224477
    26  N    0.489770
    27  O   -0.461472
    28  O   -0.465469
 Sum of Mulliken charges =  -0.00000

 Dipole moment (field-independent basis, Debye):
    X=              5.4806    Y=             -3.6988    Z=              3.0752  Tot=              7.2921
 Quadrupole moment (field-independent basis, Debye-Ang):
   XX=            -70.4715   YY=           -108.4290   ZZ=           -102.5245
   XY=             22.1811   XZ=             -2.0382   YZ=              2.5095

 Normal termination of Gaussian 16 at Wed May  5 16:24:44 2021.
