 Gaussian 16, Revision A.03,
 Gaussian 16:  EM64L-G16RevA.03 25-Dec-2016

 -------------
 #p 6-31g* mp2
 -------------

 ------------------------------------------------------
 Input file generated by CHIRIPA (05-May-2021 14:55:23)
 ------------------------------------------------------
 Symbolic Z-matrix:
 Charge =  0 Multiplicity = 1

                         Standard orientation:
 ---------------------------------------------------------------------
 Center     Atomic      Atomic             Coordinates (Angstroms)
 Number     Number       Type             X           Y           Z
 ---------------------------------------------------------------------
      1          6           0        0.725670    0.598821    0.789750
      2          6           0        1.832123    1.121322    1.467448
      3          6           0        3.129578    0.756575    1.095807
      4          6           0        3.284662   -0.137006    0.037151
      5          6           0        2.202329   -0.674773   -0.657581
      6          6           0        0.913972   -0.295981   -0.268736
      7          1           0       -0.278691    0.887621    1.085133
      8          1           0        1.688893    1.816429    2.289858
      9          1           0        4.003853    1.145913    1.603230
     10          1           0        2.376807   -1.365675   -1.473443
     11          1           0        0.056541   -0.703352   -0.796851
     12          7           0        4.653404   -0.530582   -0.365396
     13          8           0        4.763270   -1.319528   -1.301414
     14          8           0        5.590440   -0.042668    0.262728
     15          6           0       -3.753116    0.649236   -0.629354
     16          6           0       -3.344104    1.960661    0.042107
     17          6           0       -3.022129    3.065138   -0.964995
     18          1           0       -2.943829    0.316949   -1.293872
     19          1           0       -4.628204    0.830147   -1.268798
     20          1           0       -2.470891    1.777041    0.681170
     21          1           0       -4.154380    2.289766    0.705250
     22          1           0       -3.891784    3.277189   -1.595340
     23          1           0       -2.198731    2.761551   -1.619557
     24          1           0       -2.732151    3.993700   -0.463451
     25          6           0       -4.078120   -0.464558    0.364407
     26          6           0       -4.487133   -1.775983   -0.307055
     27          6           0       -4.809108   -2.880460    0.700047
     28          1           0       -3.203032   -0.645469    1.003849
     29          1           0       -4.887407   -0.132271    1.028924
     30          1           0       -3.676856   -2.105087   -0.970198
     31          1           0       -5.360345   -1.592363   -0.946117
     32          1           0       -5.632506   -2.576873    1.354609
     33          1           0       -3.939452   -3.092511    1.330392
     34          1           0       -5.099085   -3.809021    0.198502
 ---------------------------------------------------------------------

 SCF Done:  E(RHF) =  -669.535451183     A.U. after   15 cycles
 E2 =    -0.2091576749D+01 EUMP2 =    -0.67162702793179D+03

 The electronic state is 1-A.
 Alpha  occ. eigenvalues --  -20.60759 -20.60754 -15.85813 -11.31183 -11.27756
 Alpha  occ. eigenvalues --  -11.27750 -11.27479 -11.26774 -11.26759 -11.22788
 Alpha  occ. eigenvalues --  -11.22484 -11.22450 -11.22372 -11.21993 -11.21754
 Alpha  occ. eigenvalues --   -1.59835  -1.39388  -1.19356  -1.09457  -1.08749
 Alpha  occ. eigenvalues --   -1.04762  -1.04469  -0.96888  -0.95585  -0.87899
 Alpha  occ. eigenvalues --   -0.86158  -0.82421  -0.80547  -0.79264  -0.77464
 Alpha  occ. eigenvalues --   -0.72031  -0.71158  -0.70494  -0.66118  -0.65007
 Alpha  occ. eigenvalues --   -0.64752  -0.62110  -0.61878  -0.60263  -0.58502
 Alpha  occ. eigenvalues --   -0.56181  -0.55277  -0.53556  -0.53297  -0.53088
 Alpha  occ. eigenvalues --   -0.52853  -0.50829  -0.48849  -0.48786  -0.48784
 Alpha  occ. eigenvalues --   -0.47598  -0.46781  -0.46735  -0.44793  -0.44738
 Alpha  occ. eigenvalues --   -0.37333  -0.36367
 Alpha virt. eigenvalues --    0.05066   0.11274   0.16528   0.17752   0.22774
 Alpha virt. eigenvalues --    0.23616   0.24496   0.25058   0.26953   0.28215
 Alpha virt. eigenvalues --    0.29569   0.30619   0.30951   0.31037   0.31966

 Mulliken charges:
               1
     1  C   -0.176957
     2  C   -0.220649
     3  C   -0.170620
     4  C    0.158453
     5  C   -0.170719
     6  C   -0.223086
     7  H    0.236192
     8  H    0.223998
     9  H    0.275607
    10  H    0.275640
    11  H    0.224172
    12  N    0.487983
    13  O   -0.460459
    14  O   -0.460393
    15  C   -0.299727
    16  C   -0.303511
    17  C   -0.476325
    18  H    0.145178
    19  H    0.155368
    20  H    0.142227
    21  H    0.157226
    22  H    0.159481
    23  H    0.156318
    24  H    0.162394
    25  C   -0.298850
    26  C   -0.299620
    27  C   -0.476321
    28  H    0.143318
    29  H    0.153553
    30  H    0.149453
    31  H    0.155109
    32  H    0.156954
    33  H    0.155358
    34  H    0.163253
 Sum of Mulliken charges =  -0.00000

 Dipole moment (field-independent basis, Debye):
    X=             -5.0666    Y=              1.4154    Z=              1.3783  Tot=              5.4381
 Quadrupole moment (field-independent basis, Debye-Ang):
   XX=           -124.1793   YY=            -94.2816   ZZ=            -92.8158
   XY=              5.9330   XZ=              6.3827   YZ=              2.7598

 Normal termination of Gaussian 16 at Thu May  6 01:30:47 2021.
