 Gaussian 16, Revision A.03,
 Gaussian 16:  EM64L-G16RevA.03 25-Dec-2016

 -------------
 #p 6-31g* mp2
 -------------

 ------------------------------------------------------
 Input file generated by CHIRIPA (05-May-2021 14:55:23)
 ------------------------------------------------------
 Symbolic Z-matrix:
 Charge =  0 Multiplicity = 1

                         Standard orientation:
 ---------------------------------------------------------------------
 Center     Atomic      Atomic             Coordinates (Angstroms)
 Number     Number       Type             X           Y           Z
 ---------------------------------------------------------------------
      1          6           0       -0.988699   -2.783457    0.543214
      2          6           0       -1.905240   -2.601380   -0.497613
      3          6           0       -2.459224   -1.341557   -0.743569
      4          6           0       -2.072578   -0.281099    0.074493
      5          6           0       -1.161815   -0.430673    1.119207
      6          6           0       -0.620560   -1.699433    1.346885
      7          1           0       -0.563295   -3.765590    0.727179
      8          1           0       -2.192978   -3.441436   -1.123359
      9          1           0       -3.170906   -1.172509   -1.542537
     10          1           0       -0.894339    0.425821    1.726079
     11          1           0        0.091015   -1.837893    2.155919
     12          7           0       -2.652318    1.057350   -0.176215
     13          8           0       -2.295340    1.975502    0.558769
     14          8           0       -3.452719    1.162931   -1.102955
     15          6           0        2.225696    1.199389    0.275988
     16          6           0        1.942604    2.477369   -0.514335
     17          6           0        1.332788    3.582893    0.348064
     18          1           0        1.290735    0.840446    0.727599
     19          1           0        2.904699    1.433648    1.107536
     20          1           0        1.265434    2.240501   -1.344968
     21          1           0        2.878312    2.833205   -0.964275
     22          1           0        2.007497    3.847829    1.168539
     23          1           0        0.385455    3.251756    0.785683
     24          1           0        1.138509    4.487290   -0.236900
     25          6           0        2.835500    0.084942   -0.572468
     26          6           0        3.118592   -1.193038    0.217855
     27          6           0        3.728408   -2.298562   -0.644544
     28          1           0        2.156496   -0.149318   -1.404017
     29          1           0        3.770461    0.443885   -1.024079
     30          1           0        2.182884   -1.548874    0.667796
     31          1           0        3.795762   -0.956170    1.048488
     32          1           0        4.675740   -1.967425   -1.082163
     33          1           0        3.053699   -2.563498   -1.465018
     34          1           0        3.922687   -3.202958   -0.059579
 ---------------------------------------------------------------------

 SCF Done:  E(RHF) =  -669.534471234     A.U. after   15 cycles
 E2 =    -0.2095580781D+01 EUMP2 =    -0.67163005201505D+03

 The electronic state is 1-A.
 Alpha  occ. eigenvalues --  -20.60988 -20.60983 -15.86021 -11.31366 -11.27925
 Alpha  occ. eigenvalues --  -11.27921 -11.27660 -11.26928 -11.26918 -11.21912
 Alpha  occ. eigenvalues --  -11.21505 -11.21474 -11.21361 -11.21271 -11.20387
 Alpha  occ. eigenvalues --   -1.60046  -1.39602  -1.19548  -1.08938  -1.08473
 Alpha  occ. eigenvalues --   -1.04950  -1.03496  -0.95928  -0.95773  -0.86958
 Alpha  occ. eigenvalues --   -0.86335  -0.82611  -0.79606  -0.78339  -0.77616
 Alpha  occ. eigenvalues --   -0.72242  -0.71364  -0.70647  -0.65197  -0.65149
 Alpha  occ. eigenvalues --   -0.64962  -0.62277  -0.60881  -0.59368  -0.57539
 Alpha  occ. eigenvalues --   -0.55440  -0.55211  -0.53288  -0.53060  -0.52602
 Alpha  occ. eigenvalues --   -0.52340  -0.49884  -0.48998  -0.48987  -0.47895
 Alpha  occ. eigenvalues --   -0.46641  -0.45845  -0.45724  -0.44927  -0.43755
 Alpha  occ. eigenvalues --   -0.37490  -0.36422
 Alpha virt. eigenvalues --    0.04812   0.10929   0.16232   0.20597   0.23114
 Alpha virt. eigenvalues --    0.23880   0.25668   0.26897   0.27603   0.28074
 Alpha virt. eigenvalues --    0.29918   0.30103   0.31479   0.31592   0.32049

 Mulliken charges:
               1
     1  C   -0.170891
     2  C   -0.218336
     3  C   -0.170929
     4  C    0.157498
     5  C   -0.171829
     6  C   -0.216438
     7  H    0.227171
     8  H    0.224334
     9  H    0.276168
    10  H    0.277453
    11  H    0.226226
    12  N    0.489365
    13  O   -0.461218
    14  O   -0.458594
    15  C   -0.302807
    16  C   -0.298845
    17  C   -0.484009
    18  H    0.146427
    19  H    0.147604
    20  H    0.153287
    21  H    0.150239
    22  H    0.149250
    23  H    0.173100
    24  H    0.162338
    25  C   -0.296319
    26  C   -0.304333
    27  C   -0.475524
    28  H    0.150618
    29  H    0.150836
    30  H    0.148456
    31  H    0.150796
    32  H    0.157857
    33  H    0.154747
    34  H    0.156300
 Sum of Mulliken charges =  -0.00000

 Dipole moment (field-independent basis, Debye):
    X=              1.8094    Y=             -4.6801    Z=              0.8341  Tot=              5.0866
 Quadrupole moment (field-independent basis, Debye-Ang):
   XX=           -102.0721   YY=            -92.4648   ZZ=            -92.2543
   XY=             11.1096   XZ=              0.9323   YZ=              0.6081

 Normal termination of Gaussian 16 at Wed May  5 17:35:02 2021.
