 Gaussian 16, Revision A.03,
 Gaussian 16:  EM64L-G16RevA.03 25-Dec-2016

 -------------
 #p 6-31g* mp2
 -------------

 ------------------------------------------------------
 Input file generated by CHIRIPA (05-May-2021 14:53:12)
 ------------------------------------------------------
 Symbolic Z-matrix:
 Charge =  0 Multiplicity = 1

                         Standard orientation:
 ---------------------------------------------------------------------
 Center     Atomic      Atomic             Coordinates (Angstroms)
 Number     Number       Type             X           Y           Z
 ---------------------------------------------------------------------
      1          6           0        4.829174   -0.092186   -0.263648
      2          6           0        5.719812    1.126547   -0.019849
      3          6           0        6.929184    1.171353   -0.954305
      4          1           0        5.426090   -1.005777   -0.137204
      5          1           0        4.486866   -0.084479   -1.307755
      6          1           0        6.059217    1.117288    1.023863
      7          1           0        5.120660    2.037339   -0.146700
      8          1           0        6.606941    1.205072   -2.000069
      9          1           0        7.550830    0.279793   -0.822855
     10          1           0        7.552180    2.050583   -0.762756
     11          6           0        3.615978   -0.151001    0.662864
     12          6           0        2.725340   -1.369734    0.419065
     13          6           0        1.515968   -1.414539    1.353520
     14          1           0        3.958286   -0.158707    1.706971
     15          1           0        3.019062    0.762590    0.536420
     16          1           0        3.324492   -2.280526    0.545916
     17          1           0        2.385935   -1.360475   -0.624648
     18          1           0        0.894322   -0.522980    1.222071
     19          1           0        1.838211   -1.448258    2.399285
     20          1           0        0.892972   -2.293769    1.161972
     21          6           0       -4.287839    2.379675    0.254100
     22          6           0       -2.899592    2.208629    0.248096
     23          6           0       -2.340591    0.947308    0.021965
     24          6           0       -3.203280   -0.125880   -0.195585
     25          6           0       -4.590413    0.012509   -0.195687
     26          6           0       -5.127339    1.283002    0.032580
     27          1           0       -4.713510    3.363062    0.430594
     28          1           0       -2.245196    3.058520    0.419840
     29          1           0       -1.269377    0.786630    0.011949
     30          1           0       -5.217142   -0.853664   -0.369966
     31          1           0       -6.205838    1.412876    0.036680
     32          7           0       -2.623175   -1.466039   -0.436111
     33          8           0       -3.404822   -2.395512   -0.625176
     34          8           0       -1.397827   -1.561607   -0.431016
 ---------------------------------------------------------------------

 SCF Done:  E(RHF) =  -669.535433698     A.U. after   15 cycles
 E2 =    -0.2091528037D+01 EUMP2 =    -0.67162696173502D+03

 The electronic state is 1-A.
 Alpha  occ. eigenvalues --  -20.60861 -20.60849 -15.85894 -11.31249 -11.27818
 Alpha  occ. eigenvalues --  -11.27811 -11.27556 -11.26830 -11.26820 -11.21374
 Alpha  occ. eigenvalues --  -11.21029 -11.20928 -11.20881 -11.20798 -11.20020
 Alpha  occ. eigenvalues --   -1.59927  -1.39482  -1.19419  -1.08818  -1.07981
 Alpha  occ. eigenvalues --   -1.04821  -1.02992  -0.95676  -0.95415  -0.86457
 Alpha  occ. eigenvalues --   -0.86220  -0.82490  -0.79087  -0.77788  -0.77527
 Alpha  occ. eigenvalues --   -0.72130  -0.71244  -0.70530  -0.65079  -0.64831
 Alpha  occ. eigenvalues --   -0.64615  -0.62177  -0.60390  -0.58817  -0.57018
 Alpha  occ. eigenvalues --   -0.55326  -0.54740  -0.53150  -0.52918  -0.52068
 Alpha  occ. eigenvalues --   -0.51870  -0.49459  -0.48879  -0.48831  -0.47380
 Alpha  occ. eigenvalues --   -0.46146  -0.45331  -0.45251  -0.44856  -0.43212
 Alpha  occ. eigenvalues --   -0.37398  -0.36422
 Alpha virt. eigenvalues --    0.04978   0.11217   0.16467   0.20741   0.23123
 Alpha virt. eigenvalues --    0.24191   0.26272   0.27340   0.27723   0.27994
 Alpha virt. eigenvalues --    0.29282   0.30512   0.31503   0.32217   0.32649

 Mulliken charges:
               1
     1  C   -0.297853
     2  C   -0.298872
     3  C   -0.475414
     4  H    0.150100
     5  H    0.149558
     6  H    0.151237
     7  H    0.149283
     8  H    0.154948
     9  H    0.155534
    10  H    0.158790
    11  C   -0.296558
    12  C   -0.301513
    13  C   -0.471490
    14  H    0.147726
    15  H    0.142680
    16  H    0.150411
    17  H    0.157212
    18  H    0.145906
    19  H    0.145704
    20  H    0.179838
    21  C   -0.170468
    22  C   -0.219628
    23  C   -0.172458
    24  C    0.156940
    25  C   -0.170413
    26  C   -0.218680
    27  H    0.225843
    28  H    0.223874
    29  H    0.279749
    30  H    0.275755
    31  H    0.223657
    32  N    0.490823
    33  O   -0.460048
    34  O   -0.462171
 Sum of Mulliken charges =  -0.00000

 Dipole moment (field-independent basis, Debye):
    X=             -2.2452    Y=              4.5781    Z=              0.7804  Tot=              5.1584
 Quadrupole moment (field-independent basis, Debye-Ang):
   XX=            -78.6243   YY=            -95.2383   ZZ=            -96.1037
   XY=            -13.8182   XZ=             -1.1516   YZ=             -1.0702

 Normal termination of Gaussian 16 at Wed May  5 16:58:49 2021.
