 Gaussian 16, Revision A.03,
 Gaussian 16:  EM64L-G16RevA.03 25-Dec-2016

 -------------
 #p 6-31g* mp2
 -------------

 ------------------------------------------------------
 Input file generated by CHIRIPA (05-May-2021 14:55:22)
 ------------------------------------------------------
 Symbolic Z-matrix:
 Charge =  0 Multiplicity = 1

                         Standard orientation:
 ---------------------------------------------------------------------
 Center     Atomic      Atomic             Coordinates (Angstroms)
 Number     Number       Type             X           Y           Z
 ---------------------------------------------------------------------
      1          6           0       -2.577046    2.466646   -0.195705
      2          6           0       -3.945902    2.190257   -0.115920
      3          6           0       -4.403880    0.869427   -0.101333
      4          6           0       -3.461041   -0.155203   -0.168262
      5          6           0       -2.090742    0.087979   -0.248461
      6          6           0       -1.655460    1.416476   -0.261604
      7          1           0       -2.230094    3.495676   -0.206476
      8          1           0       -4.663897    3.003828   -0.064624
      9          1           0       -5.457888    0.627051   -0.040191
     10          1           0       -1.399021   -0.744158   -0.298356
     11          1           0       -0.591790    1.628146   -0.323631
     12          7           0       -3.933869   -1.557565   -0.153583
     13          8           0       -3.082954   -2.442426   -0.213593
     14          8           0       -5.146432   -1.745320   -0.082346
     15          6           0        4.824547   -0.145014   -0.362001
     16          6           0        6.286915   -0.077267    0.079447
     17          6           0        7.263459   -0.174253   -1.093051
     18          1           0        4.655310   -1.084810   -0.905221
     19          1           0        4.625748    0.667818   -1.074164
     20          1           0        6.482538   -0.889149    0.791624
     21          1           0        6.452645    0.862389    0.621845
     22          1           0        7.096994    0.643492   -1.801701
     23          1           0        7.127056   -1.117997   -1.630957
     24          1           0        8.303132   -0.123726   -0.754841
     25          6           0        3.836223   -0.049350    0.798944
     26          6           0        2.373856   -0.117097    0.357496
     27          6           0        1.397312   -0.020112    1.529994
     28          1           0        4.035024   -0.862183    1.511107
     29          1           0        4.005462    0.890446    1.342164
     30          1           0        2.208126   -1.056753   -0.184902
     31          1           0        2.178234    0.694784   -0.354681
     32          1           0        1.533715    0.923632    2.067900
     33          1           0        1.563777   -0.837857    2.238643
     34          1           0        0.357640   -0.070638    1.191783
 ---------------------------------------------------------------------

 SCF Done:  E(RHF) =  -669.534355945     A.U. after   15 cycles
 E2 =    -0.2092544404D+01 EUMP2 =    -0.67162690034942D+03

 The electronic state is 1-A.
 Alpha  occ. eigenvalues --  -20.60756 -20.60751 -15.85809 -11.31182 -11.27746
 Alpha  occ. eigenvalues --  -11.27727 -11.27479 -11.26771 -11.26724 -11.22349
 Alpha  occ. eigenvalues --  -11.21928 -11.21913 -11.21777 -11.21749 -11.21332
 Alpha  occ. eigenvalues --   -1.59831  -1.39384  -1.19356  -1.08934  -1.08744
 Alpha  occ. eigenvalues --   -1.04780  -1.04042  -0.96489  -0.95581  -0.87502
 Alpha  occ. eigenvalues --   -0.86153  -0.82422  -0.80120  -0.78721  -0.77473
 Alpha  occ. eigenvalues --   -0.72029  -0.71154  -0.70474  -0.65573  -0.65022
 Alpha  occ. eigenvalues --   -0.64758  -0.62291  -0.61423  -0.59784  -0.58072
 Alpha  occ. eigenvalues --   -0.55751  -0.55250  -0.53383  -0.53004  -0.52843
 Alpha  occ. eigenvalues --   -0.52752  -0.50401  -0.48787  -0.48782  -0.48427
 Alpha  occ. eigenvalues --   -0.47153  -0.46262  -0.46172  -0.44789  -0.44295
 Alpha  occ. eigenvalues --   -0.37332  -0.36314
 Alpha virt. eigenvalues --    0.05032   0.11277   0.16439   0.19839   0.22708
 Alpha virt. eigenvalues --    0.23866   0.25690   0.26422   0.27126   0.27570
 Alpha virt. eigenvalues --    0.29244   0.29798   0.31044   0.31540   0.31869

 Mulliken charges:
               1
     1  C   -0.172247
     2  C   -0.218230
     3  C   -0.171400
     4  C    0.157674
     5  C   -0.174044
     6  C   -0.219057
     7  H    0.225716
     8  H    0.223437
     9  H    0.275589
    10  H    0.277223
    11  H    0.230109
    12  N    0.488309
    13  O   -0.460460
    14  O   -0.460418
    15  C   -0.298811
    16  C   -0.300125
    17  C   -0.476007
    18  H    0.151790
    19  H    0.148373
    20  H    0.153382
    21  H    0.151782
    22  H    0.154903
    23  H    0.156358
    24  H    0.161361
    25  C   -0.298117
    26  C   -0.304090
    27  C   -0.483774
    28  H    0.153215
    29  H    0.149693
    30  H    0.156487
    31  H    0.144778
    32  H    0.155128
    33  H    0.163353
    34  H    0.158121
 Sum of Mulliken charges =  -0.00000

 Dipole moment (field-independent basis, Debye):
    X=              1.7870    Y=              4.8961    Z=             -0.0118  Tot=              5.2120
 Quadrupole moment (field-independent basis, Debye-Ang):
   XX=           -101.8558   YY=            -95.2293   ZZ=            -96.0815
   XY=            -19.4888   XZ=              0.2966   YZ=             -0.9199

 Normal termination of Gaussian 16 at Thu May  6 04:38:18 2021.
