 Gaussian 16, Revision A.03,
 Gaussian 16:  EM64L-G16RevA.03 25-Dec-2016

 -------------
 #p 6-31g* mp2
 -------------

 ------------------------------------------------------
 Input file generated by CHIRIPA (05-May-2021 14:57:21)
 ------------------------------------------------------
 Symbolic Z-matrix:
 Charge =  0 Multiplicity = 1

                         Standard orientation:
 ---------------------------------------------------------------------
 Center     Atomic      Atomic             Coordinates (Angstroms)
 Number     Number       Type             X           Y           Z
 ---------------------------------------------------------------------
      1          6           0        2.133833   -2.322215   -0.809528
      2          6           0        1.307226   -1.298589   -1.284325
      3          6           0        1.619016    0.040617   -1.031615
      4          6           0        2.770315    0.321458   -0.297496
      5          6           0        3.613839   -0.676066    0.189026
      6          6           0        3.282476   -2.008240   -0.075661
      7          1           0        1.884025   -3.359811   -1.010491
      8          1           0        0.414539   -1.539468   -1.854528
      9          1           0        0.996693    0.852786   -1.387301
     10          1           0        4.497012   -0.404778    0.754558
     11          1           0        3.926275   -2.801135    0.294318
     12          7           0        3.110753    1.735493   -0.023624
     13          8           0        4.130708    1.956600    0.625562
     14          8           0        2.351189    2.595931   -0.463333
     15          6           0       -1.190449   -1.063899    2.101185
     16          6           0       -1.832241    0.157584    2.330538
     17          6           0       -2.678703    0.707512    1.363257
     18          6           0       -2.861518    0.005900    0.172624
     19          6           0       -2.236277   -1.213021   -0.085442
     20          6           0       -1.394157   -1.744105    0.896052
     21          1           0       -0.534584   -1.483777    2.858112
     22          1           0       -1.675902    0.688051    3.265528
     23          1           0       -3.188079    1.651444    1.514734
     24          1           0       -2.411755   -1.718517   -1.027301
     25          1           0       -0.897045   -2.692903    0.715201
     26          7           0       -3.755331    0.578108   -0.858916
     27          8           0       -3.899817   -0.059684   -1.899580
     28          8           0       -4.294491    1.653563   -0.607241
 ---------------------------------------------------------------------

 SCF Done:  E(RHF) =  -868.336215054     A.U. after   16 cycles
 E2 =    -0.2602677682D+01 EUMP2 =    -0.87093889273642D+03

 The electronic state is 1-A.
 Alpha  occ. eigenvalues --  -20.61151 -20.61124 -20.61119 -20.61110 -15.86192
 Alpha  occ. eigenvalues --  -15.86173 -11.31634 -11.31616 -11.28221 -11.28197
 Alpha  occ. eigenvalues --  -11.28133 -11.28070 -11.27999 -11.27835 -11.27289
 Alpha  occ. eigenvalues --  -11.27243 -11.27240 -11.27108  -1.60213  -1.60194
 Alpha  occ. eigenvalues --   -1.39766  -1.39743  -1.19835  -1.19746  -1.09227
 Alpha  occ. eigenvalues --   -1.09129  -1.05291  -1.05110  -0.96026  -0.95972
 Alpha  occ. eigenvalues --   -0.86649  -0.86549  -0.82871  -0.82784  -0.77930
 Alpha  occ. eigenvalues --   -0.77802  -0.72404  -0.72387  -0.71544  -0.71520
 Alpha  occ. eigenvalues --   -0.70945  -0.70849  -0.65479  -0.65446  -0.65223
 Alpha  occ. eigenvalues --   -0.65166  -0.62665  -0.62422  -0.55772  -0.55636
 Alpha  occ. eigenvalues --   -0.53984  -0.53397  -0.53223  -0.53049  -0.49174
 Alpha  occ. eigenvalues --   -0.49159  -0.49153  -0.49136  -0.45158  -0.45126
 Alpha  occ. eigenvalues --   -0.38081  -0.37692  -0.37265  -0.36040
 Alpha virt. eigenvalues --    0.04532   0.04744   0.10444   0.11172   0.15875
 Alpha virt. eigenvalues --    0.16385   0.19748   0.21784   0.25502   0.26723
 Alpha virt. eigenvalues --    0.28072   0.28596   0.29841   0.31228   0.32089

 Mulliken charges:
               1
     1  C   -0.178563
     2  C   -0.214030
     3  C   -0.168517
     4  C    0.158086
     5  C   -0.172899
     6  C   -0.219300
     7  H    0.222907
     8  H    0.223533
     9  H    0.279626
    10  H    0.276030
    11  H    0.223498
    12  N    0.487530
    13  O   -0.460606
    14  O   -0.457392
    15  C   -0.171012
    16  C   -0.216821
    17  C   -0.169904
    18  C    0.158558
    19  C   -0.180757
    20  C   -0.209096
    21  H    0.226770
    22  H    0.227467
    23  H    0.278773
    24  H    0.269847
    25  H    0.217605
    26  N    0.487879
    27  O   -0.463130
    28  O   -0.456080
 Sum of Mulliken charges =  -0.00000

 Dipole moment (field-independent basis, Debye):
    X=              1.9209    Y=             -6.7466    Z=              2.8050  Tot=              7.5548
 Quadrupole moment (field-independent basis, Debye-Ang):
   XX=           -127.0814   YY=           -105.6508   ZZ=           -100.7550
   XY=            -10.8506   XZ=            -10.8086   YZ=              2.6289

 Normal termination of Gaussian 16 at Thu May  6 06:28:09 2021.
