 Gaussian 16, Revision A.03,
 Gaussian 16:  EM64L-G16RevA.03 25-Dec-2016

 -------------
 #p 6-31g* mp2
 -------------

 ------------------------------------------------------
 Input file generated by CHIRIPA (05-May-2021 14:55:20)
 ------------------------------------------------------
 Symbolic Z-matrix:
 Charge =  0 Multiplicity = 1

                         Standard orientation:
 ---------------------------------------------------------------------
 Center     Atomic      Atomic             Coordinates (Angstroms)
 Number     Number       Type             X           Y           Z
 ---------------------------------------------------------------------
      1          6           0        2.262354    2.420927    0.582893
      2          6           0        1.616389    1.206126    0.834901
      3          6           0        2.215972   -0.004712    0.475845
      4          6           0        3.467732    0.036364   -0.136282
      5          6           0        4.136624    1.230510   -0.400647
      6          6           0        3.518196    2.429227   -0.032991
      7          1           0        1.789264    3.356827    0.865157
      8          1           0        0.641036    1.196645    1.313067
      9          1           0        1.738212   -0.959456    0.659220
     10          1           0        5.108384    1.207989   -0.878762
     11          1           0        4.022201    3.371160   -0.229932
     12          7           0        4.112459   -1.239080   -0.520951
     13          8           0        5.215700   -1.175900   -1.059007
     14          8           0        3.502346   -2.277802   -0.277115
     15          6           0       -5.027038   -0.090435    0.182958
     16          6           0       -5.713800    0.280778   -1.131783
     17          6           0       -7.162368    0.729237   -0.936006
     18          1           0       -5.597114   -0.891120    0.673734
     19          1           0       -5.055795    0.774182    0.860460
     20          1           0       -5.682534   -0.583840   -1.807115
     21          1           0       -5.141916    1.080540   -1.619578
     22          1           0       -7.209081    1.606665   -0.282906
     23          1           0       -7.752771   -0.067172   -0.471508
     24          1           0       -7.634185    0.989821   -1.888552
     25          6           0       -3.578333   -0.540791    0.003624
     26          6           0       -2.891571   -0.912004    1.318366
     27          6           0       -1.443003   -1.360463    1.122589
     28          1           0       -3.549576   -1.405407   -0.673876
     29          1           0       -3.008256    0.259894   -0.487151
     30          1           0       -3.463455   -1.711766    1.806161
     31          1           0       -2.922837   -0.047385    1.993698
     32          1           0       -0.852599   -0.564054    0.658091
     33          1           0       -1.396290   -2.237890    0.469489
     34          1           0       -0.971185   -1.621046    2.075135
 ---------------------------------------------------------------------

 SCF Done:  E(RHF) =  -669.535175624     A.U. after   15 cycles
 E2 =    -0.2091662026D+01 EUMP2 =    -0.67162683765044D+03

 The electronic state is 1-A.
 Alpha  occ. eigenvalues --  -20.60710 -20.60704 -15.85762 -11.31120 -11.27712
 Alpha  occ. eigenvalues --  -11.27655 -11.27455 -11.26725 -11.26679 -11.22267
 Alpha  occ. eigenvalues --  -11.21946 -11.21903 -11.21896 -11.21789 -11.21363
 Alpha  occ. eigenvalues --   -1.59785  -1.39338  -1.19303  -1.08929  -1.08701
 Alpha  occ. eigenvalues --   -1.04713  -1.04053  -0.96523  -0.95533  -0.87550
 Alpha  occ. eigenvalues --   -0.86103  -0.82374  -0.80130  -0.78715  -0.77407
 Alpha  occ. eigenvalues --   -0.71982  -0.71108  -0.70415  -0.65580  -0.64957
 Alpha  occ. eigenvalues --   -0.64715  -0.62182  -0.61361  -0.59887  -0.58102
 Alpha  occ. eigenvalues --   -0.55826  -0.55198  -0.53220  -0.53085  -0.52880
 Alpha  occ. eigenvalues --   -0.52789  -0.50445  -0.48741  -0.48735  -0.48426
 Alpha  occ. eigenvalues --   -0.47144  -0.46261  -0.46172  -0.44745  -0.44297
 Alpha  occ. eigenvalues --   -0.37292  -0.36298
 Alpha virt. eigenvalues --    0.05099   0.11336   0.16501   0.20452   0.22528
 Alpha virt. eigenvalues --    0.23800   0.25883   0.26174   0.27111   0.27973
 Alpha virt. eigenvalues --    0.29092   0.29770   0.31157   0.31494   0.32083

 Mulliken charges:
               1
     1  C   -0.170960
     2  C   -0.223183
     3  C   -0.173724
     4  C    0.158199
     5  C   -0.170609
     6  C   -0.218898
     7  H    0.225230
     8  H    0.226523
     9  H    0.281883
    10  H    0.275421
    11  H    0.223161
    12  N    0.488122
    13  O   -0.460817
    14  O   -0.460231
    15  C   -0.298617
    16  C   -0.299978
    17  C   -0.475944
    18  H    0.151302
    19  H    0.148446
    20  H    0.153642
    21  H    0.151514
    22  H    0.154758
    23  H    0.156093
    24  H    0.161411
    25  C   -0.298727
    26  C   -0.300564
    27  C   -0.485953
    28  H    0.153133
    29  H    0.147983
    30  H    0.156543
    31  H    0.149014
    32  H    0.149129
    33  H    0.165307
    34  H    0.161391
 Sum of Mulliken charges =  -0.00000

 Dipole moment (field-independent basis, Debye):
    X=             -2.4341    Y=              4.4057    Z=              1.3284  Tot=              5.2057
 Quadrupole moment (field-independent basis, Debye-Ang):
   XX=           -108.2132   YY=            -92.5989   ZZ=            -95.2889
   XY=             18.8162   XZ=              3.4919   YZ=             -1.5129

 Normal termination of Gaussian 16 at Thu May  6 12:26:15 2021.
