 Gaussian 16, Revision A.03,
 Gaussian 16:  EM64L-G16RevA.03 25-Dec-2016

 -------------
 #p 6-31g* mp2
 -------------

 ------------------------------------------------------
 Input file generated by CHIRIPA (05-May-2021 14:53:17)
 ------------------------------------------------------
 Symbolic Z-matrix:
 Charge =  0 Multiplicity = 1

                         Standard orientation:
 ---------------------------------------------------------------------
 Center     Atomic      Atomic             Coordinates (Angstroms)
 Number     Number       Type             X           Y           Z
 ---------------------------------------------------------------------
      1          6           0       -2.698572    0.600781    0.047012
      2          6           0       -2.556660    2.121368    0.122262
      3          6           0       -1.157078    2.564018    0.550077
      4          1           0       -2.459247    0.167574    1.027828
      5          1           0       -1.955828    0.204691   -0.659274
      6          1           0       -3.300371    2.514608    0.827153
      7          1           0       -2.796536    2.551020   -0.858796
      8          1           0       -0.404815    2.199407   -0.156859
      9          1           0       -0.911513    2.162789    1.538669
     10          1           0       -1.077851    3.654593    0.597307
     11          6           0       -4.092185    0.142759   -0.379352
     12          6           0       -4.234097   -1.377827   -0.454602
     13          6           0       -5.633678   -1.820478   -0.882418
     14          1           0       -4.834928    0.538849    0.326934
     15          1           0       -4.331509    0.575966   -1.360169
     16          1           0       -3.994221   -1.807480    0.526456
     17          1           0       -3.490386   -1.771068   -1.159494
     18          1           0       -5.879244   -1.419249   -1.871010
     19          1           0       -6.385942   -1.455867   -0.175481
     20          1           0       -5.712905   -2.911052   -0.929648
     21          6           0        3.854052    0.190240   -2.036160
     22          6           0        3.909257   -1.089444   -1.474127
     23          6           0        3.247422   -1.367144   -0.274375
     24          6           0        2.536491   -0.336917    0.339220
     25          6           0        2.462675    0.948221   -0.195816
     26          6           0        3.132210    1.203203   -1.396339
     27          1           0        4.371171    0.397140   -2.968456
     28          1           0        4.469085   -1.878065   -1.968813
     29          1           0        3.273559   -2.348872    0.182732
     30          1           0        1.896563    1.713904    0.320580
     31          1           0        3.087597    2.197962   -1.830515
     32          7           0        1.831760   -0.618880    1.609752
     33          8           0        1.212225    0.306021    2.130684
     34          8           0        1.912273   -1.759443    2.060604
 ---------------------------------------------------------------------

 SCF Done:  E(RHF) =  -669.535444539     A.U. after   15 cycles
 E2 =    -0.2092225126D+01 EUMP2 =    -0.67162766966498D+03

 The electronic state is 1-A.
 Alpha  occ. eigenvalues --  -20.60820 -20.60815 -15.85863 -11.31198 -11.27776
 Alpha  occ. eigenvalues --  -11.27719 -11.27517 -11.26788 -11.26773 -11.21231
 Alpha  occ. eigenvalues --  -11.21216 -11.21002 -11.20877 -11.20776 -11.20601
 Alpha  occ. eigenvalues --   -1.59887  -1.39442  -1.19375  -1.08776  -1.08020
 Alpha  occ. eigenvalues --   -1.04775  -1.03147  -0.95670  -0.95548  -0.86636
 Alpha  occ. eigenvalues --   -0.86164  -0.82451  -0.79235  -0.77846  -0.77461
 Alpha  occ. eigenvalues --   -0.72093  -0.71202  -0.70490  -0.65032  -0.64797
 Alpha  occ. eigenvalues --   -0.64638  -0.62146  -0.60537  -0.58967  -0.57201
 Alpha  occ. eigenvalues --   -0.55305  -0.54868  -0.53107  -0.52908  -0.52314
 Alpha  occ. eigenvalues --   -0.51962  -0.49537  -0.48848  -0.48829  -0.47507
 Alpha  occ. eigenvalues --   -0.46237  -0.45413  -0.45291  -0.44754  -0.43403
 Alpha  occ. eigenvalues --   -0.37357  -0.36365
 Alpha virt. eigenvalues --    0.04998   0.11211   0.16481   0.21240   0.23290
 Alpha virt. eigenvalues --    0.24717   0.26343   0.27162   0.27760   0.28031
 Alpha virt. eigenvalues --    0.29317   0.30833   0.31572   0.31871   0.32333

 Mulliken charges:
               1
     1  C   -0.299285
     2  C   -0.299354
     3  C   -0.483545
     4  H    0.160226
     5  H    0.145333
     6  H    0.152478
     7  H    0.147232
     8  H    0.141472
     9  H    0.181332
    10  H    0.154168
    11  C   -0.298103
    12  C   -0.299665
    13  C   -0.475492
    14  H    0.149534
    15  H    0.146779
    16  H    0.155498
    17  H    0.150241
    18  H    0.153423
    19  H    0.155214
    20  H    0.159676
    21  C   -0.170462
    22  C   -0.218653
    23  C   -0.170730
    24  C    0.156693
    25  C   -0.173077
    26  C   -0.220895
    27  H    0.225629
    28  H    0.223461
    29  H    0.275547
    30  H    0.283740
    31  H    0.223961
    32  N    0.490250
    33  O   -0.462432
    34  O   -0.460190
 Sum of Mulliken charges =  -0.00000

 Dipole moment (field-independent basis, Debye):
    X=              2.5460    Y=              0.9175    Z=             -4.2877  Tot=              5.0703
 Quadrupole moment (field-independent basis, Debye-Ang):
   XX=            -83.4258   YY=            -91.6498   ZZ=            -97.4973
   XY=             -0.4248   XZ=            -11.8173   YZ=              2.0533

 Normal termination of Gaussian 16 at Thu May  6 13:57:50 2021.
