 Gaussian 16, Revision A.03,
 Gaussian 16:  EM64L-G16RevA.03 25-Dec-2016

 -------------
 #p 6-31g* mp2
 -------------

 ------------------------------------------------------
 Input file generated by CHIRIPA (05-May-2021 14:51:10)
 ------------------------------------------------------
 Symbolic Z-matrix:
 Charge =  0 Multiplicity = 1

                         Standard orientation:
 ---------------------------------------------------------------------
 Center     Atomic      Atomic             Coordinates (Angstroms)
 Number     Number       Type             X           Y           Z
 ---------------------------------------------------------------------
      1          6           0        2.896574   -0.727928   -0.011040
      2          6           0        1.878497   -0.478765    1.102253
      3          6           0        0.508764   -1.086007    0.797488
      4          1           0        2.510692   -0.312138   -0.951868
      5          1           0        3.000977   -1.810550   -0.167327
      6          1           0        1.777073    0.603028    1.257341
      7          1           0        2.266934   -0.895027    2.040581
      8          1           0        0.588957   -2.169614    0.663447
      9          1           0        0.096313   -0.663046   -0.124243
     10          1           0       -0.203585   -0.896019    1.606391
     11          6           0        4.270749   -0.126910    0.279044
     12          6           0        5.288826   -0.376073   -0.834249
     13          6           0        6.658560    0.231169   -0.529484
     14          1           0        4.166346    0.955712    0.435331
     15          1           0        4.656632   -0.542700    1.219873
     16          1           0        4.900390    0.040189   -1.772577
     17          1           0        5.390250   -1.457866   -0.989336
     18          1           0        7.071011   -0.191792    0.392248
     19          1           0        6.578367    1.314776   -0.395443
     20          1           0        7.370909    0.041181   -1.338386
     21          6           0       -3.714480   -0.296664    0.070988
     22          6           0       -4.907171   -0.925089   -0.650509
     23          6           0       -5.156217   -2.373802   -0.229797
     24          1           0       -2.816151   -0.897175   -0.127341
     25          1           0       -3.886394   -0.340152    1.155400
     26          1           0       -4.733685   -0.879181   -1.733288
     27          1           0       -5.802729   -0.322904   -0.450595
     28          1           0       -5.354793   -2.434074    0.845161
     29          1           0       -4.279676   -2.993512   -0.444819
     30          1           0       -6.013252   -2.803495   -0.757732
     31          6           0       -3.452843    1.151503   -0.338993
     32          6           0       -2.260153    1.779927    0.382505
     33          6           0       -2.011106    3.228640   -0.038208
     34          1           0       -3.280929    1.194990   -1.423405
     35          1           0       -4.351173    1.752014   -0.140664
     36          1           0       -1.364595    1.177741    0.182591
     37          1           0       -2.433639    1.734019    1.465284
     38          1           0       -2.887649    3.848351    0.176814
     39          1           0       -1.812530    3.288913   -1.113166
     40          1           0       -1.154072    3.658333    0.489728
 ---------------------------------------------------------------------

 SCF Done:  E(RHF) =  -470.732782825     A.U. after   11 cycles
 E2 =    -0.1583205605D+01 EUMP2 =    -0.47231598842967D+03

 The electronic state is 1-A.
 Alpha  occ. eigenvalues --  -11.21636 -11.21619 -11.21553 -11.21487 -11.21432
 Alpha  occ. eigenvalues --  -11.21372 -11.21340 -11.21278 -11.21092 -11.21084
 Alpha  occ. eigenvalues --  -11.21038 -11.21028  -1.08462  -1.08369  -1.03569
 Alpha  occ. eigenvalues --   -1.03468  -0.96013  -0.95930  -0.87042  -0.86939
 Alpha  occ. eigenvalues --   -0.79661  -0.79515  -0.78285  -0.78160  -0.65157
 Alpha  occ. eigenvalues --   -0.64958  -0.61089  -0.60769  -0.59407  -0.59262
 Alpha  occ. eigenvalues --   -0.57618  -0.57537  -0.55327  -0.55215  -0.52753
 Alpha  occ. eigenvalues --   -0.52582  -0.52436  -0.52354  -0.50060  -0.49824
 Alpha  occ. eigenvalues --   -0.47947  -0.47845  -0.46784  -0.46481  -0.45876
 Alpha  occ. eigenvalues --   -0.45751  -0.45698  -0.45444  -0.43793  -0.43715
 Alpha virt. eigenvalues --    0.21434   0.23025   0.23802   0.24760   0.25836
 Alpha virt. eigenvalues --    0.26664   0.26749   0.27462   0.28005   0.29458
 Alpha virt. eigenvalues --    0.30593   0.31367   0.31742   0.31987   0.32162

 Mulliken charges:
               1
     1  C   -0.298398
     2  C   -0.301661
     3  C   -0.478801
     4  H    0.149483
     5  H    0.149620
     6  H    0.152725
     7  H    0.152421
     8  H    0.155498
     9  H    0.155652
    10  H    0.163552
    11  C   -0.298310
    12  C   -0.299668
    13  C   -0.475728
    14  H    0.149629
    15  H    0.149749
    16  H    0.151927
    17  H    0.151940
    18  H    0.155217
    19  H    0.155245
    20  H    0.160305
    21  C   -0.301828
    22  C   -0.299508
    23  C   -0.475660
    24  H    0.154429
    25  H    0.148892
    26  H    0.151638
    27  H    0.151734
    28  H    0.155030
    29  H    0.155396
    30  H    0.159991
    31  C   -0.297640
    32  C   -0.307729
    33  C   -0.475203
    34  H    0.148623
    35  H    0.149261
    36  H    0.162418
    37  H    0.150836
    38  H    0.154988
    39  H    0.154464
    40  H    0.159468
 Sum of Mulliken charges =  -0.00000

 Dipole moment (field-independent basis, Debye):
    X=              0.0400    Y=             -0.0321    Z=              0.0158  Tot=              0.0537
 Quadrupole moment (field-independent basis, Debye-Ang):
   XX=            -85.6720   YY=            -85.2909   ZZ=            -84.0602
   XY=             -1.1053   XZ=             -0.3592   YZ=              0.0083

 Normal termination of Gaussian 16 at Wed May  5 16:41:54 2021.
