 Gaussian 16, Revision A.03,
 Gaussian 16:  EM64L-G16RevA.03 25-Dec-2016

 -------------
 #p 6-31g* mp2
 -------------

 ------------------------------------------------------
 Input file generated by CHIRIPA (05-May-2021 14:55:25)
 ------------------------------------------------------
 Symbolic Z-matrix:
 Charge =  0 Multiplicity = 1

                         Standard orientation:
 ---------------------------------------------------------------------
 Center     Atomic      Atomic             Coordinates (Angstroms)
 Number     Number       Type             X           Y           Z
 ---------------------------------------------------------------------
      1          6           0        6.130476    0.167016    0.137798
      2          6           0        5.508674   -1.060527   -0.113248
      3          6           0        4.124105   -1.131357   -0.293525
      4          6           0        3.388650    0.050321   -0.215847
      5          6           0        3.979022    1.288427    0.032837
      6          6           0        5.365015    1.335514    0.209912
      7          1           0        7.206595    0.212816    0.276597
      8          1           0        6.100627   -1.969614   -0.169792
      9          1           0        3.617011   -2.068377   -0.489145
     10          1           0        3.362434    2.177622    0.083523
     11          1           0        5.845218    2.290234    0.404744
     12          7           0        1.922116   -0.012097   -0.405003
     13          8           0        1.296553    1.043340   -0.331774
     14          8           0        1.425977   -1.115274   -0.622911
     15          6           0       -4.044969   -0.538719    0.328677
     16          6           0       -2.839362    0.157107    0.961388
     17          6           0       -1.643177   -0.778411    1.139553
     18          1           0       -4.336400   -1.393915    0.953700
     19          1           0       -3.751629   -0.950242   -0.647026
     20          1           0       -3.135259    0.568394    1.934991
     21          1           0       -2.550886    1.010860    0.334887
     22          1           0       -1.320229   -1.179124    0.173254
     23          1           0       -1.907921   -1.624103    1.782449
     24          1           0       -0.792542   -0.260464    1.593437
     25          6           0       -5.248735    0.383563    0.144083
     26          6           0       -6.454342   -0.312263   -0.488628
     27          6           0       -7.650527    0.623255   -0.666792
     28          1           0       -5.542075    0.795086    1.119786
     29          1           0       -4.957303    1.238759   -0.480939
     30          1           0       -6.742818   -1.166016    0.137873
     31          1           0       -6.158445   -0.723550   -1.462231
     32          1           0       -7.385783    1.468948   -1.309689
     33          1           0       -7.973476    1.023968    0.299507
     34          1           0       -8.501161    0.105308   -1.120677
 ---------------------------------------------------------------------

 SCF Done:  E(RHF) =  -669.536058262     A.U. after   15 cycles
 E2 =    -0.2091600003D+01 EUMP2 =    -0.67162765826565D+03

 The electronic state is 1-A.
 Alpha  occ. eigenvalues --  -20.60974 -20.60965 -15.85984 -11.31310 -11.27869
 Alpha  occ. eigenvalues --  -11.27865 -11.27606 -11.26875 -11.26865 -11.20816
 Alpha  occ. eigenvalues --  -11.20426 -11.20413 -11.20159 -11.20018 -11.19028
 Alpha  occ. eigenvalues --   -1.60016  -1.39574  -1.19475  -1.08880  -1.07304
 Alpha  occ. eigenvalues --   -1.04870  -1.02298  -0.95726  -0.94730  -0.86270
 Alpha  occ. eigenvalues --   -0.85754  -0.82556  -0.78424  -0.77609  -0.77059
 Alpha  occ. eigenvalues --   -0.72204  -0.71332  -0.70582  -0.65129  -0.64874
 Alpha  occ. eigenvalues --   -0.63942  -0.62216  -0.59693  -0.58203  -0.56332
 Alpha  occ. eigenvalues --   -0.55380  -0.54031  -0.53202  -0.52961  -0.51442
 Alpha  occ. eigenvalues --   -0.51175  -0.49210  -0.48953  -0.48396  -0.46710
 Alpha  occ. eigenvalues --   -0.45455  -0.44986  -0.44585  -0.44452  -0.42561
 Alpha  occ. eigenvalues --   -0.37451  -0.36470
 Alpha virt. eigenvalues --    0.04906   0.11185   0.16407   0.21322   0.23913
 Alpha virt. eigenvalues --    0.25619   0.27240   0.27739   0.28204   0.28558
 Alpha virt. eigenvalues --    0.29348   0.30905   0.32405   0.32661   0.32774

 Mulliken charges:
               1
     1  C   -0.170555
     2  C   -0.218571
     3  C   -0.170747
     4  C    0.158922
     5  C   -0.170836
     6  C   -0.218583
     7  H    0.226043
     8  H    0.223898
     9  H    0.275964
    10  H    0.275823
    11  H    0.223867
    12  N    0.488418
    13  O   -0.459779
    14  O   -0.457895
    15  C   -0.297763
    16  C   -0.300356
    17  C   -0.473506
    18  H    0.145614
    19  H    0.150523
    20  H    0.143428
    21  H    0.157387
    22  H    0.176263
    23  H    0.140900
    24  H    0.158666
    25  C   -0.297342
    26  C   -0.298806
    27  C   -0.475064
    28  H    0.146893
    29  H    0.149370
    30  H    0.150249
    31  H    0.151490
    32  H    0.154499
    33  H    0.153790
    34  H    0.157796
 Sum of Mulliken charges =  -0.00000

 Dipole moment (field-independent basis, Debye):
    X=              5.5888    Y=              0.2277    Z=              0.5211  Tot=              5.6176
 Quadrupole moment (field-independent basis, Debye-Ang):
   XX=            -62.5756   YY=            -90.1476   ZZ=            -95.3918
   XY=              1.2214   XZ=              0.9943   YZ=              0.7692

 Normal termination of Gaussian 16 at Thu May  6 17:45:42 2021.
