 Gaussian 16, Revision A.03,
 Gaussian 16:  EM64L-G16RevA.03 25-Dec-2016

 -------------
 #p 6-31g* mp2
 -------------

 ------------------------------------------------------
 Input file generated by CHIRIPA (05-May-2021 14:57:27)
 ------------------------------------------------------
 Symbolic Z-matrix:
 Charge =  0 Multiplicity = 1

                         Standard orientation:
 ---------------------------------------------------------------------
 Center     Atomic      Atomic             Coordinates (Angstroms)
 Number     Number       Type             X           Y           Z
 ---------------------------------------------------------------------
      1          6           0        4.722629    2.388110   -0.155744
      2          6           0        5.406463    1.306800   -0.721130
      3          6           0        4.866986    0.018217   -0.665749
      4          6           0        3.636062   -0.153730   -0.034440
      5          6           0        2.930555    0.903445    0.538212
      6          6           0        3.489032    2.183342    0.471018
      7          1           0        5.149087    3.385738   -0.203354
      8          1           0        6.364662    1.462859   -1.208516
      9          1           0        5.375046   -0.836685   -1.095208
     10          1           0        1.977187    0.716625    1.017385
     11          1           0        2.955721    3.021237    0.910968
     12          7           0        3.054885   -1.513297    0.030443
     13          8           0        1.968909   -1.638398    0.592265
     14          8           0        3.696338   -2.428082   -0.481752
     15          6           0       -1.885788   -1.625341    0.779958
     16          6           0       -2.214546   -0.511459    1.559513
     17          6           0       -3.235603    0.356905    1.162103
     18          6           0       -3.910318    0.079988   -0.025907
     19          6           0       -3.606059   -1.021550   -0.824236
     20          6           0       -2.581366   -1.876389   -0.407336
     21          1           0       -1.091194   -2.294654    1.096246
     22          1           0       -1.676043   -0.314014    2.482051
     23          1           0       -3.510668    1.226513    1.746515
     24          1           0       -4.160707   -1.192264   -1.738916
     25          1           0       -2.328203   -2.740681   -1.014749
     26          7           0       -4.993189    0.992126   -0.456944
     27          8           0       -5.572550    0.726120   -1.507762
     28          8           0       -5.242078    1.955797    0.264188
 ---------------------------------------------------------------------

 SCF Done:  E(RHF) =  -868.339978086     A.U. after   16 cycles
 E2 =    -0.2598312532D+01 EUMP2 =    -0.87093829061720D+03

 The electronic state is 1-A.
 Alpha  occ. eigenvalues --  -20.61638 -20.61590 -20.60394 -20.60385 -15.86659
 Alpha  occ. eigenvalues --  -15.85443 -11.31776 -11.30628 -11.28333 -11.28299
 Alpha  occ. eigenvalues --  -11.27996 -11.27270 -11.27256 -11.27245 -11.27192
 Alpha  occ. eigenvalues --  -11.26699 -11.26134 -11.26049  -1.60680  -1.59474
 Alpha  occ. eigenvalues --   -1.40244  -1.39032  -1.19921  -1.18781  -1.09358
 Alpha  occ. eigenvalues --   -1.08157  -1.05289  -1.04176  -0.96239  -0.95025
 Alpha  occ. eigenvalues --   -0.86698  -0.85551  -0.83087  -0.81883  -0.78161
 Alpha  occ. eigenvalues --   -0.77000  -0.72909  -0.71983  -0.71661  -0.71026
 Alpha  occ. eigenvalues --   -0.70799  -0.69744  -0.65579  -0.65287  -0.64410
 Alpha  occ. eigenvalues --   -0.64155  -0.62644  -0.61540  -0.55789  -0.54486
 Alpha  occ. eigenvalues --   -0.53627  -0.53378  -0.52498  -0.52249  -0.49658
 Alpha  occ. eigenvalues --   -0.49610  -0.48429  -0.48401  -0.45702  -0.44480
 Alpha  occ. eigenvalues --   -0.37880  -0.36880  -0.36664  -0.35814
 Alpha virt. eigenvalues --    0.04359   0.05564   0.10779   0.11846   0.15905
 Alpha virt. eigenvalues --    0.17125   0.20857   0.22180   0.26746   0.27482
 Alpha virt. eigenvalues --    0.28136   0.29208   0.30598   0.31707   0.32032

 Mulliken charges:
               1
     1  C   -0.169817
     2  C   -0.218417
     3  C   -0.170443
     4  C    0.158060
     5  C   -0.169673
     6  C   -0.218152
     7  H    0.228089
     8  H    0.225439
     9  H    0.276330
    10  H    0.272062
    11  H    0.225403
    12  N    0.491561
    13  O   -0.472510
    14  O   -0.457077
    15  C   -0.168192
    16  C   -0.223916
    17  C   -0.172822
    18  C    0.156692
    19  C   -0.171720
    20  C   -0.220984
    21  H    0.245493
    22  H    0.220571
    23  H    0.271610
    24  H    0.273696
    25  H    0.225819
    26  N    0.488282
    27  O   -0.461820
    28  O   -0.463563
 Sum of Mulliken charges =  -0.00000

 Dipole moment (field-independent basis, Debye):
    X=              6.2916    Y=              1.4722    Z=              1.2422  Tot=              6.5798
 Quadrupole moment (field-independent basis, Debye-Ang):
   XX=           -117.7551   YY=           -105.0648   ZZ=           -101.4048
   XY=             29.8042   XZ=             -8.7136   YZ=              3.6864

 Normal termination of Gaussian 16 at Thu May  6 14:50:32 2021.
