 Gaussian 16, Revision A.03,
 Gaussian 16:  EM64L-G16RevA.03 25-Dec-2016

 -------------
 #p 6-31g* mp2
 -------------

 ------------------------------------------------------
 Input file generated by CHIRIPA (05-May-2021 14:51:11)
 ------------------------------------------------------
 Symbolic Z-matrix:
 Charge =  0 Multiplicity = 1

                         Standard orientation:
 ---------------------------------------------------------------------
 Center     Atomic      Atomic             Coordinates (Angstroms)
 Number     Number       Type             X           Y           Z
 ---------------------------------------------------------------------
      1          6           0        3.065481    0.725631    0.301073
      2          6           0        3.385335    2.108937   -0.266501
      3          6           0        3.619251    3.155467    0.823386
      4          1           0        2.175350    0.795781    0.941144
      5          1           0        3.891940    0.402878    0.949295
      6          1           0        2.559145    2.428388   -0.914557
      7          1           0        4.274696    2.035449   -0.905448
      8          1           0        4.456778    2.862965    1.464940
      9          1           0        2.731479    3.258137    1.455779
     10          1           0        3.846314    4.136893    0.395478
     11          6           0        2.829099   -0.331374   -0.776235
     12          6           0        2.509245   -1.714680   -0.208661
     13          6           0        2.275329   -2.761210   -1.298547
     14          1           0        2.002640   -0.008621   -1.424457
     15          1           0        3.719230   -0.401524   -1.416306
     16          1           0        1.619884   -1.641192    0.430286
     17          1           0        3.335435   -2.034131    0.439395
     18          1           0        3.163101   -2.863880   -1.930941
     19          1           0        1.437802   -2.468708   -1.940102
     20          1           0        2.048266   -3.742636   -0.870639
     21          6           0       -2.647864   -0.898575    0.195767
     22          6           0       -1.606416   -1.178913    1.279641
     23          6           0       -1.016528   -2.586197    1.182810
     24          1           0       -3.453860   -1.641435    0.269752
     25          1           0       -2.185563   -1.036241   -0.791512
     26          1           0       -2.070171   -1.039413    2.264572
     27          1           0       -0.802901   -0.435184    1.203189
     28          1           0       -0.528694   -2.733592    0.213844
     29          1           0       -1.803165   -3.341255    1.281258
     30          1           0       -0.274357   -2.765246    1.967018
     31          6           0       -3.246717    0.504318    0.279395
     32          6           0       -4.288164    0.784656   -0.804480
     33          6           0       -4.878052    2.191940   -0.707648
     34          1           0       -3.709017    0.641984    1.266674
     35          1           0       -2.440720    1.247178    0.205409
     36          1           0       -5.091679    0.040926   -0.728027
     37          1           0       -3.824409    0.645155   -1.789410
     38          1           0       -4.091415    2.946998   -0.806096
     39          1           0       -5.365886    2.339335    0.261317
     40          1           0       -5.620223    2.370989   -1.491856
 ---------------------------------------------------------------------

 SCF Done:  E(RHF) =  -470.732705066     A.U. after   11 cycles
 E2 =    -0.1583791758D+01 EUMP2 =    -0.47231649682434D+03

 The electronic state is 1-A.
 Alpha  occ. eigenvalues --  -11.21677 -11.21641 -11.21617 -11.21506 -11.21461
 Alpha  occ. eigenvalues --  -11.21411 -11.21401 -11.21347 -11.21102 -11.21083
 Alpha  occ. eigenvalues --  -11.21075 -11.21072  -1.08497  -1.08418  -1.03625
 Alpha  occ. eigenvalues --   -1.03486  -0.96068  -0.95947  -0.87045  -0.86999
 Alpha  occ. eigenvalues --   -0.79662  -0.79569  -0.78298  -0.78243  -0.65300
 Alpha  occ. eigenvalues --   -0.64926  -0.61304  -0.60643  -0.59442  -0.59296
 Alpha  occ. eigenvalues --   -0.57639  -0.57600  -0.55501  -0.55073  -0.52734
 Alpha  occ. eigenvalues --   -0.52657  -0.52468  -0.52378  -0.49967  -0.49923
 Alpha  occ. eigenvalues --   -0.47956  -0.47890  -0.46710  -0.46552  -0.45903
 Alpha  occ. eigenvalues --   -0.45773  -0.45753  -0.45622  -0.43833  -0.43777
 Alpha virt. eigenvalues --    0.20047   0.23360   0.23389   0.24531   0.25834
 Alpha virt. eigenvalues --    0.26491   0.27049   0.27591   0.28520   0.29048
 Alpha virt. eigenvalues --    0.30963   0.31417   0.31786   0.32086   0.32219

 Mulliken charges:
               1
     1  C   -0.299523
     2  C   -0.299531
     3  C   -0.475736
     4  H    0.149839
     5  H    0.149834
     6  H    0.151561
     7  H    0.152140
     8  H    0.155287
     9  H    0.155167
    10  H    0.160286
    11  C   -0.297226
    12  C   -0.309665
    13  C   -0.476654
    14  H    0.148290
    15  H    0.149534
    16  H    0.164629
    17  H    0.151505
    18  H    0.155593
    19  H    0.153567
    20  H    0.161237
    21  C   -0.298044
    22  C   -0.303178
    23  C   -0.482593
    24  H    0.150199
    25  H    0.149182
    26  H    0.152667
    27  H    0.152733
    28  H    0.161526
    29  H    0.156485
    30  H    0.160691
    31  C   -0.298302
    32  C   -0.299702
    33  C   -0.475739
    34  H    0.149771
    35  H    0.149262
    36  H    0.152127
    37  H    0.151909
    38  H    0.155162
    39  H    0.155284
    40  H    0.160424
 Sum of Mulliken charges =  -0.00000

 Dipole moment (field-independent basis, Debye):
    X=             -0.0208    Y=             -0.0254    Z=              0.0177  Tot=              0.0373
 Quadrupole moment (field-independent basis, Debye-Ang):
   XX=            -83.5120   YY=            -86.2820   ZZ=            -84.8977
   XY=              0.3647   XZ=             -0.5851   YZ=             -0.7695

 Normal termination of Gaussian 16 at Wed May  5 23:06:12 2021.
