 Gaussian 16, Revision A.03,
 Gaussian 16:  EM64L-G16RevA.03 25-Dec-2016

 -------------
 #p 6-31g* mp2
 -------------

 ------------------------------------------------------
 Input file generated by CHIRIPA (05-May-2021 14:53:17)
 ------------------------------------------------------
 Symbolic Z-matrix:
 Charge =  0 Multiplicity = 1

                         Standard orientation:
 ---------------------------------------------------------------------
 Center     Atomic      Atomic             Coordinates (Angstroms)
 Number     Number       Type             X           Y           Z
 ---------------------------------------------------------------------
      1          6           0        4.852653   -0.366403    0.295755
      2          6           0        5.222656   -1.354581   -0.810856
      3          6           0        6.314660   -2.336653   -0.385587
      4          1           0        5.750809    0.189784    0.597277
      5          1           0        4.519554   -0.925778    1.180933
      6          1           0        5.553643   -0.793470   -1.694156
      7          1           0        4.323475   -1.908345   -1.109913
      8          1           0        5.990351   -2.921749    0.481066
      9          1           0        7.227508   -1.800539   -0.106497
     10          1           0        6.563685   -3.033850   -1.191666
     11          6           0        3.762273    0.621874   -0.114254
     12          6           0        3.392270    1.610052    0.992357
     13          6           0        2.300265    2.592124    0.567088
     14          1           0        4.095371    1.181249   -0.999432
     15          1           0        2.864116    0.065687   -0.415777
     16          1           0        4.291451    2.163816    1.291413
     17          1           0        3.061283    1.048941    1.875657
     18          1           0        1.387417    2.056010    0.287998
     19          1           0        2.624575    3.177220   -0.299565
     20          1           0        2.051241    3.289321    1.373167
     21          6           0       -5.593293   -1.218142    0.317489
     22          6           0       -4.511501   -1.502464    1.157375
     23          6           0       -3.272356   -0.888696    0.951565
     24          6           0       -3.149802    0.008325   -0.108446
     25          6           0       -4.208813    0.312279   -0.962495
     26          6           0       -5.438768   -0.313274   -0.737904
     27          1           0       -6.552322   -1.699509    0.484662
     28          1           0       -4.628602   -2.204779    1.977793
     29          1           0       -2.418276   -1.090563    1.586556
     30          1           0       -4.061477    1.016789   -1.772047
     31          1           0       -6.277163   -0.090553   -1.391766
     32          7           0       -1.842840    0.664331   -0.336270
     33          8           0       -1.760706    1.450885   -1.277133
     34          8           0       -0.925323    0.379534    0.430340
 ---------------------------------------------------------------------

 SCF Done:  E(RHF) =  -669.536794457     A.U. after   15 cycles
 E2 =    -0.2091172799D+01 EUMP2 =    -0.67162796725633D+03

 The electronic state is 1-A.
 Alpha  occ. eigenvalues --  -20.61099 -20.61080 -15.86093 -11.31374 -11.27927
 Alpha  occ. eigenvalues --  -11.27922 -11.27655 -11.26922 -11.26912 -11.20833
 Alpha  occ. eigenvalues --  -11.20469 -11.20435 -11.20200 -11.20091 -11.19153
 Alpha  occ. eigenvalues --   -1.60131  -1.39689  -1.19533  -1.08947  -1.07329
 Alpha  occ. eigenvalues --   -1.04921  -1.02370  -0.95796  -0.94803  -0.86324
 Alpha  occ. eigenvalues --   -0.85819  -0.82630  -0.78491  -0.77690  -0.77086
 Alpha  occ. eigenvalues --   -0.72308  -0.71435  -0.70641  -0.65189  -0.64924
 Alpha  occ. eigenvalues --   -0.63962  -0.62268  -0.59760  -0.58261  -0.56414
 Alpha  occ. eigenvalues --   -0.55431  -0.54079  -0.53256  -0.53012  -0.51525
 Alpha  occ. eigenvalues --   -0.51232  -0.49254  -0.49064  -0.48546  -0.46758
 Alpha  occ. eigenvalues --   -0.45511  -0.45104  -0.44630  -0.44481  -0.42643
 Alpha  occ. eigenvalues --   -0.37510  -0.36519
 Alpha virt. eigenvalues --    0.04840   0.11137   0.16350   0.21275   0.23892
 Alpha virt. eigenvalues --    0.25544   0.27199   0.27721   0.28170   0.28567
 Alpha virt. eigenvalues --    0.29279   0.30846   0.32365   0.32605   0.32731

 Mulliken charges:
               1
     1  C   -0.297369
     2  C   -0.298834
     3  C   -0.474980
     4  H    0.146659
     5  H    0.147465
     6  H    0.150975
     7  H    0.151773
     8  H    0.153585
     9  H    0.153951
    10  H    0.157717
    11  C   -0.299439
    12  C   -0.296629
    13  C   -0.488631
    14  H    0.146684
    15  H    0.158306
    16  H    0.144350
    17  H    0.149503
    18  H    0.188444
    19  H    0.148062
    20  H    0.151438
    21  C   -0.170404
    22  C   -0.218557
    23  C   -0.170663
    24  C    0.158025
    25  C   -0.170573
    26  C   -0.218606
    27  H    0.226290
    28  H    0.224090
    29  H    0.275844
    30  H    0.276139
    31  H    0.224126
    32  N    0.489007
    33  O   -0.457775
    34  O   -0.459974
 Sum of Mulliken charges =  -0.00000

 Dipole moment (field-independent basis, Debye):
    X=             -5.0884    Y=             -2.3691    Z=              0.7318  Tot=              5.6604
 Quadrupole moment (field-independent basis, Debye-Ang):
   XX=            -67.0052   YY=            -95.0030   ZZ=            -92.2635
   XY=              7.2392   XZ=             -0.8657   YZ=             -2.3980

 Normal termination of Gaussian 16 at Wed May  5 17:14:54 2021.
