 Gaussian 16, Revision A.03,
 Gaussian 16:  EM64L-G16RevA.03 25-Dec-2016

 -------------
 #p 6-31g* mp2
 -------------

 ------------------------------------------------------
 Input file generated by CHIRIPA (05-May-2021 14:51:10)
 ------------------------------------------------------
 Symbolic Z-matrix:
 Charge =  0 Multiplicity = 1

                         Standard orientation:
 ---------------------------------------------------------------------
 Center     Atomic      Atomic             Coordinates (Angstroms)
 Number     Number       Type             X           Y           Z
 ---------------------------------------------------------------------
      1          6           0        3.103363   -0.299150    0.110665
      2          6           0        2.165002    0.814789    0.576074
      3          6           0        0.697317    0.386279    0.584699
      4          1           0        2.808061   -0.621399   -0.897252
      5          1           0        2.979048   -1.171769    0.766773
      6          1           0        2.292052    1.685538   -0.079876
      7          1           0        2.462691    1.134556    1.582923
      8          1           0        0.549227   -0.467609    1.253687
      9          1           0        0.377619    0.086504   -0.418560
     10          1           0        0.044153    1.197702    0.920600
     11          6           0        4.574023    0.113997    0.096643
     12          6           0        5.512384   -0.999942   -0.368765
     13          6           0        6.980069   -0.571432   -0.377391
     14          1           0        4.698338    0.986615   -0.559465
     15          1           0        4.869325    0.436246    1.104560
     16          1           0        5.214695   -1.319709   -1.375615
     17          1           0        5.385334   -1.870691    0.287184
     18          1           0        7.299768   -0.271657    0.625868
     19          1           0        7.128159    0.282456   -1.046379
     20          1           0        7.633233   -1.382855   -0.713292
     21          6           0       -4.264657   -0.469537   -0.396938
     22          6           0       -4.243634   -1.747394    0.442481
     23          6           0       -5.100477   -2.862755   -0.157172
     24          1           0       -5.301989   -0.122417   -0.498894
     25          1           0       -3.910938   -0.699731   -1.411476
     26          1           0       -4.595977   -1.514577    1.455530
     27          1           0       -3.206212   -2.091406    0.542611
     28          1           0       -4.746624   -3.123625   -1.159837
     29          1           0       -6.144286   -2.543516   -0.241731
     30          1           0       -5.071071   -3.766899    0.458880
     31          6           0       -3.412730    0.654690    0.189630
     32          6           0       -3.433752    1.932547   -0.649790
     33          6           0       -2.576909    3.047909   -0.050136
     34          1           0       -3.766448    0.884884    1.204169
     35          1           0       -2.375398    0.307570    0.291585
     36          1           0       -4.471174    2.276559   -0.749919
     37          1           0       -3.081409    1.699730   -1.662838
     38          1           0       -1.533100    2.728670    0.034423
     39          1           0       -2.930761    3.308778    0.952529
     40          1           0       -2.606315    3.952052   -0.666187
 ---------------------------------------------------------------------

 SCF Done:  E(RHF) =  -470.732820829     A.U. after   11 cycles
 E2 =    -0.1583139153D+01 EUMP2 =    -0.47231595998182D+03

 The electronic state is 1-A.
 Alpha  occ. eigenvalues --  -11.21657 -11.21626 -11.21541 -11.21533 -11.21443
 Alpha  occ. eigenvalues --  -11.21382 -11.21313 -11.21225 -11.21146 -11.21089
 Alpha  occ. eigenvalues --  -11.21028 -11.21007  -1.08473  -1.08350  -1.03586
 Alpha  occ. eigenvalues --   -1.03463  -0.96037  -0.95916  -0.87061  -0.86936
 Alpha  occ. eigenvalues --   -0.79686  -0.79503  -0.78293  -0.78144  -0.65109
 Alpha  occ. eigenvalues --   -0.64985  -0.61012  -0.60871  -0.59484  -0.59202
 Alpha  occ. eigenvalues --   -0.57711  -0.57470  -0.55323  -0.55205  -0.52788
 Alpha  occ. eigenvalues --   -0.52607  -0.52530  -0.52268  -0.49976  -0.49862
 Alpha  occ. eigenvalues --   -0.47986  -0.47804  -0.46690  -0.46540  -0.45870
 Alpha  occ. eigenvalues --   -0.45748  -0.45693  -0.45598  -0.43748  -0.43693
 Alpha virt. eigenvalues --    0.21617   0.22975   0.23567   0.24950   0.25914
 Alpha virt. eigenvalues --    0.26613   0.26956   0.27249   0.27917   0.29240
 Alpha virt. eigenvalues --    0.30559   0.31247   0.31764   0.31856   0.32099

 Mulliken charges:
               1
     1  C   -0.298632
     2  C   -0.300626
     3  C   -0.482080
     4  H    0.149571
     5  H    0.149647
     6  H    0.152304
     7  H    0.152424
     8  H    0.155836
     9  H    0.154393
    10  H    0.167099
    11  C   -0.298327
    12  C   -0.299652
    13  C   -0.475728
    14  H    0.149642
    15  H    0.149796
    16  H    0.151934
    17  H    0.151968
    18  H    0.155245
    19  H    0.155236
    20  H    0.160329
    21  C   -0.297756
    22  C   -0.299655
    23  C   -0.475625
    24  H    0.149220
    25  H    0.148976
    26  H    0.151719
    27  H    0.152151
    28  H    0.155022
    29  H    0.155050
    30  H    0.159999
    31  C   -0.307084
    32  C   -0.298654
    33  C   -0.481505
    34  H    0.148495
    35  H    0.161349
    36  H    0.151553
    37  H    0.151240
    38  H    0.160506
    39  H    0.154659
    40  H    0.159962
 Sum of Mulliken charges =  -0.00000

 Dipole moment (field-independent basis, Debye):
    X=              0.0570    Y=             -0.0073    Z=              0.0178  Tot=              0.0602
 Quadrupole moment (field-independent basis, Debye-Ang):
   XX=            -85.8806   YY=            -85.5207   ZZ=            -83.6520
   XY=             -0.9497   XZ=             -0.4574   YZ=             -0.3930

 Normal termination of Gaussian 16 at Wed May  5 18:11:46 2021.
