 Gaussian 16, Revision A.03,
 Gaussian 16:  EM64L-G16RevA.03 25-Dec-2016

 -------------
 #p 6-31g* mp2
 -------------

 ------------------------------------------------------
 Input file generated by CHIRIPA (05-May-2021 14:57:24)
 ------------------------------------------------------
 Symbolic Z-matrix:
 Charge =  0 Multiplicity = 1

                         Standard orientation:
 ---------------------------------------------------------------------
 Center     Atomic      Atomic             Coordinates (Angstroms)
 Number     Number       Type             X           Y           Z
 ---------------------------------------------------------------------
      1          6           0        1.952554   -1.389306    0.879132
      2          6           0        3.185537   -2.049402    0.902483
      3          6           0        4.346890   -1.399824    0.473699
      4          6           0        4.238327   -0.084202    0.025768
      5          6           0        3.024464    0.600329   -0.009514
      6          6           0        1.876087   -0.068875    0.424011
      7          1           0        1.055427   -1.901537    1.214063
      8          1           0        3.247916   -3.074871    1.255426
      9          1           0        5.314298   -1.887148    0.481173
     10          1           0        2.993836    1.622524   -0.366722
     11          1           0        0.919885    0.446249    0.404765
     12          7           0        5.460931    0.613866   -0.430676
     13          8           0        5.338647    1.772967   -0.820764
     14          8           0        6.518342   -0.011307   -0.389705
     15          6           0       -3.053848    2.469569    0.394318
     16          6           0       -4.398418    2.211333    0.680618
     17          6           0       -4.953693    0.957067    0.410370
     18          6           0       -4.131858   -0.020234   -0.148880
     19          6           0       -2.788745    0.206425   -0.445464
     20          6           0       -2.254711    1.468056   -0.166819
     21          1           0       -2.630748    3.446774    0.607515
     22          1           0       -5.021409    2.987222    1.116421
     23          1           0       -5.991539    0.730123    0.622011
     24          1           0       -2.192700   -0.587028   -0.879723
     25          1           0       -1.210179    1.665773   -0.390211
     26          7           0       -4.708459   -1.351968   -0.439423
     27          8           0       -3.963328   -2.196078   -0.932268
     28          8           0       -5.894611   -1.526455   -0.168806
 ---------------------------------------------------------------------

 SCF Done:  E(RHF) =  -868.337129903     A.U. after   16 cycles
 E2 =    -0.2599457647D+01 EUMP2 =    -0.87093658755030D+03

 The electronic state is 1-A.
 Alpha  occ. eigenvalues --  -20.61429 -20.61413 -20.61111 -20.61099 -15.86484
 Alpha  occ. eigenvalues --  -15.86167 -11.31937 -11.31591 -11.28597 -11.28491
 Alpha  occ. eigenvalues --  -11.28277 -11.28247 -11.28142 -11.27920 -11.27659
 Alpha  occ. eigenvalues --  -11.27487 -11.27315 -11.27130  -1.60499  -1.60182
 Alpha  occ. eigenvalues --   -1.40050  -1.39735  -1.20131  -1.19781  -1.09499
 Alpha  occ. eigenvalues --   -1.09156  -1.05564  -1.05210  -0.96316  -0.95978
 Alpha  occ. eigenvalues --   -0.86953  -0.86601  -0.83163  -0.82822  -0.78207
 Alpha  occ. eigenvalues --   -0.77860  -0.72697  -0.72383  -0.71825  -0.71507
 Alpha  occ. eigenvalues --   -0.71216  -0.70866  -0.65788  -0.65665  -0.65438
 Alpha  occ. eigenvalues --   -0.65180  -0.62960  -0.62510  -0.56028  -0.55673
 Alpha  occ. eigenvalues --   -0.53872  -0.53720  -0.53514  -0.53243  -0.49465
 Alpha  occ. eigenvalues --   -0.49448  -0.49146  -0.49134  -0.45437  -0.45127
 Alpha  occ. eigenvalues --   -0.38093  -0.37745  -0.37170  -0.36816
 Alpha virt. eigenvalues --    0.04349   0.04698   0.10446   0.10826   0.15698
 Alpha virt. eigenvalues --    0.16164   0.18381   0.21985   0.24634   0.27112
 Alpha virt. eigenvalues --    0.27936   0.28970   0.29363   0.31459   0.32189

 Mulliken charges:
               1
     1  C   -0.171458
     2  C   -0.218208
     3  C   -0.169823
     4  C    0.158876
     5  C   -0.171289
     6  C   -0.222689
     7  H    0.230010
     8  H    0.226707
     9  H    0.277468
    10  H    0.273283
    11  H    0.217133
    12  N    0.488200
    13  O   -0.461040
    14  O   -0.458624
    15  C   -0.169744
    16  C   -0.218348
    17  C   -0.169374
    18  C    0.159010
    19  C   -0.173148
    20  C   -0.223177
    21  H    0.228617
    22  H    0.226669
    23  H    0.278157
    24  H    0.273935
    25  H    0.219550
    26  N    0.488089
    27  O   -0.461045
    28  O   -0.457736
 Sum of Mulliken charges =  -0.00000

 Dipole moment (field-independent basis, Debye):
    X=             -2.3918    Y=              2.1637    Z=              2.7002  Tot=              4.2064
 Quadrupole moment (field-independent basis, Debye-Ang):
   XX=           -151.5841   YY=           -101.0932   ZZ=           -105.7905
   XY=            -34.4445   XZ=              0.9533   YZ=             -1.2701

 Normal termination of Gaussian 16 at Thu May  6 11:22:11 2021.
