 Gaussian 16, Revision A.03,
 Gaussian 16:  EM64L-G16RevA.03 25-Dec-2016

 -------------
 #p 6-31g* mp2
 -------------

 ------------------------------------------------------
 Input file generated by CHIRIPA (05-May-2021 14:51:09)
 ------------------------------------------------------
 Symbolic Z-matrix:
 Charge =  0 Multiplicity = 1

                         Standard orientation:
 ---------------------------------------------------------------------
 Center     Atomic      Atomic             Coordinates (Angstroms)
 Number     Number       Type             X           Y           Z
 ---------------------------------------------------------------------
      1          6           0        3.239382   -0.297310   -0.162364
      2          6           0        3.210223   -1.753001   -0.629372
      3          6           0        1.802337   -2.349264   -0.618393
      4          1           0        2.821496   -0.235813    0.851803
      5          1           0        2.581783    0.300906   -0.808195
      6          1           0        3.868756   -2.348038    0.016291
      7          1           0        3.628404   -1.811066   -1.642471
      8          1           0        1.137980   -1.780576   -1.277047
      9          1           0        1.379698   -2.320599    0.391140
     10          1           0        1.804660   -3.390430   -0.955774
     11          6           0        4.639936    0.312728   -0.167822
     12          6           0        4.669095    1.768419    0.299187
     13          6           0        6.076981    2.364682    0.288208
     14          1           0        5.297535   -0.285487    0.478009
     15          1           0        5.057822    0.251231   -1.181989
     16          1           0        4.250914    1.826485    1.312286
     17          1           0        4.010562    2.363457   -0.346476
     18          1           0        6.499620    2.336017   -0.721325
     19          1           0        6.741338    1.795995    0.946862
     20          1           0        6.074658    3.405849    0.625589
     21          6           0       -4.385724    0.583536    0.351872
     22          6           0       -5.368484    0.974307   -0.752423
     23          6           0       -6.253948    2.158683   -0.363833
     24          1           0       -4.947167    0.339664    1.264151
     25          1           0       -3.755007    1.449786    0.595189
     26          1           0       -5.996234    0.107173   -0.994551
     27          1           0       -4.804647    1.217092   -1.662236
     28          1           0       -5.643217    3.039815   -0.141987
     29          1           0       -6.841574    1.923590    0.529491
     30          1           0       -6.948837    2.421169   -1.167629
     31          6           0       -3.493593   -0.598955   -0.021686
     32          6           0       -2.510833   -0.989726    1.082608
     33          6           0       -1.625371   -2.174101    0.694018
     34          1           0       -4.124310   -1.465204   -0.265004
     35          1           0       -2.932152   -0.355083   -0.933965
     36          1           0       -3.074670   -1.232511    1.992421
     37          1           0       -1.883083   -0.122592    1.324736
     38          1           0       -1.037743   -1.939009   -0.199306
     39          1           0       -2.236101   -3.055234    0.472172
     40          1           0       -0.930481   -2.436588    1.497814
 ---------------------------------------------------------------------

 SCF Done:  E(RHF) =  -470.731928429     A.U. after   11 cycles
 E2 =    -0.1582991128D+01 EUMP2 =    -0.47231491955693D+03

 The electronic state is 1-A.
 Alpha  occ. eigenvalues --  -11.21606 -11.21580 -11.21556 -11.21518 -11.21401
 Alpha  occ. eigenvalues --  -11.21367 -11.21342 -11.21307 -11.21075 -11.21055
 Alpha  occ. eigenvalues --  -11.20975 -11.20883  -1.08424  -1.08381  -1.03544
 Alpha  occ. eigenvalues --   -1.03446  -0.96049  -0.95846  -0.87130  -0.86807
 Alpha  occ. eigenvalues --   -0.79713  -0.79417  -0.78252  -0.78178  -0.65053
 Alpha  occ. eigenvalues --   -0.65018  -0.60927  -0.60892  -0.59341  -0.59295
 Alpha  occ. eigenvalues --   -0.57622  -0.57530  -0.55267  -0.55233  -0.52835
 Alpha  occ. eigenvalues --   -0.52624  -0.52432  -0.52150  -0.49898  -0.49850
 Alpha  occ. eigenvalues --   -0.47981  -0.47737  -0.46607  -0.46531  -0.45823
 Alpha  occ. eigenvalues --   -0.45708  -0.45696  -0.45577  -0.43777  -0.43698
 Alpha virt. eigenvalues --    0.22297   0.23046   0.23650   0.24976   0.25994
 Alpha virt. eigenvalues --    0.26614   0.27041   0.27492   0.27687   0.29194
 Alpha virt. eigenvalues --    0.29530   0.31177   0.31743   0.31953   0.32444

 Mulliken charges:
               1
     1  C   -0.298053
     2  C   -0.300334
     3  C   -0.477564
     4  H    0.149405
     5  H    0.148854
     6  H    0.151623
     7  H    0.151385
     8  H    0.153411
     9  H    0.161260
    10  H    0.160182
    11  C   -0.298186
    12  C   -0.299615
    13  C   -0.475695
    14  H    0.149567
    15  H    0.149665
    16  H    0.151882
    17  H    0.151747
    18  H    0.155186
    19  H    0.155219
    20  H    0.160217
    21  C   -0.298223
    22  C   -0.299595
    23  C   -0.475673
    24  H    0.149610
    25  H    0.149426
    26  H    0.151895
    27  H    0.151772
    28  H    0.155124
    29  H    0.155158
    30  H    0.160152
    31  C   -0.298336
    32  C   -0.299772
    33  C   -0.479478
    34  H    0.149489
    35  H    0.149181
    36  H    0.151197
    37  H    0.151465
    38  H    0.163940
    39  H    0.153950
    40  H    0.158563
 Sum of Mulliken charges =  -0.00000

 Dipole moment (field-independent basis, Debye):
    X=              0.0161    Y=             -0.0237    Z=             -0.0050  Tot=              0.0290
 Quadrupole moment (field-independent basis, Debye-Ang):
   XX=            -85.9400   YY=            -85.3018   ZZ=            -83.7623
   XY=              0.4497   XZ=             -0.0135   YZ=             -0.6968

 Normal termination of Gaussian 16 at Thu May  6 00:34:01 2021.
