 Gaussian 16, Revision A.03,
 Gaussian 16:  EM64L-G16RevA.03 25-Dec-2016

 -------------
 #p 6-31g* mp2
 -------------

 ------------------------------------------------------
 Input file generated by CHIRIPA (05-May-2021 14:55:25)
 ------------------------------------------------------
 Symbolic Z-matrix:
 Charge =  0 Multiplicity = 1

                         Standard orientation:
 ---------------------------------------------------------------------
 Center     Atomic      Atomic             Coordinates (Angstroms)
 Number     Number       Type             X           Y           Z
 ---------------------------------------------------------------------
      1          6           0        4.122026    1.878828   -0.278260
      2          6           0        2.733126    1.769425   -0.153728
      3          6           0        2.130505    0.517348    0.000216
      4          6           0        2.950714   -0.609554    0.025499
      5          6           0        4.337318   -0.533184   -0.096102
      6          6           0        4.918286    0.729201   -0.249100
      7          1           0        4.581746    2.855476   -0.397480
      8          1           0        2.112255    2.660529   -0.176025
      9          1           0        1.057743    0.403859    0.098806
     10          1           0        4.930041   -1.439509   -0.070202
     11          1           0        5.997184    0.811147   -0.345584
     12          7           0        2.324208   -1.940529    0.187972
     13          8           0        3.068927   -2.918110    0.207147
     14          8           0        1.100298   -1.980963    0.293068
     15          6           0       -3.210226    0.764506   -0.155773
     16          6           0       -2.912641    2.114864    0.496885
     17          6           0       -1.510771    2.632006    0.172665
     18          1           0       -2.461812    0.031554    0.175287
     19          1           0       -3.095677    0.858182   -1.244580
     20          1           0       -3.029066    2.019017    1.584025
     21          1           0       -3.661964    2.844639    0.164381
     22          1           0       -1.386243    2.755938   -0.907953
     23          1           0       -0.749748    1.925625    0.519757
     24          1           0       -1.319179    3.598431    0.649293
     25          6           0       -4.607936    0.234389    0.159046
     26          6           0       -4.905523   -1.115968   -0.493613
     27          6           0       -6.307392   -1.633110   -0.169392
     28          1           0       -4.722487    0.140713    1.247852
     29          1           0       -5.356351    0.967342   -0.172015
     30          1           0       -4.156199   -1.845743   -0.161109
     31          1           0       -4.789098   -1.020122   -1.580753
     32          1           0       -7.068414   -0.926730   -0.516485
     33          1           0       -6.431920   -1.757042    0.911225
     34          1           0       -6.498984   -2.599535   -0.646021
 ---------------------------------------------------------------------

 SCF Done:  E(RHF) =  -669.535711160     A.U. after   15 cycles
 E2 =    -0.2091283254D+01 EUMP2 =    -0.67162699441375D+03

 The electronic state is 1-A.
 Alpha  occ. eigenvalues --  -20.60759 -20.60754 -15.85809 -11.31139 -11.27710
 Alpha  occ. eigenvalues --  -11.27679 -11.27446 -11.26726 -11.26685 -11.21903
 Alpha  occ. eigenvalues --  -11.21797 -11.21376 -11.21331 -11.21248 -11.20822
 Alpha  occ. eigenvalues --   -1.59832  -1.39387  -1.19310  -1.08713  -1.08437
 Alpha  occ. eigenvalues --   -1.04708  -1.03615  -0.96099  -0.95553  -0.87132
 Alpha  occ. eigenvalues --   -0.86108  -0.82385  -0.79694  -0.78190  -0.77432
 Alpha  occ. eigenvalues --   -0.72030  -0.71153  -0.70433  -0.65072  -0.64960
 Alpha  occ. eigenvalues --   -0.64706  -0.62108  -0.60985  -0.59490  -0.57670
 Alpha  occ. eigenvalues --   -0.55431  -0.55180  -0.53041  -0.52854  -0.52784
 Alpha  occ. eigenvalues --   -0.52500  -0.50051  -0.48784  -0.48782  -0.47997
 Alpha  occ. eigenvalues --   -0.46687  -0.45747  -0.45621  -0.44799  -0.43833
 Alpha  occ. eigenvalues --   -0.37295  -0.36308
 Alpha virt. eigenvalues --    0.05090   0.11341   0.16586   0.20033   0.22879
 Alpha virt. eigenvalues --    0.23944   0.25572   0.26400   0.27354   0.28185
 Alpha virt. eigenvalues --    0.29558   0.29935   0.31431   0.31485   0.32154

 Mulliken charges:
               1
     1  C   -0.170837
     2  C   -0.221870
     3  C   -0.179498
     4  C    0.160706
     5  C   -0.170680
     6  C   -0.218780
     7  H    0.225467
     8  H    0.226793
     9  H    0.282626
    10  H    0.275333
    11  H    0.223237
    12  N    0.488033
    13  O   -0.460379
    14  O   -0.461305
    15  C   -0.302292
    16  C   -0.298824
    17  C   -0.482749
    18  H    0.158394
    19  H    0.149097
    20  H    0.154560
    21  H    0.153329
    22  H    0.156027
    23  H    0.149861
    24  H    0.160336
    25  C   -0.298470
    26  C   -0.301082
    27  C   -0.475892
    28  H    0.150305
    29  H    0.148141
    30  H    0.158715
    31  H    0.151513
    32  H    0.153494
    33  H    0.155378
    34  H    0.161313
 Sum of Mulliken charges =  -0.00000

 Dipole moment (field-independent basis, Debye):
    X=              2.0954    Y=              4.6360    Z=             -0.5672  Tot=              5.1191
 Quadrupole moment (field-independent basis, Debye-Ang):
   XX=            -78.3135   YY=           -100.1514   ZZ=            -95.0467
   XY=              9.9313   XZ=             -1.5215   YZ=              0.2200

 Normal termination of Gaussian 16 at Thu May  6 04:46:32 2021.
