 Gaussian 16, Revision A.03,
 Gaussian 16:  EM64L-G16RevA.03 25-Dec-2016

 -------------
 #p 6-31g* mp2
 -------------

 ------------------------------------------------------
 Input file generated by CHIRIPA (05-May-2021 14:55:19)
 ------------------------------------------------------
 Symbolic Z-matrix:
 Charge =  0 Multiplicity = 1

                         Standard orientation:
 ---------------------------------------------------------------------
 Center     Atomic      Atomic             Coordinates (Angstroms)
 Number     Number       Type             X           Y           Z
 ---------------------------------------------------------------------
      1          6           0        3.855007   -2.310438    0.308611
      2          6           0        4.144180   -1.543252   -0.824670
      3          6           0        3.544318   -0.293850   -1.008271
      4          6           0        2.656107    0.159657   -0.034257
      5          6           0        2.347632   -0.581266    1.105552
      6          6           0        2.959235   -1.827848    1.268413
      7          1           0        4.325555   -3.279908    0.443181
      8          1           0        4.839454   -1.915512   -1.571705
      9          1           0        3.750216    0.320766   -1.876183
     10          1           0        1.650388   -0.183563    1.832947
     11          1           0        2.732776   -2.421487    2.149523
     12          7           0        2.014845    1.480849   -0.217649
     13          8           0        1.235843    1.857919    0.655054
     14          8           0        2.303369    2.114314   -1.230621
     15          6           0       -3.397423    0.798026   -0.196783
     16          6           0       -2.421249    1.513159    0.737913
     17          6           0       -2.155869    2.960018    0.320821
     18          1           0       -2.997465    0.818743   -1.219793
     19          1           0       -4.345197    1.353510   -0.220410
     20          1           0       -1.476070    0.955732    0.760844
     21          1           0       -2.823486    1.490571    1.758849
     22          1           0       -3.086625    3.536448    0.315998
     23          1           0       -1.731553    2.998569   -0.687679
     24          1           0       -1.455440    3.452349    1.002633
     25          6           0       -3.672773   -0.649311    0.207105
     26          6           0       -4.648946   -1.364444   -0.727590
     27          6           0       -4.914325   -2.811303   -0.310499
     28          1           0       -2.724998   -1.204793    0.230732
     29          1           0       -4.072731   -0.670026    1.230114
     30          1           0       -4.246710   -1.341856   -1.748527
     31          1           0       -5.594126   -0.807016   -0.750522
     32          1           0       -5.338643   -2.849854    0.698001
     33          1           0       -3.983569   -3.387732   -0.305676
     34          1           0       -5.614755   -3.303633   -0.992312
 ---------------------------------------------------------------------

 SCF Done:  E(RHF) =  -669.536049680     A.U. after   15 cycles
 E2 =    -0.2091677995D+01 EUMP2 =    -0.67162772767513D+03

 The electronic state is 1-A.
 Alpha  occ. eigenvalues --  -20.60993 -20.60980 -15.86006 -11.31319 -11.27879
 Alpha  occ. eigenvalues --  -11.27876 -11.27614 -11.26885 -11.26875 -11.21249
 Alpha  occ. eigenvalues --  -11.20904 -11.20861 -11.20587 -11.20406 -11.19543
 Alpha  occ. eigenvalues --   -1.60042  -1.39599  -1.19486  -1.08893  -1.07752
 Alpha  occ. eigenvalues --   -1.04880  -1.02729  -0.95740  -0.95176  -0.86283
 Alpha  occ. eigenvalues --   -0.86202  -0.82570  -0.78867  -0.77652  -0.77477
 Alpha  occ. eigenvalues --   -0.72236  -0.71357  -0.70593  -0.65145  -0.64882
 Alpha  occ. eigenvalues --   -0.64390  -0.62227  -0.60123  -0.58627  -0.56753
 Alpha  occ. eigenvalues --   -0.55384  -0.54487  -0.53211  -0.52971  -0.51840
 Alpha  occ. eigenvalues --   -0.51615  -0.49237  -0.48989  -0.48902  -0.47154
 Alpha  occ. eigenvalues --   -0.45948  -0.45261  -0.45030  -0.44637  -0.42990
 Alpha  occ. eigenvalues --   -0.37464  -0.36481
 Alpha virt. eigenvalues --    0.04866   0.11161   0.16338   0.21226   0.23444
 Alpha virt. eigenvalues --    0.25098   0.26755   0.27391   0.27799   0.28550
 Alpha virt. eigenvalues --    0.28831   0.30637   0.31742   0.32247   0.32881

 Mulliken charges:
               1
     1  C   -0.170570
     2  C   -0.218560
     3  C   -0.170809
     4  C    0.157944
     5  C   -0.171609
     6  C   -0.218530
     7  H    0.226144
     8  H    0.223921
     9  H    0.275859
    10  H    0.276483
    11  H    0.224153
    12  N    0.489031
    13  O   -0.459240
    14  O   -0.458722
    15  C   -0.298121
    16  C   -0.302061
    17  C   -0.470018
    18  H    0.149037
    19  H    0.147299
    20  H    0.158324
    21  H    0.144644
    22  H    0.144127
    23  H    0.158686
    24  H    0.171020
    25  C   -0.296668
    26  C   -0.298907
    27  C   -0.475049
    28  H    0.144998
    29  H    0.147721
    30  H    0.151465
    31  H    0.152023
    32  H    0.154299
    33  H    0.152598
    34  H    0.159087
 Sum of Mulliken charges =  -0.00000

 Dipole moment (field-independent basis, Debye):
    X=              2.5784    Y=             -4.5519    Z=              0.6362  Tot=              5.2700
 Quadrupole moment (field-independent basis, Debye-Ang):
   XX=            -82.5114   YY=            -97.8342   ZZ=            -91.0044
   XY=            -12.5212   XZ=             -1.1803   YZ=             -0.0233

 Normal termination of Gaussian 16 at Thu May  6 09:13:01 2021.
