 Gaussian 16, Revision A.03,
 Gaussian 16:  EM64L-G16RevA.03 25-Dec-2016

 -------------
 #p 6-31g* mp2
 -------------

 ------------------------------------------------------
 Input file generated by CHIRIPA (05-May-2021 14:53:11)
 ------------------------------------------------------
 Symbolic Z-matrix:
 Charge =  0 Multiplicity = 1

                         Standard orientation:
 ---------------------------------------------------------------------
 Center     Atomic      Atomic             Coordinates (Angstroms)
 Number     Number       Type             X           Y           Z
 ---------------------------------------------------------------------
      1          6           0       -3.910576   -0.436414   -0.178844
      2          6           0       -2.823063   -0.297586    0.887001
      3          6           0       -1.454884   -0.777412    0.401565
      4          1           0       -3.978297   -1.487948   -0.489706
      5          1           0       -3.615737    0.134643   -1.070112
      6          1           0       -3.120512   -0.867606    1.776505
      7          1           0       -2.758055    0.753707    1.195500
      8          1           0       -1.132551   -0.201889   -0.472206
      9          1           0       -1.497068   -1.832415    0.112099
     10          1           0       -0.692374   -0.669206    1.179208
     11          6           0       -5.284017    0.039173    0.291482
     12          6           0       -6.371530   -0.099655   -0.774363
     13          6           0       -7.739709    0.380171   -0.288926
     14          1           0       -5.578857   -0.531884    1.182750
     15          1           0       -5.216296    1.090707    0.602344
     16          1           0       -6.436538   -1.150949   -1.082862
     17          1           0       -6.074081    0.470365   -1.663867
     18          1           0       -7.697525    1.435174    0.000539
     19          1           0       -8.062042   -0.195352    0.584845
     20          1           0       -8.502220    0.271964   -1.066569
     21          6           0        4.409551   -2.228589   -0.164934
     22          6           0        3.067361   -1.962955    0.125731
     23          6           0        2.603116   -0.646069    0.195287
     24          6           0        3.512565    0.385626   -0.032308
     25          6           0        4.855757    0.153201   -0.324035
     26          6           0        5.297899   -1.171526   -0.388495
     27          1           0        4.761602   -3.254623   -0.216988
     28          1           0        2.375206   -2.781895    0.299800
     29          1           0        1.569275   -0.411982    0.418430
     30          1           0        5.521987    0.990498   -0.492824
     31          1           0        6.340810   -1.374841   -0.614426
     32          7           0        3.032790    1.783904    0.038631
     33          8           0        3.854063    2.675153   -0.165876
     34          8           0        1.844553    1.962150    0.297395
 ---------------------------------------------------------------------

 SCF Done:  E(RHF) =  -669.535679594     A.U. after   15 cycles
 E2 =    -0.2091102440D+01 EUMP2 =    -0.67162678203381D+03

 The electronic state is 1-A.
 Alpha  occ. eigenvalues --  -20.60720 -20.60715 -15.85769 -11.31098 -11.27687
 Alpha  occ. eigenvalues --  -11.27611 -11.27431 -11.26701 -11.26672 -11.21641
 Alpha  occ. eigenvalues --  -11.21540 -11.21382 -11.21374 -11.21303 -11.20997
 Alpha  occ. eigenvalues --   -1.59795  -1.39349  -1.19279  -1.08685  -1.08415
 Alpha  occ. eigenvalues --   -1.04678  -1.03557  -0.96042  -0.95519  -0.87078
 Alpha  occ. eigenvalues --   -0.86075  -0.82353  -0.79634  -0.78216  -0.77397
 Alpha  occ. eigenvalues --   -0.71991  -0.71117  -0.70398  -0.65036  -0.64932
 Alpha  occ. eigenvalues --   -0.64692  -0.62063  -0.60934  -0.59399  -0.57632
 Alpha  occ. eigenvalues --   -0.55322  -0.55185  -0.53020  -0.53014  -0.52498
 Alpha  occ. eigenvalues --   -0.52453  -0.49956  -0.48747  -0.48744  -0.47943
 Alpha  occ. eigenvalues --   -0.46621  -0.45766  -0.45668  -0.44761  -0.43816
 Alpha  occ. eigenvalues --   -0.37271  -0.36280
 Alpha virt. eigenvalues --    0.05118   0.11356   0.16619   0.20906   0.22941
 Alpha virt. eigenvalues --    0.24117   0.26139   0.26677   0.27542   0.27943
 Alpha virt. eigenvalues --    0.29177   0.30519   0.31539   0.31565   0.31939

 Mulliken charges:
               1
     1  C   -0.299444
     2  C   -0.298512
     3  C   -0.483459
     4  H    0.147520
     5  H    0.152175
     6  H    0.150893
     7  H    0.160080
     8  H    0.164369
     9  H    0.150097
    10  H    0.156579
    11  C   -0.298768
    12  C   -0.299731
    13  C   -0.475794
    14  H    0.148887
    15  H    0.152017
    16  H    0.150907
    17  H    0.152868
    18  H    0.156176
    19  H    0.154754
    20  H    0.160110
    21  C   -0.170550
    22  C   -0.222793
    23  C   -0.181135
    24  C    0.157398
    25  C   -0.170004
    26  C   -0.219261
    27  H    0.225222
    28  H    0.223647
    29  H    0.292336
    30  H    0.275246
    31  H    0.223072
    32  N    0.486796
    33  O   -0.460647
    34  O   -0.461050
 Sum of Mulliken charges =  -0.00000

 Dipole moment (field-independent basis, Debye):
    X=              1.5646    Y=             -4.8442    Z=             -0.2587  Tot=              5.0972
 Quadrupole moment (field-independent basis, Debye-Ang):
   XX=            -79.7078   YY=            -97.9410   ZZ=            -95.3463
   XY=            -14.8917   XZ=             -1.9899   YZ=             -0.6799

 Normal termination of Gaussian 16 at Wed May  5 21:40:44 2021.
