 Gaussian 16, Revision A.03,
 Gaussian 16:  EM64L-G16RevA.03 25-Dec-2016

 -------------
 #p 6-31g* mp2
 -------------

 ------------------------------------------------------
 Input file generated by CHIRIPA (05-May-2021 14:53:12)
 ------------------------------------------------------
 Symbolic Z-matrix:
 Charge =  0 Multiplicity = 1

                         Standard orientation:
 ---------------------------------------------------------------------
 Center     Atomic      Atomic             Coordinates (Angstroms)
 Number     Number       Type             X           Y           Z
 ---------------------------------------------------------------------
      1          6           0       -3.898561   -0.602961    0.228646
      2          6           0       -4.710149   -1.543003   -0.663336
      3          6           0       -4.991621   -2.891345    0.000397
      4          1           0       -2.949167   -1.088061    0.493738
      5          1           0       -4.441426   -0.442847    1.170483
      6          1           0       -4.166567   -1.700197   -1.603774
      7          1           0       -5.657639   -1.055531   -0.926491
      8          1           0       -5.554813   -2.753483    0.929058
      9          1           0       -4.055269   -3.401811    0.247927
     10          1           0       -5.572946   -3.547704   -0.654670
     11          6           0       -3.609132    0.749026   -0.421037
     12          6           0       -2.797544    1.689068    0.470945
     13          6           0       -2.516072    3.037410   -0.192788
     14          1           0       -3.066267    0.588912   -1.362874
     15          1           0       -4.558526    1.234126   -0.686129
     16          1           0       -1.850054    1.201596    0.734101
     17          1           0       -3.341126    1.846262    1.411383
     18          1           0       -3.452423    3.547876   -0.440317
     19          1           0       -1.952880    2.899548   -1.121448
     20          1           0       -1.934746    3.693769    0.462279
     21          6           0        1.684022    2.125234    0.285753
     22          6           0        1.248243    0.998532    0.990848
     23          6           0        1.932362   -0.215808    0.881723
     24          6           0        3.053409   -0.268032    0.054792
     25          6           0        3.512281    0.837022   -0.660456
     26          6           0        2.812660    2.041032   -0.536200
     27          1           0        1.146561    3.064550    0.376400
     28          1           0        0.372045    1.060995    1.629927
     29          1           0        1.616785   -1.103511    1.416339
     30          1           0        4.389073    0.743892   -1.289726
     31          1           0        3.153377    2.914424   -1.084965
     32          7           0        3.785861   -1.548132   -0.068743
     33          8           0        4.770673   -1.568085   -0.803851
     34          8           0        3.361276   -2.507282    0.571879
 ---------------------------------------------------------------------

 SCF Done:  E(RHF) =  -669.535515139     A.U. after   15 cycles
 E2 =    -0.2091657958D+01 EUMP2 =    -0.67162717309756D+03

 The electronic state is 1-A.
 Alpha  occ. eigenvalues --  -20.60778 -20.60773 -15.85832 -11.31201 -11.27775
 Alpha  occ. eigenvalues --  -11.27771 -11.27501 -11.26778 -11.26756 -11.22501
 Alpha  occ. eigenvalues --  -11.22057 -11.22014 -11.21952 -11.21865 -11.21312
 Alpha  occ. eigenvalues --   -1.59854  -1.39407  -1.19375  -1.09032  -1.08763
 Alpha  occ. eigenvalues --   -1.04781  -1.04141  -0.96582  -0.95597  -0.87601
 Alpha  occ. eigenvalues --   -0.86178  -0.82434  -0.80237  -0.78814  -0.77481
 Alpha  occ. eigenvalues --   -0.72050  -0.71177  -0.70471  -0.65700  -0.65023
 Alpha  occ. eigenvalues --   -0.64773  -0.62174  -0.61485  -0.59991  -0.58185
 Alpha  occ. eigenvalues --   -0.55854  -0.55269  -0.53303  -0.53103  -0.53018
 Alpha  occ. eigenvalues --   -0.52870  -0.50507  -0.48823  -0.48805  -0.48518
 Alpha  occ. eigenvalues --   -0.47241  -0.46355  -0.46245  -0.44812  -0.44387
 Alpha  occ. eigenvalues --   -0.37342  -0.36375
 Alpha virt. eigenvalues --    0.05050   0.11144   0.16500   0.19704   0.22707
 Alpha virt. eigenvalues --    0.23881   0.25237   0.26359   0.26509   0.28370
 Alpha virt. eigenvalues --    0.29078   0.29895   0.31047   0.31559   0.32359

 Mulliken charges:
               1
     1  C   -0.298666
     2  C   -0.300280
     3  C   -0.476333
     4  H    0.148544
     5  H    0.149811
     6  H    0.153741
     7  H    0.152462
     8  H    0.155121
     9  H    0.156836
    10  H    0.162068
    11  C   -0.298233
    12  C   -0.304458
    13  C   -0.477485
    14  H    0.152311
    15  H    0.151778
    16  H    0.146976
    17  H    0.153745
    18  H    0.160636
    19  H    0.157302
    20  H    0.152715
    21  C   -0.172429
    22  C   -0.220218
    23  C   -0.172256
    24  C    0.158457
    25  C   -0.170685
    26  C   -0.218973
    27  H    0.228190
    28  H    0.227225
    29  H    0.275581
    30  H    0.275667
    31  H    0.223635
    32  N    0.488082
    33  O   -0.460390
    34  O   -0.460475
 Sum of Mulliken charges =  -0.00000

 Dipole moment (field-independent basis, Debye):
    X=             -2.7130    Y=              4.4708    Z=              0.3606  Tot=              5.2420
 Quadrupole moment (field-independent basis, Debye-Ang):
   XX=           -107.5982   YY=            -97.6403   ZZ=            -93.2222
   XY=             15.6753   XZ=             -1.2455   YZ=             -1.0482

 Normal termination of Gaussian 16 at Thu May  6 04:06:41 2021.
