 Gaussian 16, Revision A.03,
 Gaussian 16:  EM64L-G16RevA.03 25-Dec-2016

 -------------
 #p 6-31g* mp2
 -------------

 ------------------------------------------------------
 Input file generated by CHIRIPA (05-May-2021 14:53:17)
 ------------------------------------------------------
 Symbolic Z-matrix:
 Charge =  0 Multiplicity = 1

                         Standard orientation:
 ---------------------------------------------------------------------
 Center     Atomic      Atomic             Coordinates (Angstroms)
 Number     Number       Type             X           Y           Z
 ---------------------------------------------------------------------
      1          6           0        3.177115    0.702856   -0.258271
      2          6           0        3.232046    2.230507   -0.222916
      3          6           0        1.936062    2.880051   -0.709033
      4          1           0        2.962684    0.373653   -1.284229
      5          1           0        2.338152    0.358612    0.362238
      6          1           0        4.071503    2.571711   -0.842197
      7          1           0        3.446561    2.556106    0.803040
      8          1           0        1.091554    2.568135   -0.086045
      9          1           0        1.720046    2.583828   -1.740629
     10          1           0        1.997244    3.972291   -0.675434
     11          6           0        4.465393    0.038986    0.224783
     12          6           0        4.410461   -1.488665    0.189428
     13          6           0        5.706446   -2.138209    0.675546
     14          1           0        5.304356    0.383230   -0.395726
     15          1           0        4.679824    0.368189    1.250741
     16          1           0        4.195947   -1.814264   -0.836528
     17          1           0        3.571005   -1.829869    0.808709
     18          1           0        5.922462   -1.841986    1.707142
     19          1           0        6.550954   -1.826293    0.052557
     20          1           0        5.645264   -3.230449    0.641946
     21          6           0       -5.443551    0.074951    0.449161
     22          6           0       -4.488832    0.760516    1.207471
     23          6           0       -3.124079    0.566219    0.974559
     24          6           0       -2.747705   -0.325043   -0.029077
     25          6           0       -3.674924   -1.022884   -0.801459
     26          6           0       -5.034272   -0.812996   -0.551120
     27          1           0       -6.501624    0.231943    0.636861
     28          1           0       -4.803779    1.450715    1.984953
     29          1           0       -2.363798    1.083903    1.546742
     30          1           0       -3.330366   -1.704499   -1.569638
     31          1           0       -5.773500   -1.346782   -1.141593
     32          7           0       -1.305764   -0.538991   -0.284875
     33          8           0       -1.000015   -1.329605   -1.174865
     34          8           0       -0.508623    0.087984    0.409464
 ---------------------------------------------------------------------

 SCF Done:  E(RHF) =  -669.536266097     A.U. after   15 cycles
 E2 =    -0.2091705878D+01 EUMP2 =    -0.67162797197571D+03

 The electronic state is 1-A.
 Alpha  occ. eigenvalues --  -20.61048 -20.61040 -15.86065 -11.31349 -11.27909
 Alpha  occ. eigenvalues --  -11.27903 -11.27637 -11.26906 -11.26896 -11.20375
 Alpha  occ. eigenvalues --  -11.20267 -11.20121 -11.20071 -11.19720 -11.19574
 Alpha  occ. eigenvalues --   -1.60092  -1.39652  -1.19513  -1.08924  -1.07030
 Alpha  occ. eigenvalues --   -1.04904  -1.02261  -0.95772  -0.94705  -0.86306
 Alpha  occ. eigenvalues --   -0.85728  -0.82612  -0.78332  -0.77667  -0.76775
 Alpha  occ. eigenvalues --   -0.72290  -0.71398  -0.70622  -0.65172  -0.64907
 Alpha  occ. eigenvalues --   -0.63666  -0.62252  -0.59671  -0.58082  -0.56309
 Alpha  occ. eigenvalues --   -0.55410  -0.53996  -0.53236  -0.52996  -0.51474
 Alpha  occ. eigenvalues --   -0.51127  -0.49112  -0.49042  -0.48615  -0.46646
 Alpha  occ. eigenvalues --   -0.45396  -0.45027  -0.44348  -0.44103  -0.42469
 Alpha  occ. eigenvalues --   -0.37488  -0.36502
 Alpha virt. eigenvalues --    0.04841   0.11153   0.16326   0.21253   0.24201
 Alpha virt. eigenvalues --    0.25507   0.27184   0.27817   0.28238   0.29041
 Alpha virt. eigenvalues --    0.29252   0.30833   0.32092   0.32756   0.32939

 Mulliken charges:
               1
     1  C   -0.306504
     2  C   -0.297968
     3  C   -0.478079
     4  H    0.149589
     5  H    0.176968
     6  H    0.145340
     7  H    0.146168
     8  H    0.166973
     9  H    0.153026
    10  H    0.150168
    11  C   -0.297729
    12  C   -0.298490
    13  C   -0.474951
    14  H    0.143712
    15  H    0.144674
    16  H    0.152884
    17  H    0.155634
    18  H    0.152341
    19  H    0.152400
    20  H    0.157343
    21  C   -0.170462
    22  C   -0.218491
    23  C   -0.170523
    24  C    0.157577
    25  C   -0.170402
    26  C   -0.218583
    27  H    0.226215
    28  H    0.224045
    29  H    0.275396
    30  H    0.275991
    31  H    0.224019
    32  N    0.491636
    33  O   -0.457656
    34  O   -0.462262
 Sum of Mulliken charges =  -0.00000

 Dipole moment (field-independent basis, Debye):
    X=             -5.5459    Y=              0.5840    Z=              0.9150  Tot=              5.6512
 Quadrupole moment (field-independent basis, Debye-Ang):
   XX=            -69.4903   YY=            -94.9353   ZZ=            -91.8551
   XY=              0.5865   XZ=             -2.0967   YZ=              2.9398

 Normal termination of Gaussian 16 at Wed May  5 15:44:35 2021.
