 Gaussian 16, Revision A.03,
 Gaussian 16:  EM64L-G16RevA.03 25-Dec-2016

 -------------
 #p 6-31g* mp2
 -------------

 ------------------------------------------------------
 Input file generated by CHIRIPA (05-May-2021 14:51:08)
 ------------------------------------------------------
 Symbolic Z-matrix:
 Charge =  0 Multiplicity = 1

                         Standard orientation:
 ---------------------------------------------------------------------
 Center     Atomic      Atomic             Coordinates (Angstroms)
 Number     Number       Type             X           Y           Z
 ---------------------------------------------------------------------
      1          6           0       -2.531131    0.453181   -0.176909
      2          6           0       -3.770050    1.271640   -0.541858
      3          6           0       -3.423350    2.654779   -1.093688
      4          1           0       -1.938687    1.007199    0.564049
      5          1           0       -1.896254    0.345183   -1.067225
      6          1           0       -4.403077    1.376886    0.348544
      7          1           0       -4.359712    0.715522   -1.281890
      8          1           0       -2.811120    2.566767   -1.997032
      9          1           0       -2.854731    3.231889   -0.357333
     10          1           0       -4.323656    3.222774   -1.348033
     11          6           0       -2.861452   -0.931993    0.376182
     12          6           0       -1.622532   -1.750452    0.741131
     13          6           0       -1.969233   -3.133592    1.292962
     14          1           0       -3.496329   -0.823995    1.266498
     15          1           0       -3.453896   -1.486012   -0.364776
     16          1           0       -1.032871   -1.194334    1.481164
     17          1           0       -0.989505   -1.855698   -0.149271
     18          1           0       -2.537851   -3.710701    0.556606
     19          1           0       -2.581463   -3.045580    2.196305
     20          1           0       -1.068927   -3.701586    1.547306
     21          6           0        2.322139    0.880217    0.081483
     22          6           0        3.227487    1.967975    0.660373
     23          6           0        2.464435    3.243828    1.017790
     24          1           0        1.817256    1.269966   -0.813019
     25          1           0        1.532545    0.644842    0.808487
     26          1           0        4.015955    2.200246   -0.066939
     27          1           0        3.730418    1.575528    1.553492
     28          1           0        1.688770    3.033338    1.761187
     29          1           0        1.975929    3.661605    0.131548
     30          1           0        3.130801    4.008048    1.429838
     31          6           0        3.070443   -0.401404   -0.280756
     32          6           0        2.165096   -1.489162   -0.859646
     33          6           0        2.928147   -2.765016   -1.217063
     34          1           0        3.860038   -0.166029   -1.007760
     35          1           0        3.575326   -0.791153    0.613746
     36          1           0        1.662165   -1.096715   -1.752765
     37          1           0        1.376628   -1.721433   -0.132334
     38          1           0        3.416654   -3.182793   -0.330822
     39          1           0        3.703813   -2.554525   -1.960460
     40          1           0        2.261781   -3.529236   -1.629111
 ---------------------------------------------------------------------

 SCF Done:  E(RHF) =  -470.733102680     A.U. after   11 cycles
 E2 =    -0.1583457140D+01 EUMP2 =    -0.47231655982001D+03

 The electronic state is 1-A.
 Alpha  occ. eigenvalues --  -11.21589 -11.21584 -11.21582 -11.21522 -11.21393
 Alpha  occ. eigenvalues --  -11.21369 -11.21331 -11.21310 -11.21091 -11.21062
 Alpha  occ. eigenvalues --  -11.21057 -11.21051  -1.08439  -1.08383  -1.03551
 Alpha  occ. eigenvalues --   -1.03485  -0.95980  -0.95952  -0.87001  -0.86963
 Alpha  occ. eigenvalues --   -0.79719  -0.79471  -0.78379  -0.78057  -0.65061
 Alpha  occ. eigenvalues --   -0.65029  -0.60990  -0.60857  -0.59423  -0.59251
 Alpha  occ. eigenvalues --   -0.57642  -0.57510  -0.55269  -0.55236  -0.52689
 Alpha  occ. eigenvalues --   -0.52637  -0.52423  -0.52358  -0.49948  -0.49877
 Alpha  occ. eigenvalues --   -0.48185  -0.47724  -0.46746  -0.46483  -0.46115
 Alpha  occ. eigenvalues --   -0.45758  -0.45633  -0.45225  -0.43782  -0.43743
 Alpha virt. eigenvalues --    0.21355   0.23269   0.23413   0.24341   0.25471
 Alpha virt. eigenvalues --    0.25899   0.27012   0.27681   0.28074   0.30005
 Alpha virt. eigenvalues --    0.30701   0.31196   0.31665   0.31795   0.32065

 Mulliken charges:
               1
     1  C   -0.298573
     2  C   -0.299699
     3  C   -0.475654
     4  H    0.150073
     5  H    0.149995
     6  H    0.151839
     7  H    0.151818
     8  H    0.154926
     9  H    0.155536
    10  H    0.160150
    11  C   -0.297836
    12  C   -0.305620
    13  C   -0.476201
    14  H    0.149238
    15  H    0.149555
    16  H    0.151189
    17  H    0.158784
    18  H    0.155380
    19  H    0.155274
    20  H    0.160049
    21  C   -0.299486
    22  C   -0.299684
    23  C   -0.475542
    24  H    0.149856
    25  H    0.150806
    26  H    0.151932
    27  H    0.151735
    28  H    0.154552
    29  H    0.155498
    30  H    0.160171
    31  C   -0.297774
    32  C   -0.307330
    33  C   -0.475438
    34  H    0.149187
    35  H    0.149242
    36  H    0.150397
    37  H    0.161956
    38  H    0.154957
    39  H    0.155024
    40  H    0.159721
 Sum of Mulliken charges =  -0.00000

 Dipole moment (field-independent basis, Debye):
    X=             -0.0173    Y=             -0.0031    Z=             -0.0020  Tot=              0.0177
 Quadrupole moment (field-independent basis, Debye-Ang):
   XX=            -85.0797   YY=            -86.5867   ZZ=            -83.2923
   XY=              0.3900   XZ=              0.0297   YZ=              0.1329

 Normal termination of Gaussian 16 at Wed May  5 16:36:21 2021.
