 Gaussian 16, Revision A.03,
 Gaussian 16:  EM64L-G16RevA.03 25-Dec-2016

 -------------
 #p 6-31g* mp2
 -------------

 ------------------------------------------------------
 Input file generated by CHIRIPA (05-May-2021 14:53:12)
 ------------------------------------------------------
 Symbolic Z-matrix:
 Charge =  0 Multiplicity = 1

                         Standard orientation:
 ---------------------------------------------------------------------
 Center     Atomic      Atomic             Coordinates (Angstroms)
 Number     Number       Type             X           Y           Z
 ---------------------------------------------------------------------
      1          6           0       -4.311140   -0.578830    0.074768
      2          6           0       -5.675191   -1.028152   -0.450076
      3          6           0       -6.009709   -2.470392   -0.068191
      4          1           0       -3.535468   -1.252168   -0.314969
      5          1           0       -4.294511   -0.682774    1.168529
      6          1           0       -5.689721   -0.922086   -1.542392
      7          1           0       -6.447684   -0.353552   -0.059199
      8          1           0       -6.022716   -2.587578    1.020248
      9          1           0       -5.260447   -3.159342   -0.471372
     10          1           0       -6.989054   -2.770873   -0.453490
     11          6           0       -3.962493    0.860804   -0.298898
     12          6           0       -2.598442    1.310126    0.225946
     13          6           0       -2.263924    2.752365   -0.155939
     14          1           0       -3.979122    0.964747   -1.392659
     15          1           0       -4.738165    1.534141    0.090838
     16          1           0       -1.825949    0.635525   -0.164931
     17          1           0       -2.583912    1.204059    1.318262
     18          1           0       -3.013186    3.441315    0.247242
     19          1           0       -2.250917    2.869551   -1.244378
     20          1           0       -1.284580    3.052846    0.229360
     21          6           0        1.018399    0.751999    0.937900
     22          6           0        1.381222    0.952589   -0.398006
     23          6           0        2.605193    0.479245   -0.880072
     24          6           0        3.445880   -0.193495    0.005343
     25          6           0        3.112743   -0.409035    1.341700
     26          6           0        1.883791    0.073025    1.801965
     27          1           0        0.065654    1.123089    1.303913
     28          1           0        0.711137    1.479543   -1.071319
     29          1           0        2.911097    0.620692   -1.909554
     30          1           0        3.801694   -0.937974    1.988992
     31          1           0        1.604640   -0.084207    2.839943
     32          7           0        4.744280   -0.699217   -0.493460
     33          8           0        5.467214   -1.288824    0.306769
     34          8           0        5.014446   -0.496417   -1.675204
 ---------------------------------------------------------------------

 SCF Done:  E(RHF) =  -669.534806937     A.U. after   15 cycles
 E2 =    -0.2092609480D+01 EUMP2 =    -0.67162741641716D+03

 The electronic state is 1-A.
 Alpha  occ. eigenvalues --  -20.60715 -20.60710 -15.85769 -11.31118 -11.27693
 Alpha  occ. eigenvalues --  -11.27690 -11.27337 -11.26678 -11.26664 -11.22932
 Alpha  occ. eigenvalues --  -11.22447 -11.22361 -11.22214 -11.22132 -11.21563
 Alpha  occ. eigenvalues --   -1.59792  -1.39345  -1.19289  -1.09378  -1.08676
 Alpha  occ. eigenvalues --   -1.04699  -1.04492  -0.96926  -0.95514  -0.87928
 Alpha  occ. eigenvalues --   -0.86087  -0.82366  -0.80612  -0.79128  -0.77409
 Alpha  occ. eigenvalues --   -0.71987  -0.71115  -0.70412  -0.66014  -0.64939
 Alpha  occ. eigenvalues --   -0.64719  -0.62124  -0.61797  -0.60335  -0.58540
 Alpha  occ. eigenvalues --   -0.56169  -0.55096  -0.53633  -0.53354  -0.53010
 Alpha  occ. eigenvalues --   -0.52764  -0.50842  -0.48894  -0.48743  -0.48735
 Alpha  occ. eigenvalues --   -0.47625  -0.46656  -0.46544  -0.44755  -0.44719
 Alpha  occ. eigenvalues --   -0.37232  -0.36300
 Alpha virt. eigenvalues --    0.05113   0.11254   0.16591   0.19683   0.22376
 Alpha virt. eigenvalues --    0.23959   0.25217   0.26175   0.26551   0.27468
 Alpha virt. eigenvalues --    0.29328   0.30275   0.30633   0.31020   0.31504

 Mulliken charges:
               1
     1  C   -0.299521
     2  C   -0.300466
     3  C   -0.476282
     4  H    0.151462
     5  H    0.149481
     6  H    0.153296
     7  H    0.152926
     8  H    0.155531
     9  H    0.156470
    10  H    0.162355
    11  C   -0.297142
    12  C   -0.312345
    13  C   -0.482187
    14  H    0.152245
    15  H    0.152710
    16  H    0.153485
    17  H    0.149525
    18  H    0.163360
    19  H    0.158790
    20  H    0.155477
    21  C   -0.175832
    22  C   -0.225019
    23  C   -0.171014
    24  C    0.157999
    25  C   -0.170723
    26  C   -0.220678
    27  H    0.238791
    28  H    0.226623
    29  H    0.275327
    30  H    0.275269
    31  H    0.223357
    32  N    0.488077
    33  O   -0.460633
    34  O   -0.460715
 Sum of Mulliken charges =  -0.00000

 Dipole moment (field-independent basis, Debye):
    X=             -4.8550    Y=              1.7664    Z=              1.7236  Tot=              5.4463
 Quadrupole moment (field-independent basis, Debye-Ang):
   XX=           -125.8264   YY=            -96.2806   ZZ=            -90.0003
   XY=              6.0436   XZ=              6.9797   YZ=             -1.7991

 Normal termination of Gaussian 16 at Thu May  6 13:40:54 2021.
