 Gaussian 16, Revision A.03,
 Gaussian 16:  EM64L-G16RevA.03 25-Dec-2016

 -------------
 #p 6-31g* mp2
 -------------

 ------------------------------------------------------
 Input file generated by CHIRIPA (05-May-2021 14:53:15)
 ------------------------------------------------------
 Symbolic Z-matrix:
 Charge =  0 Multiplicity = 1

                         Standard orientation:
 ---------------------------------------------------------------------
 Center     Atomic      Atomic             Coordinates (Angstroms)
 Number     Number       Type             X           Y           Z
 ---------------------------------------------------------------------
      1          6           0        4.312887    0.335825   -0.411969
      2          6           0        5.131743    0.635895    0.843984
      3          6           0        6.302113    1.582165    0.574538
      4          1           0        4.971123   -0.100937   -1.175454
      5          1           0        3.934235    1.279500   -0.828497
      6          1           0        5.507584   -0.308185    1.258799
      7          1           0        4.471441    1.071817    1.604636
      8          1           0        5.941749    2.538615    0.182182
      9          1           0        6.983779    1.150772   -0.165619
     10          1           0        6.873926    1.783116    1.485860
     11          6           0        3.139319   -0.608797   -0.158680
     12          6           0        2.320463   -0.908867   -1.414633
     13          6           0        1.150093   -1.855137   -1.145186
     14          1           0        3.517971   -1.552471    0.257849
     15          1           0        2.481083   -0.172035    0.604805
     16          1           0        2.980765   -1.344788   -2.175284
     17          1           0        1.944622    0.035214   -1.829448
     18          1           0        0.468427   -1.423744   -0.405029
     19          1           0        1.510457   -2.811587   -0.752831
     20          1           0        0.578280   -2.056087   -2.056508
     21          6           0       -3.749092    2.262112   -0.785780
     22          6           0       -3.557888    1.137973   -1.595888
     23          6           0       -3.093933   -0.061561   -1.047789
     24          6           0       -2.829996   -0.101754    0.320426
     25          6           0       -3.010493    1.001114    1.153728
     26          6           0       -3.475267    2.190221    0.584028
     27          1           0       -4.109822    3.189888   -1.219946
     28          1           0       -3.769722    1.190897   -2.660017
     29          1           0       -2.937083   -0.946953   -1.651855
     30          1           0       -2.790671    0.917723    2.211151
     31          1           0       -3.622833    3.061655    1.215589
     32          7           0       -2.338394   -1.366128    0.912108
     33          8           0       -2.113173   -1.375676    2.120339
     34          8           0       -2.187608   -2.323655    0.156434
 ---------------------------------------------------------------------

 SCF Done:  E(RHF) =  -669.535474975     A.U. after   15 cycles
 E2 =    -0.2091490435D+01 EUMP2 =    -0.67162696540946D+03

 The electronic state is 1-A.
 Alpha  occ. eigenvalues --  -20.60855 -20.60832 -15.85870 -11.31238 -11.27809
 Alpha  occ. eigenvalues --  -11.27801 -11.27552 -11.26822 -11.26811 -11.21337
 Alpha  occ. eigenvalues --  -11.21098 -11.21076 -11.20923 -11.20883 -11.20272
 Alpha  occ. eigenvalues --   -1.59913  -1.39465  -1.19412  -1.08810  -1.08047
 Alpha  occ. eigenvalues --   -1.04812  -1.03113  -0.95649  -0.95534  -0.86544
 Alpha  occ. eigenvalues --   -0.86210  -0.82475  -0.79177  -0.77853  -0.77520
 Alpha  occ. eigenvalues --   -0.72097  -0.71250  -0.70518  -0.65065  -0.64815
 Alpha  occ. eigenvalues --   -0.64685  -0.62158  -0.60517  -0.58933  -0.57155
 Alpha  occ. eigenvalues --   -0.55316  -0.54830  -0.53144  -0.52904  -0.52228
 Alpha  occ. eigenvalues --   -0.51950  -0.49493  -0.48863  -0.48854  -0.47493
 Alpha  occ. eigenvalues --   -0.46257  -0.45427  -0.45337  -0.44722  -0.43359
 Alpha  occ. eigenvalues --   -0.37394  -0.36414
 Alpha virt. eigenvalues --    0.04993   0.11226   0.16470   0.21336   0.23191
 Alpha virt. eigenvalues --    0.24591   0.26985   0.27187   0.27801   0.27896
 Alpha virt. eigenvalues --    0.28648   0.30887   0.31666   0.31888   0.32167

 Mulliken charges:
               1
     1  C   -0.297668
     2  C   -0.299356
     3  C   -0.475407
     4  H    0.148857
     5  H    0.146917
     6  H    0.152890
     7  H    0.151683
     8  H    0.153655
     9  H    0.154851
    10  H    0.159700
    11  C   -0.297746
    12  C   -0.301450
    13  C   -0.468933
    14  H    0.151489
    15  H    0.150128
    16  H    0.149487
    17  H    0.146277
    18  H    0.156299
    19  H    0.159485
    20  H    0.155611
    21  C   -0.170683
    22  C   -0.218680
    23  C   -0.170477
    24  C    0.156760
    25  C   -0.171185
    26  C   -0.218656
    27  H    0.225786
    28  H    0.223691
    29  H    0.276304
    30  H    0.275677
    31  H    0.223582
    32  N    0.486837
    33  O   -0.459719
    34  O   -0.456006
 Sum of Mulliken charges =  -0.00000

 Dipole moment (field-independent basis, Debye):
    X=             -1.8685    Y=              4.3556    Z=             -2.0302  Tot=              5.1560
 Quadrupole moment (field-independent basis, Debye-Ang):
   XX=            -86.5617   YY=            -94.8241   ZZ=            -92.2926
   XY=            -13.8625   XZ=              5.7389   YZ=              4.0457

 Normal termination of Gaussian 16 at Thu May  6 10:35:35 2021.
