 Gaussian 16, Revision A.03,
 Gaussian 16:  EM64L-G16RevA.03 25-Dec-2016

 -------------
 #p 6-31g* mp2
 -------------

 ------------------------------------------------------
 Input file generated by CHIRIPA (05-May-2021 14:51:09)
 ------------------------------------------------------
 Symbolic Z-matrix:
 Charge =  0 Multiplicity = 1

                         Standard orientation:
 ---------------------------------------------------------------------
 Center     Atomic      Atomic             Coordinates (Angstroms)
 Number     Number       Type             X           Y           Z
 ---------------------------------------------------------------------
      1          6           0        3.388855   -0.320941    0.160425
      2          6           0        3.687419    0.568168   -1.047189
      3          6           0        5.054671    1.246747   -0.958051
      4          1           0        3.440127    0.284942    1.075423
      5          1           0        4.173572   -1.085192    0.247224
      6          1           0        2.901625    1.329657   -1.132498
      7          1           0        3.635241   -0.039862   -1.959435
      8          1           0        5.852354    0.499424   -0.896299
      9          1           0        5.114569    1.876725   -0.064664
     10          1           0        5.247545    1.877451   -1.831476
     11          6           0        2.025562   -1.006220    0.085896
     12          6           0        1.726998   -1.895329    1.293509
     13          6           0        0.359746   -2.573908    1.204371
     14          1           0        1.240845   -0.241969   -0.000903
     15          1           0        1.974290   -1.612103   -0.829102
     16          1           0        1.779176   -1.287299    2.205755
     17          1           0        2.512792   -2.656818    1.378819
     18          1           0        0.299848   -3.203886    0.310984
     19          1           0       -0.437937   -1.826585    1.142619
     20          1           0        0.166872   -3.204612    2.077796
     21          6           0       -2.162563    1.086066    0.205928
     22          6           0       -2.517671    2.570628    0.295143
     23          6           0       -1.418235    3.402773    0.955877
     24          1           0       -1.966383    0.701165    1.216032
     25          1           0       -1.226698    0.973358   -0.358737
     26          1           0       -3.453318    2.680399    0.858285
     27          1           0       -2.713216    2.951995   -0.715272
     28          1           0       -0.483198    3.322937    0.392022
     29          1           0       -1.227506    3.049799    1.974520
     30          1           0       -1.692893    4.460869    1.009322
     31          6           0       -3.251854    0.241095   -0.452249
     32          6           0       -2.896746   -1.243467   -0.541463
     33          6           0       -3.996182   -2.075612   -1.202197
     34          1           0       -4.187720    0.353804    0.112418
     35          1           0       -3.448034    0.625997   -1.462352
     36          1           0       -2.701201   -1.624834    0.468952
     37          1           0       -1.961098   -1.353238   -1.104606
     38          1           0       -4.186910   -1.722637   -2.220840
     39          1           0       -4.931219   -1.995776   -0.638341
     40          1           0       -3.721525   -3.133708   -1.255643
 ---------------------------------------------------------------------

 SCF Done:  E(RHF) =  -470.732669099     A.U. after   11 cycles
 E2 =    -0.1584060038D+01 EUMP2 =    -0.47231672913705D+03

 The electronic state is 1-A.
 Alpha  occ. eigenvalues --  -11.21665 -11.21599 -11.21550 -11.21526 -11.21468
 Alpha  occ. eigenvalues --  -11.21383 -11.21369 -11.21306 -11.21138 -11.21064
 Alpha  occ. eigenvalues --  -11.21045 -11.20905  -1.08482  -1.08382  -1.03566
 Alpha  occ. eigenvalues --   -1.03470  -0.96012  -0.95928  -0.87049  -0.86929
 Alpha  occ. eigenvalues --   -0.79713  -0.79486  -0.78401  -0.78089  -0.65107
 Alpha  occ. eigenvalues --   -0.65020  -0.60982  -0.60854  -0.59411  -0.59284
 Alpha  occ. eigenvalues --   -0.57662  -0.57500  -0.55304  -0.55221  -0.52724
 Alpha  occ. eigenvalues --   -0.52625  -0.52504  -0.52281  -0.49960  -0.49900
 Alpha  occ. eigenvalues --   -0.48142  -0.47685  -0.46774  -0.46568  -0.46134
 Alpha  occ. eigenvalues --   -0.45709  -0.45691  -0.45184  -0.43809  -0.43739
 Alpha virt. eigenvalues --    0.20893   0.23167   0.23700   0.24197   0.25208
 Alpha virt. eigenvalues --    0.25635   0.26985   0.27712   0.28258   0.30046
 Alpha virt. eigenvalues --    0.30936   0.31507   0.31635   0.31843   0.31996

 Mulliken charges:
               1
     1  C   -0.298022
     2  C   -0.299421
     3  C   -0.475687
     4  H    0.149826
     5  H    0.149544
     6  H    0.151051
     7  H    0.151767
     8  H    0.155239
     9  H    0.155338
    10  H    0.160114
    11  C   -0.303040
    12  C   -0.299009
    13  C   -0.482424
    14  H    0.153880
    15  H    0.148908
    16  H    0.151380
    17  H    0.151281
    18  H    0.154251
    19  H    0.165039
    20  H    0.158548
    21  C   -0.304137
    22  C   -0.299446
    23  C   -0.475777
    24  H    0.149768
    25  H    0.153470
    26  H    0.152358
    27  H    0.152374
    28  H    0.154579
    29  H    0.155139
    30  H    0.160725
    31  C   -0.297920
    32  C   -0.303633
    33  C   -0.475313
    34  H    0.149471
    35  H    0.149646
    36  H    0.155603
    37  H    0.154246
    38  H    0.154817
    39  H    0.154865
    40  H    0.160606
 Sum of Mulliken charges =  -0.00000

 Dipole moment (field-independent basis, Debye):
    X=             -0.0524    Y=              0.0160    Z=             -0.0062  Tot=              0.0552
 Quadrupole moment (field-independent basis, Debye-Ang):
   XX=            -85.8552   YY=            -85.0329   ZZ=            -83.9551
   XY=             -1.2823   XZ=             -0.8785   YZ=              0.0030

 Normal termination of Gaussian 16 at Thu May  6 05:20:46 2021.
