 Gaussian 16, Revision A.03,
 Gaussian 16:  EM64L-G16RevA.03 25-Dec-2016

 -------------
 #p 6-31g* mp2
 -------------

 ------------------------------------------------------
 Input file generated by CHIRIPA (05-May-2021 14:55:23)
 ------------------------------------------------------
 Symbolic Z-matrix:
 Charge =  0 Multiplicity = 1

                         Standard orientation:
 ---------------------------------------------------------------------
 Center     Atomic      Atomic             Coordinates (Angstroms)
 Number     Number       Type             X           Y           Z
 ---------------------------------------------------------------------
      1          6           0       -1.912793    2.201286    0.436460
      2          6           0       -1.715790    1.087283    1.259083
      3          6           0       -2.514535   -0.051166    1.115944
      4          6           0       -3.505479   -0.041275    0.135525
      5          6           0       -3.726270    1.053021   -0.699375
      6          6           0       -2.915637    2.180636   -0.538425
      7          1           0       -1.287692    3.081453    0.554572
      8          1           0       -0.937729    1.100503    2.017034
      9          1           0       -2.383650   -0.927366    1.739291
     10          1           0       -4.509885    1.010152   -1.446053
     11          1           0       -3.070899    3.044341   -1.178699
     12          7           0       -4.357367   -1.240765   -0.025437
     13          8           0       -5.223633   -1.206984   -0.896689
     14          8           0       -4.142681   -2.191995    0.722700
     15          6           0        4.908129   -0.090603    0.251288
     16          6           0        6.246492   -0.409603   -0.415802
     17          6           0        7.438999   -0.185432    0.514502
     18          1           0        4.916228    0.953025    0.594392
     19          1           0        4.796131   -0.713972    1.149209
     20          1           0        6.355313    0.213191   -1.312965
     21          1           0        6.235134   -1.452536   -0.757529
     22          1           0        7.357580   -0.817902    1.404421
     23          1           0        7.478443    0.857290    0.845829
     24          1           0        8.385550   -0.419486    0.017391
     25          6           0        3.706469   -0.309822   -0.666146
     26          6           0        2.368106    0.009180    0.000944
     27          6           0        1.175599   -0.214993   -0.929362
     28          1           0        3.818467    0.313547   -1.564067
     29          1           0        3.698370   -1.353450   -1.009250
     30          1           0        2.379465    1.052113    0.342671
     31          1           0        2.259285   -0.613615    0.898107
     32          1           0        1.136156   -1.257714   -1.260687
     33          1           0        1.257018    0.417478   -1.819278
     34          1           0        0.229048    0.019061   -0.432249
 ---------------------------------------------------------------------

 SCF Done:  E(RHF) =  -669.534909181     A.U. after   15 cycles
 E2 =    -0.2092298981D+01 EUMP2 =    -0.67162720816115D+03

 The electronic state is 1-A.
 Alpha  occ. eigenvalues --  -20.60803 -20.60797 -15.85857 -11.31255 -11.27823
 Alpha  occ. eigenvalues --  -11.27818 -11.27565 -11.26840 -11.26826 -11.22041
 Alpha  occ. eigenvalues --  -11.21861 -11.21729 -11.21668 -11.21308 -11.21192
 Alpha  occ. eigenvalues --   -1.59877  -1.39430  -1.19439  -1.08828  -1.08747
 Alpha  occ. eigenvalues --   -1.04851  -1.03827  -0.96252  -0.95648  -0.87268
 Alpha  occ. eigenvalues --   -0.86233  -0.82481  -0.79903  -0.78574  -0.77523
 Alpha  occ. eigenvalues --   -0.72075  -0.71200  -0.70529  -0.65384  -0.65084
 Alpha  occ. eigenvalues --   -0.64840  -0.62185  -0.61228  -0.59677  -0.57916
 Alpha  occ. eigenvalues --   -0.55532  -0.55331  -0.53613  -0.52927  -0.52775
 Alpha  occ. eigenvalues --   -0.52365  -0.50191  -0.48837  -0.48828  -0.48207
 Alpha  occ. eigenvalues --   -0.46950  -0.46109  -0.46041  -0.44829  -0.44082
 Alpha  occ. eigenvalues --   -0.37385  -0.36383
 Alpha virt. eigenvalues --    0.05004   0.11160   0.16465   0.21071   0.22625
 Alpha virt. eigenvalues --    0.24111   0.26297   0.26663   0.27420   0.28110
 Alpha virt. eigenvalues --    0.28341   0.30753   0.31141   0.31689   0.32109

 Mulliken charges:
               1
     1  C   -0.168279
     2  C   -0.223057
     3  C   -0.170086
     4  C    0.159768
     5  C   -0.170570
     6  C   -0.217860
     7  H    0.226353
     8  H    0.225901
     9  H    0.276281
    10  H    0.276025
    11  H    0.223891
    12  N    0.488121
    13  O   -0.460151
    14  O   -0.460198
    15  C   -0.298267
    16  C   -0.299887
    17  C   -0.475820
    18  H    0.147868
    19  H    0.149553
    20  H    0.152059
    21  H    0.153184
    22  H    0.155503
    23  H    0.154588
    24  H    0.161203
    25  C   -0.297776
    26  C   -0.299263
    27  C   -0.485255
    28  H    0.149763
    29  H    0.152113
    30  H    0.144831
    31  H    0.149601
    32  H    0.157638
    33  H    0.153178
    34  H    0.169044
 Sum of Mulliken charges =  -0.00000

 Dipole moment (field-independent basis, Debye):
    X=              2.9304    Y=              4.2268    Z=              0.5553  Tot=              5.1732
 Quadrupole moment (field-independent basis, Debye-Ang):
   XX=           -115.9131   YY=            -93.6043   ZZ=            -92.4266
   XY=            -16.5589   XZ=             -0.0571   YZ=             -1.7648

 Normal termination of Gaussian 16 at Wed May  5 19:03:33 2021.
