 Gaussian 16, Revision A.03,
 Gaussian 16:  EM64L-G16RevA.03 25-Dec-2016

 -------------
 #p 6-31g* mp2
 -------------

 ------------------------------------------------------
 Input file generated by CHIRIPA (05-May-2021 14:53:13)
 ------------------------------------------------------
 Symbolic Z-matrix:
 Charge =  0 Multiplicity = 1

                         Standard orientation:
 ---------------------------------------------------------------------
 Center     Atomic      Atomic             Coordinates (Angstroms)
 Number     Number       Type             X           Y           Z
 ---------------------------------------------------------------------
      1          6           0       -3.950792    0.876898    0.204994
      2          6           0       -2.539398    1.457167    0.301125
      3          6           0       -2.534133    2.980666    0.430413
      4          1           0       -4.465094    1.321334   -0.658091
      5          1           0       -4.522573    1.172205    1.095642
      6          1           0       -1.970019    1.159697   -0.588783
      7          1           0       -2.028330    1.011155    1.163968
      8          1           0       -3.078531    3.293047    1.327436
      9          1           0       -3.019889    3.442433   -0.435273
     10          1           0       -1.515137    3.374347    0.497677
     11          6           0       -3.972535   -0.645085    0.075286
     12          6           0       -5.383929   -1.225353   -0.020845
     13          6           0       -5.389194   -2.748853   -0.150134
     14          1           0       -3.400753   -0.940392   -0.815363
     15          1           0       -3.458233   -1.089521    0.938370
     16          1           0       -5.894997   -0.779341   -0.883689
     17          1           0       -5.953308   -0.927883    0.869062
     18          1           0       -4.903438   -3.210619    0.715553
     19          1           0       -4.844795   -3.061233   -1.047157
     20          1           0       -6.408189   -3.142533   -0.217398
     21          6           0        1.254216    1.552573   -0.636168
     22          6           0        2.537882    2.014700   -0.327686
     23          6           0        3.565519    1.113365   -0.034249
     24          6           0        3.273015   -0.249403   -0.058566
     25          6           0        2.004306   -0.740815   -0.362186
     26          6           0        0.991988    0.178712   -0.652405
     27          1           0        0.461872    2.259818   -0.862867
     28          1           0        2.744421    3.081100   -0.314323
     29          1           0        4.568327    1.443790    0.207858
     30          1           0        1.828864   -1.809745   -0.367574
     31          1           0       -0.003977   -0.183047   -0.891632
     32          7           0        4.352820   -1.213236    0.250378
     33          8           0        4.069418   -2.408865    0.222258
     34          8           0        5.462127   -0.754809    0.514801
 ---------------------------------------------------------------------

 SCF Done:  E(RHF) =  -669.534984524     A.U. after   15 cycles
 E2 =    -0.2092297367D+01 EUMP2 =    -0.67162728189139D+03

 The electronic state is 1-A.
 Alpha  occ. eigenvalues --  -20.60708 -20.60703 -15.85760 -11.31110 -11.27676
 Alpha  occ. eigenvalues --  -11.27658 -11.27380 -11.26692 -11.26632 -11.22831
 Alpha  occ. eigenvalues --  -11.22325 -11.22259 -11.22256 -11.22200 -11.21588
 Alpha  occ. eigenvalues --   -1.59784  -1.39338  -1.19276  -1.09352  -1.08671
 Alpha  occ. eigenvalues --   -1.04681  -1.04429  -0.96863  -0.95510  -0.87879
 Alpha  occ. eigenvalues --   -0.86082  -0.82344  -0.80538  -0.79146  -0.77391
 Alpha  occ. eigenvalues --   -0.71979  -0.71107  -0.70404  -0.65994  -0.64926
 Alpha  occ. eigenvalues --   -0.64695  -0.62082  -0.61768  -0.60262  -0.58486
 Alpha  occ. eigenvalues --   -0.56127  -0.55161  -0.53573  -0.53266  -0.52999
 Alpha  occ. eigenvalues --   -0.52769  -0.50790  -0.48871  -0.48735  -0.48678
 Alpha  occ. eigenvalues --   -0.47550  -0.46661  -0.46570  -0.44747  -0.44682
 Alpha  occ. eigenvalues --   -0.37243  -0.36275
 Alpha virt. eigenvalues --    0.05118   0.11340   0.16562   0.19461   0.22476
 Alpha virt. eigenvalues --    0.23327   0.24568   0.25932   0.26283   0.28550
 Alpha virt. eigenvalues --    0.29081   0.30232   0.30924   0.31443   0.32069

 Mulliken charges:
               1
     1  C   -0.298289
     2  C   -0.304682
     3  C   -0.478567
     4  H    0.151578
     5  H    0.153750
     6  H    0.141515
     7  H    0.158520
     8  H    0.162331
     9  H    0.157794
    10  H    0.154846
    11  C   -0.299680
    12  C   -0.300222
    13  C   -0.476438
    14  H    0.145239
    15  H    0.151674
    16  H    0.153080
    17  H    0.154087
    18  H    0.156672
    19  H    0.155241
    20  H    0.162770
    21  C   -0.174446
    22  C   -0.219493
    23  C   -0.171199
    24  C    0.158563
    25  C   -0.171846
    26  C   -0.220683
    27  H    0.230397
    28  H    0.222980
    29  H    0.275225
    30  H    0.275360
    31  H    0.227219
    32  N    0.487987
    33  O   -0.460618
    34  O   -0.460666
 Sum of Mulliken charges =  -0.00000

 Dipole moment (field-independent basis, Debye):
    X=             -4.0861    Y=              3.3888    Z=             -0.9930  Tot=              5.4006
 Quadrupole moment (field-independent basis, Debye-Ang):
   XX=           -117.0916   YY=            -94.8754   ZZ=            -94.3190
   XY=             14.7399   XZ=             -3.1947   YZ=              0.5612

 Normal termination of Gaussian 16 at Thu May  6 10:28:43 2021.
