 Gaussian 16, Revision A.03,
 Gaussian 16:  EM64L-G16RevA.03 25-Dec-2016

 -------------
 #p 6-31g* mp2
 -------------

 ------------------------------------------------------
 Input file generated by CHIRIPA (05-May-2021 14:51:13)
 ------------------------------------------------------
 Symbolic Z-matrix:
 Charge =  0 Multiplicity = 1

                         Standard orientation:
 ---------------------------------------------------------------------
 Center     Atomic      Atomic             Coordinates (Angstroms)
 Number     Number       Type             X           Y           Z
 ---------------------------------------------------------------------
      1          6           0        3.045083   -0.396791   -0.232897
      2          6           0        4.089206   -1.497088   -0.425610
      3          6           0        3.465386   -2.885913   -0.566351
      4          1           0        2.444154   -0.622458    0.658676
      5          1           0        2.353027   -0.404139   -1.086361
      6          1           0        4.779912   -1.486764    0.427287
      7          1           0        4.687844   -1.268676   -1.316720
      8          1           0        2.790961   -2.919767   -1.428096
      9          1           0        2.883552   -3.139095    0.325820
     10          1           0        4.229642   -3.657312   -0.703160
     11          6           0        3.653292    0.997333   -0.090670
     12          6           0        2.609169    2.097631    0.102043
     13          6           0        3.232988    3.486456    0.242784
     14          1           0        4.345347    1.004681    0.762794
     15          1           0        4.254220    1.223001   -0.982244
     16          1           0        2.010531    1.869218    0.993152
     17          1           0        1.918463    2.087307   -0.750855
     18          1           0        3.814823    3.739638   -0.649387
     19          1           0        3.907414    3.520310    1.104529
     20          1           0        2.468732    4.257854    0.379593
     21          6           0       -4.111596   -0.329112    0.198289
     22          6           0       -4.800190    0.739765   -0.651019
     23          6           0       -6.325267    0.669197   -0.567621
     24          1           0       -4.452430   -1.321871   -0.126070
     25          1           0       -4.428137   -0.216353    1.244465
     26          1           0       -4.481375    0.625893   -1.695053
     27          1           0       -4.457532    1.730086   -0.324728
     28          1           0       -6.661280    0.805006    0.465459
     29          1           0       -6.685259   -0.305462   -0.912652
     30          1           0       -6.797136    1.442141   -1.182240
     31          6           0       -2.586779   -0.271430    0.125278
     32          6           0       -1.898185   -1.340307    0.974587
     33          6           0       -0.373108   -1.269740    0.891188
     34          1           0       -2.270239   -0.384189   -0.920897
     35          1           0       -2.245945    0.721328    0.449637
     36          1           0       -2.240843   -2.330629    0.648295
     37          1           0       -2.216999   -1.226435    2.018620
     38          1           0       -0.013116   -0.295081    1.236219
     39          1           0       -0.037095   -1.405548   -0.141891
     40          1           0        0.098762   -2.042683    1.505807
 ---------------------------------------------------------------------

 SCF Done:  E(RHF) =  -470.732490277     A.U. after   11 cycles
 E2 =    -0.1583614607D+01 EUMP2 =    -0.47231610488354D+03

 The electronic state is 1-A.
 Alpha  occ. eigenvalues --  -11.21592 -11.21576 -11.21548 -11.21517 -11.21386
 Alpha  occ. eigenvalues --  -11.21326 -11.21313 -11.21192 -11.21064 -11.21053
 Alpha  occ. eigenvalues --  -11.21015 -11.20998  -1.08418  -1.08346  -1.03517
 Alpha  occ. eigenvalues --   -1.03465  -0.95990  -0.95892  -0.87028  -0.86901
 Alpha  occ. eigenvalues --   -0.79670  -0.79493  -0.78305  -0.78033  -0.65061
 Alpha  occ. eigenvalues --   -0.64972  -0.60905  -0.60880  -0.59369  -0.59249
 Alpha  occ. eigenvalues --   -0.57676  -0.57437  -0.55297  -0.55159  -0.52743
 Alpha  occ. eigenvalues --   -0.52621  -0.52505  -0.52187  -0.49944  -0.49830
 Alpha  occ. eigenvalues --   -0.47991  -0.47814  -0.46617  -0.46576  -0.45978
 Alpha  occ. eigenvalues --   -0.45734  -0.45556  -0.45337  -0.43736  -0.43703
 Alpha virt. eigenvalues --    0.21652   0.23074   0.23614   0.24300   0.25261
 Alpha virt. eigenvalues --    0.26203   0.26966   0.27483   0.27960   0.29557
 Alpha virt. eigenvalues --    0.29922   0.30845   0.31731   0.32028   0.32394

 Mulliken charges:
               1
     1  C   -0.303533
     2  C   -0.299284
     3  C   -0.476168
     4  H    0.160732
     5  H    0.148569
     6  H    0.151254
     7  H    0.151157
     8  H    0.154401
     9  H    0.156103
    10  H    0.159802
    11  C   -0.297930
    12  C   -0.300695
    13  C   -0.475611
    14  H    0.148891
    15  H    0.149033
    16  H    0.152022
    17  H    0.152200
    18  H    0.155286
    19  H    0.155080
    20  H    0.159933
    21  C   -0.298220
    22  C   -0.299592
    23  C   -0.475687
    24  H    0.149617
    25  H    0.149464
    26  H    0.151812
    27  H    0.151916
    28  H    0.155165
    29  H    0.155165
    30  H    0.160196
    31  C   -0.298166
    32  C   -0.301222
    33  C   -0.477911
    34  H    0.149150
    35  H    0.149757
    36  H    0.151696
    37  H    0.151274
    38  H    0.156360
    39  H    0.159242
    40  H    0.158740
 Sum of Mulliken charges =  -0.00000

 Dipole moment (field-independent basis, Debye):
    X=             -0.0047    Y=             -0.0040    Z=              0.0071  Tot=              0.0094
 Quadrupole moment (field-independent basis, Debye-Ang):
   XX=            -86.3750   YY=            -85.6044   ZZ=            -83.1464
   XY=             -0.2481   XZ=              0.0643   YZ=              0.2641

 Normal termination of Gaussian 16 at Thu May  6 00:47:36 2021.
