 Gaussian 16, Revision A.03,
 Gaussian 16:  EM64L-G16RevA.03 25-Dec-2016

 -------------
 #p 6-31g* mp2
 -------------

 ------------------------------------------------------
 Input file generated by CHIRIPA (05-May-2021 14:53:17)
 ------------------------------------------------------
 Symbolic Z-matrix:
 Charge =  0 Multiplicity = 1

                         Standard orientation:
 ---------------------------------------------------------------------
 Center     Atomic      Atomic             Coordinates (Angstroms)
 Number     Number       Type             X           Y           Z
 ---------------------------------------------------------------------
      1          6           0       -3.580053   -0.200679   -0.288187
      2          6           0       -4.841888    0.621488   -0.023993
      3          6           0       -5.531053    1.076665   -1.310717
      4          1           0       -2.880384    0.396146   -0.889193
      5          1           0       -3.843041   -1.078433   -0.894635
      6          1           0       -4.576831    1.496696    0.582943
      7          1           0       -5.538555    0.022706    0.576616
      8          1           0       -5.823571    0.213402   -1.917191
      9          1           0       -4.856383    1.695767   -1.910829
     10          1           0       -6.430705    1.662744   -1.098593
     11          6           0       -2.879886   -0.662991    0.988435
     12          6           0       -1.618051   -1.485157    0.724240
     13          6           0       -0.928886   -1.940335    2.010965
     14          1           0       -2.616899    0.214763    1.594883
     15          1           0       -3.579556   -1.259816    1.589441
     16          1           0       -0.921384   -0.886376    0.123631
     17          1           0       -1.883108   -2.360366    0.117304
     18          1           0       -1.603557   -2.559437    2.611076
     19          1           0       -0.636369   -1.077071    2.617439
     20          1           0       -0.029234   -2.526414    1.798841
     21          6           0        2.919047   -1.987352   -1.170785
     22          6           0        3.891791   -1.367455   -0.379573
     23          6           0        3.683304   -0.079609    0.122954
     24          6           0        2.485165    0.562117   -0.186792
     25          6           0        1.496833   -0.028969   -0.972353
     26          6           0        1.726775   -1.317312   -1.464133
     27          1           0        3.089338   -2.987975   -1.556986
     28          1           0        4.818674   -1.885426   -0.150140
     29          1           0        4.419462    0.423706    0.737904
     30          1           0        0.582857    0.512564   -1.184032
     31          1           0        0.969555   -1.796278   -2.078344
     32          7           0        2.253093    1.925765    0.339523
     33          8           0        1.189100    2.469855    0.052258
     34          8           0        3.139582    2.424681    1.029346
 ---------------------------------------------------------------------

 SCF Done:  E(RHF) =  -669.534840236     A.U. after   15 cycles
 E2 =    -0.2092952896D+01 EUMP2 =    -0.67162779313239D+03

 The electronic state is 1-A.
 Alpha  occ. eigenvalues --  -20.60826 -20.60819 -15.85879 -11.31238 -11.27806
 Alpha  occ. eigenvalues --  -11.27799 -11.27544 -11.26818 -11.26807 -11.21784
 Alpha  occ. eigenvalues --  -11.21572 -11.21480 -11.21394 -11.21181 -11.21033
 Alpha  occ. eigenvalues --   -1.59901  -1.39455  -1.19417  -1.08806  -1.08501
 Alpha  occ. eigenvalues --   -1.04828  -1.03589  -0.96028  -0.95646  -0.87048
 Alpha  occ. eigenvalues --   -0.86215  -0.82483  -0.79686  -0.78346  -0.77511
 Alpha  occ. eigenvalues --   -0.72098  -0.71225  -0.70534  -0.65185  -0.65048
 Alpha  occ. eigenvalues --   -0.64790  -0.62200  -0.60970  -0.59412  -0.57658
 Alpha  occ. eigenvalues --   -0.55330  -0.55299  -0.53149  -0.52914  -0.52710
 Alpha  occ. eigenvalues --   -0.52454  -0.49964  -0.48856  -0.48853  -0.47989
 Alpha  occ. eigenvalues --   -0.46707  -0.45876  -0.45772  -0.44857  -0.43846
 Alpha  occ. eigenvalues --   -0.37392  -0.36335
 Alpha virt. eigenvalues --    0.04977   0.11172   0.16432   0.20560   0.22886
 Alpha virt. eigenvalues --    0.24316   0.25198   0.26777   0.27695   0.28038
 Alpha virt. eigenvalues --    0.29540   0.30799   0.31431   0.31748   0.32168

 Mulliken charges:
               1
     1  C   -0.298368
     2  C   -0.300085
     3  C   -0.476126
     4  H    0.147637
     5  H    0.146504
     6  H    0.156347
     7  H    0.151689
     8  H    0.153302
     9  H    0.156381
    10  H    0.161245
    11  C   -0.298619
    12  C   -0.303334
    13  C   -0.475836
    14  H    0.156432
    15  H    0.149594
    16  H    0.150039
    17  H    0.146512
    18  H    0.155369
    19  H    0.159633
    20  H    0.158174
    21  C   -0.171596
    22  C   -0.218280
    23  C   -0.171132
    24  C    0.157613
    25  C   -0.171123
    26  C   -0.215395
    27  H    0.225939
    28  H    0.223690
    29  H    0.275768
    30  H    0.275867
    31  H    0.225226
    32  N    0.488141
    33  O   -0.461197
    34  O   -0.460012
 Sum of Mulliken charges =  -0.00000

 Dipole moment (field-independent basis, Debye):
    X=              0.8498    Y=             -4.7388    Z=             -1.7954  Tot=              5.1383
 Quadrupole moment (field-independent basis, Debye-Ang):
   XX=            -86.6938   YY=           -100.4024   ZZ=            -94.3272
   XY=            -11.3695   XZ=             -3.2162   YZ=              0.2695

 Normal termination of Gaussian 16 at Thu May  6 01:13:10 2021.
