 Gaussian 16, Revision A.03,
 Gaussian 16:  EM64L-G16RevA.03 25-Dec-2016

 -------------
 #p 6-31g* mp2
 -------------

 ------------------------------------------------------
 Input file generated by CHIRIPA (05-May-2021 14:57:26)
 ------------------------------------------------------
 Symbolic Z-matrix:
 Charge =  0 Multiplicity = 1

                         Standard orientation:
 ---------------------------------------------------------------------
 Center     Atomic      Atomic             Coordinates (Angstroms)
 Number     Number       Type             X           Y           Z
 ---------------------------------------------------------------------
      1          6           0        5.173964    2.052902    0.111227
      2          6           0        5.804333    0.809136    0.221686
      3          6           0        5.064569   -0.373046    0.122988
      4          6           0        3.690055   -0.274092   -0.087273
      5          6           0        3.033095    0.950096   -0.201548
      6          6           0        3.792792    2.119296   -0.099666
      7          1           0        5.756373    2.966207    0.189134
      8          1           0        6.876824    0.754540    0.385481
      9          1           0        5.527072   -1.349171    0.204776
     10          1           0        1.962441    0.972548   -0.364688
     11          1           0        3.300565    3.083833   -0.185840
     12          7           0        2.896349   -1.518743   -0.193446
     13          8           0        1.686702   -1.404571   -0.378804
     14          8           0        3.498917   -2.584905   -0.089295
     15          6           0       -3.289179   -2.393325    0.212578
     16          6           0       -2.286235   -1.446078    0.443545
     17          6           0       -2.569435   -0.079146    0.367101
     18          6           0       -3.872269    0.307003    0.055968
     19          6           0       -4.893146   -0.612609   -0.179435
     20          6           0       -4.587146   -1.974306   -0.097628
     21          1           0       -3.060326   -3.453157    0.274043
     22          1           0       -1.277325   -1.768595    0.684646
     23          1           0       -1.812065    0.675494    0.541246
     24          1           0       -5.889485   -0.260574   -0.417762
     25          1           0       -5.368045   -2.707718   -0.277490
     26          7           0       -4.184150    1.751341   -0.027797
     27          8           0       -5.339878    2.065760   -0.303606
     28          8           0       -3.266968    2.541645    0.183942
 ---------------------------------------------------------------------

 SCF Done:  E(RHF) =  -868.340286441     A.U. after   16 cycles
 E2 =    -0.2598202926D+01 EUMP2 =    -0.87093848936728D+03

 The electronic state is 1-A.
 Alpha  occ. eigenvalues --  -20.61522 -20.61468 -20.60402 -20.60387 -15.86531
 Alpha  occ. eigenvalues --  -15.85438 -11.31617 -11.30578 -11.28151 -11.28145
 Alpha  occ. eigenvalues --  -11.27823 -11.27118 -11.27102 -11.27069 -11.27054
 Alpha  occ. eigenvalues --  -11.26720 -11.26110 -11.25859  -1.60560  -1.59474
 Alpha  occ. eigenvalues --   -1.40124  -1.39035  -1.19758  -1.18695  -1.09202
 Alpha  occ. eigenvalues --   -1.08125  -1.05116  -1.04043  -0.96086  -0.95011
 Alpha  occ. eigenvalues --   -0.86527  -0.85448  -0.82930  -0.81838  -0.78010
 Alpha  occ. eigenvalues --   -0.76924  -0.72768  -0.71862  -0.71666  -0.70861
 Alpha  occ. eigenvalues --   -0.70791  -0.69801  -0.65414  -0.65109  -0.64334
 Alpha  occ. eigenvalues --   -0.63998  -0.62467  -0.61383  -0.55621  -0.54539
 Alpha  occ. eigenvalues --   -0.53462  -0.53200  -0.52407  -0.52099  -0.49530
 Alpha  occ. eigenvalues --   -0.49483  -0.48434  -0.48392  -0.45588  -0.44492
 Alpha  occ. eigenvalues --   -0.37718  -0.36706  -0.36658  -0.35639
 Alpha virt. eigenvalues --    0.04488   0.05568   0.10950   0.12012   0.16031
 Alpha virt. eigenvalues --    0.17142   0.20891   0.22246   0.26401   0.27420
 Alpha virt. eigenvalues --    0.28699   0.29077   0.30914   0.31800   0.32101

 Mulliken charges:
               1
     1  C   -0.169960
     2  C   -0.218488
     3  C   -0.170701
     4  C    0.157831
     5  C   -0.170688
     6  C   -0.218482
     7  H    0.228019
     8  H    0.224859
     9  H    0.275720
    10  H    0.273720
    11  H    0.228090
    12  N    0.491183
    13  O   -0.471709
    14  O   -0.457390
    15  C   -0.172026
    16  C   -0.221242
    17  C   -0.172844
    18  C    0.158390
    19  C   -0.173083
    20  C   -0.218399
    21  H    0.227376
    22  H    0.244450
    23  H    0.269750
    24  H    0.272824
    25  H    0.221224
    26  N    0.488441
    27  O   -0.461785
    28  O   -0.465076
 Sum of Mulliken charges =  -0.00000

 Dipole moment (field-independent basis, Debye):
    X=              4.3177    Y=             -0.7789    Z=              0.6877  Tot=              4.4410
 Quadrupole moment (field-independent basis, Debye-Ang):
   XX=            -84.9555   YY=           -109.3328   ZZ=           -106.2634
   XY=             35.1015   XZ=              1.9541   YZ=             -0.8936

 Normal termination of Gaussian 16 at Fri May  7 01:59:03 2021.
