 Gaussian 16, Revision A.03,
 Gaussian 16:  EM64L-G16RevA.03 25-Dec-2016

 -------------
 #p 6-31g* mp2
 -------------

 ------------------------------------------------------
 Input file generated by CHIRIPA (05-May-2021 14:53:15)
 ------------------------------------------------------
 Symbolic Z-matrix:
 Charge =  0 Multiplicity = 1

                         Standard orientation:
 ---------------------------------------------------------------------
 Center     Atomic      Atomic             Coordinates (Angstroms)
 Number     Number       Type             X           Y           Z
 ---------------------------------------------------------------------
      1          6           0       -2.139707    1.540386   -0.512152
      2          6           0       -0.735057    2.068003   -0.217933
      3          6           0       -0.423723    3.367092   -0.961730
      4          1           0       -2.244961    1.379531   -1.593814
      5          1           0       -2.876981    2.307267   -0.236986
      6          1           0       -0.000723    1.299822   -0.492282
      7          1           0       -0.633071    2.227439    0.863175
      8          1           0       -1.133822    4.151567   -0.680734
      9          1           0       -0.497881    3.218680   -2.043893
     10          1           0        0.585321    3.726483   -0.736943
     11          6           0       -2.465772    0.242207    0.224150
     12          6           0       -3.870422   -0.285410   -0.070068
     13          6           0       -4.181756   -1.584499    0.673729
     14          1           0       -1.728498   -0.524674   -0.051015
     15          1           0       -2.360518    0.403062    1.305812
     16          1           0       -3.972408   -0.444846   -1.151176
     17          1           0       -4.604756    0.482771    0.204281
     18          1           0       -4.107597   -1.436086    1.755891
     19          1           0       -3.471657   -2.368974    0.392733
     20          1           0       -5.190800   -1.943889    0.448942
     21          6           0        2.626701    1.473321    1.099159
     22          6           0        1.907377    0.573117    1.892082
     23          6           0        1.443917   -0.632008    1.355959
     24          6           0        1.718998   -0.906079    0.017114
     25          6           0        2.433004   -0.029577   -0.798501
     26          6           0        2.886760    1.169637   -0.241238
     27          1           0        2.982960    2.407194    1.523843
     28          1           0        1.703935    0.806325    2.933365
     29          1           0        0.884682   -1.346911    1.947219
     30          1           0        2.620235   -0.289823   -1.833215
     31          1           0        3.445149    1.866861   -0.859401
     32          7           0        1.233489   -2.178761   -0.561646
     33          8           0        1.488982   -2.396771   -1.743945
     34          8           0        0.606648   -2.934180    0.177981
 ---------------------------------------------------------------------

 SCF Done:  E(RHF) =  -669.533447528     A.U. after   15 cycles
 E2 =    -0.2097082319D+01 EUMP2 =    -0.67163052984707D+03

 The electronic state is 1-A.
 Alpha  occ. eigenvalues --  -20.60937 -20.60921 -15.85969 -11.31300 -11.27859
 Alpha  occ. eigenvalues --  -11.27853 -11.27597 -11.26882 -11.26863 -11.21408
 Alpha  occ. eigenvalues --  -11.21304 -11.21249 -11.21238 -11.21171 -11.20625
 Alpha  occ. eigenvalues --   -1.59999  -1.39552  -1.19511  -1.08890  -1.08262
 Alpha  occ. eigenvalues --   -1.04887  -1.03360  -0.95839  -0.95720  -0.86853
 Alpha  occ. eigenvalues --   -0.86276  -0.82550  -0.79454  -0.78102  -0.77603
 Alpha  occ. eigenvalues --   -0.72185  -0.71327  -0.70583  -0.65136  -0.64919
 Alpha  occ. eigenvalues --   -0.64876  -0.62224  -0.60801  -0.59312  -0.57487
 Alpha  occ. eigenvalues --   -0.55377  -0.55133  -0.53409  -0.52968  -0.52464
 Alpha  occ. eigenvalues --   -0.52229  -0.49753  -0.48947  -0.48944  -0.47636
 Alpha  occ. eigenvalues --   -0.46441  -0.45612  -0.45452  -0.44884  -0.43621
 Alpha  occ. eigenvalues --   -0.37434  -0.36434
 Alpha virt. eigenvalues --    0.04908   0.11048   0.16369   0.21081   0.23058
 Alpha virt. eigenvalues --    0.24362   0.26570   0.26769   0.27687   0.27910
 Alpha virt. eigenvalues --    0.28499   0.30932   0.31544   0.31616   0.32228

 Mulliken charges:
               1
     1  C   -0.297994
     2  C   -0.302680
     3  C   -0.474390
     4  H    0.150391
     5  H    0.147152
     6  H    0.162026
     7  H    0.145341
     8  H    0.154554
     9  H    0.155247
    10  H    0.150210
    11  C   -0.299394
    12  C   -0.299147
    13  C   -0.478017
    14  H    0.152468
    15  H    0.143832
    16  H    0.153821
    17  H    0.149433
    18  H    0.151376
    19  H    0.165688
    20  H    0.159221
    21  C   -0.168313
    22  C   -0.214674
    23  C   -0.169053
    24  C    0.159537
    25  C   -0.178138
    26  C   -0.214098
    27  H    0.226246
    28  H    0.223941
    29  H    0.276501
    30  H    0.275996
    31  H    0.224511
    32  N    0.488176
    33  O   -0.459768
    34  O   -0.460004
 Sum of Mulliken charges =  -0.00000

 Dipole moment (field-independent basis, Debye):
    X=              1.8569    Y=              4.3000    Z=              2.0541  Tot=              5.1145
 Quadrupole moment (field-independent basis, Debye-Ang):
   XX=            -88.7790   YY=           -104.2913   ZZ=            -90.5283
   XY=              6.6454   XZ=              1.6298   YZ=             -2.0157

 Normal termination of Gaussian 16 at Thu May  6 05:54:39 2021.
