 Gaussian 16, Revision A.03,
 Gaussian 16:  EM64L-G16RevA.03 25-Dec-2016

 -------------
 #p 6-31g* mp2
 -------------

 ------------------------------------------------------
 Input file generated by CHIRIPA (05-May-2021 14:51:13)
 ------------------------------------------------------
 Symbolic Z-matrix:
 Charge =  0 Multiplicity = 1

                         Standard orientation:
 ---------------------------------------------------------------------
 Center     Atomic      Atomic             Coordinates (Angstroms)
 Number     Number       Type             X           Y           Z
 ---------------------------------------------------------------------
      1          6           0       -2.110508   -0.452155   -0.441518
      2          6           0       -2.413528   -1.664989   -1.321972
      3          6           0       -1.170427   -2.503209   -1.621774
      4          1           0       -1.355541    0.173347   -0.937217
      5          1           0       -1.662227   -0.795062    0.501272
      6          1           0       -2.862378   -1.319990   -2.262252
      7          1           0       -3.168002   -2.287577   -0.824208
      8          1           0       -0.723760   -2.875301   -0.694069
      9          1           0       -0.416399   -1.902217   -2.140284
     10          1           0       -1.409860   -3.365005   -2.252519
     11          6           0       -3.343290    0.395681   -0.133053
     12          6           0       -3.040270    1.608514    0.747401
     13          6           0       -4.283371    2.446734    1.047203
     14          1           0       -3.791572    0.738587   -1.075843
     15          1           0       -4.098257   -0.229821    0.362646
     16          1           0       -2.285796    2.231103    0.249637
     17          1           0       -2.591421    1.263516    1.687681
     18          1           0       -5.037399    1.845743    1.565713
     19          1           0       -4.730038    2.818827    0.119498
     20          1           0       -4.043938    3.308531    1.677948
     21          6           0        2.766245   -0.514497    0.823311
     22          6           0        1.643504   -1.547699    0.723650
     23          6           0        1.735829   -2.626967    1.802747
     24          1           0        3.735170   -1.027003    0.749375
     25          1           0        2.735951   -0.045003    1.816313
     26          1           0        1.675047   -2.014120   -0.269362
     27          1           0        0.677136   -1.032651    0.797639
     28          1           0        1.681765   -2.179695    2.800558
     29          1           0        2.685345   -3.166741    1.727494
     30          1           0        0.923632   -3.355058    1.712871
     31          6           0        2.687553    0.570971   -0.248740
     32          6           0        3.810295    1.604173   -0.149079
     33          6           0        3.717969    2.683441   -1.228177
     34          1           0        2.717848    0.101478   -1.241742
     35          1           0        1.718629    1.083479   -0.174803
     36          1           0        4.776663    1.089125   -0.223069
     37          1           0        3.778752    2.070595    0.843933
     38          1           0        2.768453    3.223216   -1.152924
     39          1           0        3.772033    2.236171   -2.225988
     40          1           0        4.530166    3.411533   -1.138300
 ---------------------------------------------------------------------

 SCF Done:  E(RHF) =  -470.732068304     A.U. after   11 cycles
 E2 =    -0.1584544845D+01 EUMP2 =    -0.47231661314886D+03

 The electronic state is 1-A.
 Alpha  occ. eigenvalues --  -11.21645 -11.21597 -11.21581 -11.21421 -11.21419
 Alpha  occ. eigenvalues --  -11.21360 -11.21358 -11.21283 -11.21101 -11.21067
 Alpha  occ. eigenvalues --  -11.21050 -11.20990  -1.08472  -1.08359  -1.03582
 Alpha  occ. eigenvalues --   -1.03446  -0.96005  -0.95932  -0.87008  -0.86961
 Alpha  occ. eigenvalues --   -0.79785  -0.79433  -0.78447  -0.77982  -0.65116
 Alpha  occ. eigenvalues --   -0.64987  -0.60976  -0.60873  -0.59495  -0.59201
 Alpha  occ. eigenvalues --   -0.57728  -0.57432  -0.55302  -0.55204  -0.52681
 Alpha  occ. eigenvalues --   -0.52648  -0.52434  -0.52371  -0.49955  -0.49853
 Alpha  occ. eigenvalues --   -0.48265  -0.47634  -0.46719  -0.46568  -0.46170
 Alpha  occ. eigenvalues --   -0.45741  -0.45597  -0.45108  -0.43797  -0.43729
 Alpha virt. eigenvalues --    0.21381   0.23013   0.23336   0.24564   0.25250
 Alpha virt. eigenvalues --    0.25625   0.26512   0.27474   0.28729   0.29813
 Alpha virt. eigenvalues --    0.30719   0.30856   0.31530   0.31829   0.32316

 Mulliken charges:
               1
     1  C   -0.303280
     2  C   -0.299654
     3  C   -0.478987
     4  H    0.151116
     5  H    0.152657
     6  H    0.151745
     7  H    0.151529
     8  H    0.161363
     9  H    0.155542
    10  H    0.159089
    11  C   -0.297327
    12  C   -0.299731
    13  C   -0.475663
    14  H    0.149683
    15  H    0.149669
    16  H    0.151510
    17  H    0.151389
    18  H    0.155335
    19  H    0.155382
    20  H    0.160260
    21  C   -0.297574
    22  C   -0.309081
    23  C   -0.477708
    24  H    0.149036
    25  H    0.148749
    26  H    0.155457
    27  H    0.160872
    28  H    0.154789
    29  H    0.155469
    30  H    0.159454
    31  C   -0.299236
    32  C   -0.299526
    33  C   -0.475666
    34  H    0.148895
    35  H    0.150350
    36  H    0.151996
    37  H    0.151977
    38  H    0.154871
    39  H    0.154999
    40  H    0.160252
 Sum of Mulliken charges =  -0.00000

 Dipole moment (field-independent basis, Debye):
    X=             -0.0270    Y=             -0.0041    Z=             -0.0131  Tot=              0.0303
 Quadrupole moment (field-independent basis, Debye-Ang):
   XX=            -85.1752   YY=            -85.4411   ZZ=            -84.3802
   XY=              0.2622   XZ=             -0.2816   YZ=              0.3021

 Normal termination of Gaussian 16 at Wed May  5 18:22:12 2021.
