 Gaussian 16, Revision A.03,
 Gaussian 16:  EM64L-G16RevA.03 25-Dec-2016

 -------------
 #p 6-31g* mp2
 -------------

 ------------------------------------------------------
 Input file generated by CHIRIPA (05-May-2021 14:55:23)
 ------------------------------------------------------
 Symbolic Z-matrix:
 Charge =  0 Multiplicity = 1

                         Standard orientation:
 ---------------------------------------------------------------------
 Center     Atomic      Atomic             Coordinates (Angstroms)
 Number     Number       Type             X           Y           Z
 ---------------------------------------------------------------------
      1          6           0        1.460594   -2.238126   -0.727579
      2          6           0        2.824393   -2.340490   -0.434155
      3          6           0        3.559478   -1.208078   -0.071055
      4          6           0        2.895890    0.016401   -0.011111
      5          6           0        1.538256    0.150689   -0.297619
      6          6           0        0.823003   -0.995055   -0.658496
      7          1           0        0.897266   -3.122989   -1.008780
      8          1           0        3.322176   -3.304578   -0.486983
      9          1           0        4.616301   -1.258823    0.161255
     10          1           0        1.069660    1.125407   -0.236298
     11          1           0       -0.236034   -0.912571   -0.885833
     12          7           0        3.663593    1.222291    0.372110
     13          8           0        3.055654    2.289520    0.417611
     14          8           0        4.858723    1.077406    0.619722
     15          6           0       -3.865019    0.919496   -0.005706
     16          6           0       -2.846674    2.034762   -0.244750
     17          6           0       -3.502629    3.401357   -0.444587
     18          1           0       -4.556923    0.874603   -0.857878
     19          1           0       -4.471146    1.168800    0.876253
     20          1           0       -2.241730    1.782764   -1.125179
     21          1           0       -2.156995    2.076879    0.608003
     22          1           0       -4.091354    3.678534    0.435854
     23          1           0       -4.176570    3.382748   -1.307175
     24          1           0       -2.756451    4.183932   -0.613867
     25          6           0       -3.224549   -0.452694    0.195838
     26          6           0       -4.242894   -1.567959    0.434881
     27          6           0       -3.586941   -2.934555    0.634718
     28          1           0       -2.618423   -0.701998   -0.686122
     29          1           0       -2.532645   -0.407801    1.048010
     30          1           0       -4.932573   -1.610077   -0.417871
     31          1           0       -4.847839   -1.315962    1.315310
     32          1           0       -2.912999   -2.915945    1.497306
     33          1           0       -2.998214   -3.211731   -0.245722
     34          1           0       -4.333117   -3.717131    0.803999
 ---------------------------------------------------------------------

 SCF Done:  E(RHF) =  -669.535712291     A.U. after   15 cycles
 E2 =    -0.2091660442D+01 EUMP2 =    -0.67162737273256D+03

 The electronic state is 1-A.
 Alpha  occ. eigenvalues --  -20.60695 -20.60690 -15.85746 -11.31086 -11.27657
 Alpha  occ. eigenvalues --  -11.27627 -11.27383 -11.26674 -11.26592 -11.22421
 Alpha  occ. eigenvalues --  -11.22354 -11.22279 -11.22085 -11.21925 -11.21480
 Alpha  occ. eigenvalues --   -1.59771  -1.39325  -1.19253  -1.09227  -1.08653
 Alpha  occ. eigenvalues --   -1.04647  -1.04239  -0.96690  -0.95494  -0.87702
 Alpha  occ. eigenvalues --   -0.86051  -0.82327  -0.80323  -0.79088  -0.77364
 Alpha  occ. eigenvalues --   -0.71965  -0.71094  -0.70364  -0.65866  -0.64902
 Alpha  occ. eigenvalues --   -0.64645  -0.62005  -0.61623  -0.60058  -0.58304
 Alpha  occ. eigenvalues --   -0.55983  -0.55156  -0.53345  -0.53169  -0.52984
 Alpha  occ. eigenvalues --   -0.52695  -0.50624  -0.48738  -0.48722  -0.48612
 Alpha  occ. eigenvalues --   -0.47356  -0.46564  -0.46502  -0.44736  -0.44516
 Alpha  occ. eigenvalues --   -0.37237  -0.36249
 Alpha virt. eigenvalues --    0.05148   0.11386   0.16633   0.19523   0.22756
 Alpha virt. eigenvalues --    0.23217   0.24651   0.25779   0.27025   0.28262
 Alpha virt. eigenvalues --    0.29524   0.30758   0.30881   0.31341   0.31789

 Mulliken charges:
               1
     1  C   -0.173289
     2  C   -0.218543
     3  C   -0.171432
     4  C    0.158953
     5  C   -0.175544
     6  C   -0.224554
     7  H    0.225637
     8  H    0.222928
     9  H    0.275116
    10  H    0.276956
    11  H    0.234454
    12  N    0.488055
    13  O   -0.460706
    14  O   -0.460864
    15  C   -0.297678
    16  C   -0.303013
    17  C   -0.476215
    18  H    0.151771
    19  H    0.153752
    20  H    0.146839
    21  H    0.154191
    22  H    0.157592
    23  H    0.156048
    24  H    0.165069
    25  C   -0.304922
    26  C   -0.299208
    27  C   -0.476336
    28  H    0.141845
    29  H    0.152925
    30  H    0.154177
    31  H    0.156325
    32  H    0.157212
    33  H    0.148204
    34  H    0.164256
 Sum of Mulliken charges =  -0.00000

 Dipole moment (field-independent basis, Debye):
    X=             -2.9697    Y=             -4.1640    Z=             -1.2607  Tot=              5.2676
 Quadrupole moment (field-independent basis, Debye-Ang):
   XX=           -106.4679   YY=            -94.4668   ZZ=            -94.5454
   XY=            -14.9429   XZ=             -3.7418   YZ=              0.0096

 Normal termination of Gaussian 16 at Wed May  5 17:35:21 2021.
