 Gaussian 16, Revision A.03,
 Gaussian 16:  EM64L-G16RevA.03 25-Dec-2016

 -------------
 #p 6-31g* mp2
 -------------

 ------------------------------------------------------
 Input file generated by CHIRIPA (05-May-2021 14:55:18)
 ------------------------------------------------------
 Symbolic Z-matrix:
 Charge =  0 Multiplicity = 1

                         Standard orientation:
 ---------------------------------------------------------------------
 Center     Atomic      Atomic             Coordinates (Angstroms)
 Number     Number       Type             X           Y           Z
 ---------------------------------------------------------------------
      1          6           0       -5.030051   -0.572744   -0.880405
      2          6           0       -4.815396    0.505714   -0.015898
      3          6           0       -3.570279    0.691304    0.592205
      4          6           0       -2.557589   -0.224838    0.312147
      5          6           0       -2.740473   -1.309212   -0.544577
      6          6           0       -3.993732   -1.475173   -1.141526
      7          1           0       -6.000450   -0.709291   -1.348462
      8          1           0       -5.618382    1.208128    0.188732
      9          1           0       -3.376762    1.517492    1.265542
     10          1           0       -1.920700   -1.992817   -0.729171
     11          1           0       -4.157571   -2.313631   -1.812488
     12          7           0       -1.235130   -0.038751    0.950013
     13          8           0       -0.359257   -0.859885    0.686910
     14          8           0       -1.099500    0.924713    1.700998
     15          6           0        3.103448    0.888343   -0.007002
     16          6           0        2.811626    1.962003   -1.055848
     17          6           0        1.911631    3.078118   -0.524723
     18          1           0        2.154542    0.460321    0.344167
     19          1           0        3.576749    1.357928    0.866423
     20          1           0        2.340273    1.490319   -1.927603
     21          1           0        3.761346    2.387385   -1.404700
     22          1           0        2.378870    3.575132    0.331587
     23          1           0        0.949724    2.672968   -0.194286
     24          1           0        1.715867    3.834812   -1.290850
     25          6           0        4.001949   -0.234246   -0.522965
     26          6           0        4.293772   -1.307906    0.525880
     27          6           0        5.193766   -2.424021   -0.005244
     28          1           0        3.528648   -0.703831   -1.396391
     29          1           0        4.950856    0.193776   -0.874135
     30          1           0        3.344052   -1.733287    0.874733
     31          1           0        4.765124   -0.836221    1.397635
     32          1           0        6.155674   -2.018870   -0.335681
     33          1           0        4.726528   -2.921035   -0.861555
     34          1           0        5.389531   -3.180714    0.760883
 ---------------------------------------------------------------------

 SCF Done:  E(RHF) =  -669.536985147     A.U. after   15 cycles
 E2 =    -0.2091829757D+01 EUMP2 =    -0.67162881490353D+03

 The electronic state is 1-A.
 Alpha  occ. eigenvalues --  -20.61168 -20.61162 -15.86162 -11.31410 -11.27961
 Alpha  occ. eigenvalues --  -11.27955 -11.27684 -11.26948 -11.26938 -11.20418
 Alpha  occ. eigenvalues --  -11.20399 -11.20170 -11.20152 -11.19906 -11.19735
 Alpha  occ. eigenvalues --   -1.60202  -1.39760  -1.19567  -1.08987  -1.07133
 Alpha  occ. eigenvalues --   -1.04951  -1.02369  -0.95839  -0.94813  -0.86355
 Alpha  occ. eigenvalues --   -0.85836  -0.82676  -0.78425  -0.77740  -0.76908
 Alpha  occ. eigenvalues --   -0.72373  -0.71506  -0.70675  -0.65223  -0.64953
 Alpha  occ. eigenvalues --   -0.63755  -0.62298  -0.59775  -0.58195  -0.56424
 Alpha  occ. eigenvalues --   -0.55459  -0.54101  -0.53287  -0.53041  -0.51575
 Alpha  occ. eigenvalues --   -0.51240  -0.49207  -0.49140  -0.48730  -0.46744
 Alpha  occ. eigenvalues --   -0.45444  -0.45184  -0.44491  -0.44216  -0.42574
 Alpha  occ. eigenvalues --   -0.37540  -0.36547
 Alpha virt. eigenvalues --    0.04747   0.11110   0.16249   0.21242   0.24127
 Alpha virt. eigenvalues --    0.25361   0.27178   0.27806   0.28183   0.28842
 Alpha virt. eigenvalues --    0.29201   0.30846   0.32280   0.32506   0.32828

 Mulliken charges:
               1
     1  C   -0.170246
     2  C   -0.218597
     3  C   -0.170470
     4  C    0.158326
     5  C   -0.170560
     6  C   -0.218574
     7  H    0.226485
     8  H    0.224338
     9  H    0.276343
    10  H    0.275839
    11  H    0.224252
    12  N    0.488349
    13  O   -0.459597
    14  O   -0.457694
    15  C   -0.311725
    16  C   -0.298046
    17  C   -0.476772
    18  H    0.180533
    19  H    0.145344
    20  H    0.146402
    21  H    0.146086
    22  H    0.154491
    23  H    0.162497
    24  H    0.151999
    25  C   -0.295648
    26  C   -0.301447
    27  C   -0.474812
    28  H    0.145677
    29  H    0.143368
    30  H    0.162607
    31  H    0.149685
    32  H    0.151924
    33  H    0.152317
    34  H    0.157329
 Sum of Mulliken charges =  -0.00000

 Dipole moment (field-independent basis, Debye):
    X=             -5.1164    Y=             -0.7560    Z=             -2.0641  Tot=              5.5686
 Quadrupole moment (field-independent basis, Debye-Ang):
   XX=            -71.8626   YY=            -92.5498   ZZ=            -95.8910
   XY=              2.0535   XZ=              4.4671   YZ=              2.8218

 Normal termination of Gaussian 16 at Thu May  6 02:51:08 2021.
