 Gaussian 16, Revision A.03,
 Gaussian 16:  EM64L-G16RevA.03 25-Dec-2016

 -------------
 #p 6-31g* mp2
 -------------

 ------------------------------------------------------
 Input file generated by CHIRIPA (05-May-2021 14:53:13)
 ------------------------------------------------------
 Symbolic Z-matrix:
 Charge =  0 Multiplicity = 1

                         Standard orientation:
 ---------------------------------------------------------------------
 Center     Atomic      Atomic             Coordinates (Angstroms)
 Number     Number       Type             X           Y           Z
 ---------------------------------------------------------------------
      1          6           0       -3.394213   -0.597295   -0.278398
      2          6           0       -4.523841   -1.595578   -0.534050
      3          6           0       -4.018066   -3.027177   -0.714355
      4          1           0       -2.684348   -0.634132   -1.116060
      5          1           0       -2.837241   -0.905903    0.617112
      6          1           0       -5.079373   -1.284413   -1.428016
      7          1           0       -5.231201   -1.556223    0.304228
      8          1           0       -3.481417   -3.361589    0.179389
      9          1           0       -3.328726   -3.088234   -1.562697
     10          1           0       -4.842100   -3.724207   -0.895952
     11          6           0       -3.884021    0.838176   -0.096085
     12          6           0       -2.754393    1.836459    0.159567
     13          6           0       -3.260168    3.268058    0.339872
     14          1           0       -4.440993    1.146784   -0.991595
     15          1           0       -4.593887    0.875013    0.741577
     16          1           0       -2.047033    1.797104   -0.678711
     17          1           0       -2.198861    1.525294    1.053533
     18          1           0       -3.949508    3.329115    1.188214
     19          1           0       -3.796817    3.602470   -0.553872
     20          1           0       -2.436134    3.965088    0.521469
     21          6           0        5.044965    0.127367   -1.065532
     22          6           0        3.935778    0.867304   -1.488287
     23          6           0        2.710798    0.752535   -0.824360
     24          6           0        2.630188   -0.115504    0.263436
     25          6           0        3.717258   -0.866103    0.708601
     26          6           0        4.932363   -0.735453    0.029632
     27          1           0        5.992723    0.222691   -1.587129
     28          1           0        4.020306    1.538157   -2.338496
     29          1           0        1.836186    1.313562   -1.130497
     30          1           0        3.602223   -1.526665    1.559389
     31          1           0        5.792103   -1.311334    0.360165
     32          7           0        1.338584   -0.245411    0.974268
     33          8           0        1.293548   -1.017058    1.929866
     34          8           0        0.395717    0.426877    0.562361
 ---------------------------------------------------------------------

 SCF Done:  E(RHF) =  -669.535728752     A.U. after   15 cycles
 E2 =    -0.2091547749D+01 EUMP2 =    -0.67162727650152D+03

 The electronic state is 1-A.
 Alpha  occ. eigenvalues --  -20.60939 -20.60926 -15.85962 -11.31294 -11.27860
 Alpha  occ. eigenvalues --  -11.27856 -11.27597 -11.26868 -11.26858 -11.20614
 Alpha  occ. eigenvalues --  -11.20229 -11.20159 -11.20045 -11.20019 -11.19961
 Alpha  occ. eigenvalues --   -1.59999  -1.39554  -1.19464  -1.08868  -1.07190
 Alpha  occ. eigenvalues --   -1.04862  -1.02380  -0.95709  -0.94880  -0.86262
 Alpha  occ. eigenvalues --   -0.85901  -0.82548  -0.78421  -0.77603  -0.76926
 Alpha  occ. eigenvalues --   -0.72170  -0.71310  -0.70573  -0.65119  -0.64865
 Alpha  occ. eigenvalues --   -0.63836  -0.62209  -0.59790  -0.58241  -0.56464
 Alpha  occ. eigenvalues --   -0.55366  -0.54190  -0.53193  -0.52954  -0.51613
 Alpha  occ. eigenvalues --   -0.51292  -0.49007  -0.48954  -0.48814  -0.46719
 Alpha  occ. eigenvalues --   -0.45439  -0.44972  -0.44481  -0.44339  -0.42617
 Alpha  occ. eigenvalues --   -0.37443  -0.36464
 Alpha virt. eigenvalues --    0.04928   0.11191   0.16420   0.21271   0.23996
 Alpha virt. eigenvalues --    0.25286   0.27069   0.27656   0.28152   0.28890
 Alpha virt. eigenvalues --    0.29152   0.30870   0.32026   0.32600   0.32882

 Mulliken charges:
               1
     1  C   -0.297028
     2  C   -0.299003
     3  C   -0.474820
     4  H    0.147313
     5  H    0.162204
     6  H    0.147418
     7  H    0.149799
     8  H    0.157589
     9  H    0.152397
    10  H    0.156069
    11  C   -0.299050
    12  C   -0.298146
    13  C   -0.475655
    14  H    0.142228
    15  H    0.145670
    16  H    0.149684
    17  H    0.172590
    18  H    0.151951
    19  H    0.148699
    20  H    0.156334
    21  C   -0.170611
    22  C   -0.218542
    23  C   -0.170843
    24  C    0.157626
    25  C   -0.170543
    26  C   -0.218580
    27  H    0.225993
    28  H    0.223822
    29  H    0.275642
    30  H    0.275825
    31  H    0.223807
    32  N    0.493026
    33  O   -0.460040
    34  O   -0.462826
 Sum of Mulliken charges =  -0.00000

 Dipole moment (field-independent basis, Debye):
    X=              4.9102    Y=              0.3874    Z=             -2.3573  Tot=              5.4605
 Quadrupole moment (field-independent basis, Debye-Ang):
   XX=            -72.0020   YY=            -95.2060   ZZ=            -93.6558
   XY=             -0.4046   XZ=             -4.6531   YZ=             -2.4673

 Normal termination of Gaussian 16 at Thu May  6 04:11:32 2021.
