 Gaussian 16, Revision A.03,
 Gaussian 16:  EM64L-G16RevA.03 25-Dec-2016

 -------------
 #p 6-31g* mp2
 -------------

 ------------------------------------------------------
 Input file generated by CHIRIPA (05-May-2021 14:57:22)
 ------------------------------------------------------
 Symbolic Z-matrix:
 Charge =  0 Multiplicity = 1

                         Standard orientation:
 ---------------------------------------------------------------------
 Center     Atomic      Atomic             Coordinates (Angstroms)
 Number     Number       Type             X           Y           Z
 ---------------------------------------------------------------------
      1          6           0       -2.519832    1.901958    0.788623
      2          6           0       -3.593088    2.267233   -0.030655
      3          6           0       -4.510799    1.307711   -0.468457
      4          6           0       -4.324120   -0.013852   -0.066073
      5          6           0       -3.264966   -0.409012    0.749605
      6          6           0       -2.359479    0.567354    1.175456
      7          1           0       -1.811679    2.653881    1.124077
      8          1           0       -3.720109    3.302952   -0.332644
      9          1           0       -5.350641    1.562939   -1.103234
     10          1           0       -3.164576   -1.449397    1.034102
     11          1           0       -1.526913    0.280789    1.811664
     12          7           0       -5.289189   -1.038571   -0.523228
     13          8           0       -5.102578   -2.196175   -0.154762
     14          8           0       -6.213947   -0.664740   -1.241357
     15          6           0        1.777988   -0.507178    0.728145
     16          6           0        2.671082   -1.583552    0.710096
     17          6           0        3.996013   -1.400068    0.303352
     18          6           0        4.395838   -0.120990   -0.080563
     19          6           0        3.529787    0.971343   -0.073422
     20          6           0        2.209430    0.764592    0.337017
     21          1           0        0.750527   -0.658750    1.045548
     22          1           0        2.338796   -2.572332    1.013316
     23          1           0        4.708380   -2.215786    0.279812
     24          1           0        3.890293    1.945333   -0.381315
     25          1           0        1.518039    1.602359    0.350032
     26          7           0        5.796062    0.085572   -0.513120
     27          8           0        6.123600    1.222299   -0.846599
     28          8           0        6.539506   -0.893163   -0.510490
 ---------------------------------------------------------------------

 SCF Done:  E(RHF) =  -868.336538537     A.U. after   16 cycles
 E2 =    -0.2599869919D+01 EUMP2 =    -0.87093640845636D+03

 The electronic state is 1-A.
 Alpha  occ. eigenvalues --  -20.61456 -20.61446 -20.61170 -20.61162 -15.86516
 Alpha  occ. eigenvalues --  -15.86226 -11.32051 -11.31703 -11.28717 -11.28615
 Alpha  occ. eigenvalues --  -11.28488 -11.28307 -11.28258 -11.28140 -11.27841
 Alpha  occ. eigenvalues --  -11.27647 -11.27414 -11.27318  -1.60526  -1.60241
 Alpha  occ. eigenvalues --   -1.40075  -1.39791  -1.20261  -1.19898  -1.09632
 Alpha  occ. eigenvalues --   -1.09291  -1.05702  -1.05317  -0.96430  -0.96104
 Alpha  occ. eigenvalues --   -0.87099  -0.86721  -0.83272  -0.82927  -0.78279
 Alpha  occ. eigenvalues --   -0.77940  -0.72731  -0.72444  -0.71851  -0.71565
 Alpha  occ. eigenvalues --   -0.71383  -0.71077  -0.65924  -0.65757  -0.65556
 Alpha  occ. eigenvalues --   -0.65323  -0.63049  -0.62661  -0.56253  -0.55877
 Alpha  occ. eigenvalues --   -0.53998  -0.53782  -0.53637  -0.53424  -0.49504
 Alpha  occ. eigenvalues --   -0.49474  -0.49212  -0.49190  -0.45442  -0.45172
 Alpha  occ. eigenvalues --   -0.38258  -0.37907  -0.37296  -0.36910
 Alpha virt. eigenvalues --    0.04268   0.04595   0.10242   0.10737   0.15621
 Alpha virt. eigenvalues --    0.16038   0.18027   0.22121   0.24473   0.25551
 Alpha virt. eigenvalues --    0.27858   0.28770   0.29892   0.31454   0.32534

 Mulliken charges:
               1
     1  C   -0.171992
     2  C   -0.217856
     3  C   -0.168794
     4  C    0.159417
     5  C   -0.169915
     6  C   -0.223412
     7  H    0.224520
     8  H    0.226820
     9  H    0.278966
    10  H    0.275625
    11  H    0.217574
    12  N    0.488097
    13  O   -0.459435
    14  O   -0.457459
    15  C   -0.171696
    16  C   -0.218480
    17  C   -0.169784
    18  C    0.159111
    19  C   -0.170133
    20  C   -0.217963
    21  H    0.220300
    22  H    0.225823
    23  H    0.277794
    24  H    0.276308
    25  H    0.216803
    26  N    0.487976
    27  O   -0.459682
    28  O   -0.458533
 Sum of Mulliken charges =  -0.00000

 Dipole moment (field-independent basis, Debye):
    X=             -1.6474    Y=              2.8712    Z=              2.9990  Tot=              4.4667
 Quadrupole moment (field-independent basis, Debye-Ang):
   XX=           -175.3295   YY=            -97.5719   ZZ=           -105.5107
   XY=            -21.8850   XZ=              1.7437   YZ=             -3.3830

 Normal termination of Gaussian 16 at Fri May  7 04:52:10 2021.
