 Gaussian 16, Revision A.03,
 Gaussian 16:  EM64L-G16RevA.03 25-Dec-2016

 -------------
 #p 6-31g* mp2
 -------------

 ------------------------------------------------------
 Input file generated by CHIRIPA (05-May-2021 14:51:13)
 ------------------------------------------------------
 Symbolic Z-matrix:
 Charge =  0 Multiplicity = 1

                         Standard orientation:
 ---------------------------------------------------------------------
 Center     Atomic      Atomic             Coordinates (Angstroms)
 Number     Number       Type             X           Y           Z
 ---------------------------------------------------------------------
      1          6           0       -3.904962   -0.551644   -0.442312
      2          6           0       -4.222497   -1.697845    0.518614
      3          6           0       -4.674559   -2.967128   -0.204127
      4          1           0       -4.794544   -0.332915   -1.048734
      5          1           0       -3.121685   -0.875145   -1.141754
      6          1           0       -5.003964   -1.371809    1.216917
      7          1           0       -3.332115   -1.913743    1.122951
      8          1           0       -3.895481   -3.319278   -0.887960
      9          1           0       -5.576829   -2.774266   -0.793461
     10          1           0       -4.896327   -3.773656    0.501701
     11          6           0       -3.451650    0.724126    0.265251
     12          6           0       -3.134115    1.870327   -0.695675
     13          6           0       -2.682052    3.139611    0.027065
     14          1           0       -4.234927    1.047627    0.964693
     15          1           0       -2.562068    0.505398    0.871673
     16          1           0       -4.024497    2.086225   -1.300013
     17          1           0       -2.352648    1.544292   -1.393978
     18          1           0       -1.779783    2.946748    0.616400
     19          1           0       -3.461131    3.491760    0.710899
     20          1           0       -2.460285    3.946138   -0.678762
     21          6           0        2.965932   -0.049374   -0.184591
     22          6           0        1.932827    0.352717    0.868500
     23          6           0        0.512419    0.422126    0.306879
     24          1           0        2.933018    0.669624   -1.014593
     25          1           0        2.689040   -1.025786   -0.605717
     26          1           0        2.212343    1.327442    1.288499
     27          1           0        1.968338   -0.367213    1.696180
     28          1           0        0.209154   -0.550025   -0.095056
     29          1           0        0.454545    1.154258   -0.505053
     30          1           0       -0.209938    0.711301    1.076578
     31          6           0        4.390680   -0.123107    0.361653
     32          6           0        5.423784   -0.525200   -0.691439
     33          6           0        6.844192   -0.594609   -0.129818
     34          1           0        4.667572    0.853304    0.782777
     35          1           0        4.423595   -0.842106    1.191654
     36          1           0        5.388274    0.194731   -1.519119
     37          1           0        5.144269   -1.499924   -1.111439
     38          1           0        6.902067   -1.326741    0.682115
     39          1           0        7.147458    0.377544    0.272117
     40          1           0        7.566550   -0.883782   -0.899517
 ---------------------------------------------------------------------

 SCF Done:  E(RHF) =  -470.732847855     A.U. after   11 cycles
 E2 =    -0.1583406339D+01 EUMP2 =    -0.47231625419392D+03

 The electronic state is 1-A.
 Alpha  occ. eigenvalues --  -11.21682 -11.21636 -11.21548 -11.21489 -11.21460
 Alpha  occ. eigenvalues --  -11.21398 -11.21306 -11.21220 -11.21185 -11.21098
 Alpha  occ. eigenvalues --  -11.21036 -11.20978  -1.08492  -1.08337  -1.03606
 Alpha  occ. eigenvalues --   -1.03444  -0.96054  -0.95902  -0.87083  -0.86915
 Alpha  occ. eigenvalues --   -0.79672  -0.79512  -0.78300  -0.78156  -0.65119
 Alpha  occ. eigenvalues --   -0.64990  -0.61051  -0.60837  -0.59446  -0.59226
 Alpha  occ. eigenvalues --   -0.57663  -0.57517  -0.55441  -0.55090  -0.52780
 Alpha  occ. eigenvalues --   -0.52602  -0.52480  -0.52325  -0.50004  -0.49821
 Alpha  occ. eigenvalues --   -0.47999  -0.47832  -0.46688  -0.46532  -0.45854
 Alpha  occ. eigenvalues --   -0.45765  -0.45702  -0.45604  -0.43759  -0.43696
 Alpha virt. eigenvalues --    0.20819   0.22973   0.23747   0.24755   0.26133
 Alpha virt. eigenvalues --    0.26521   0.26665   0.27737   0.27958   0.29327
 Alpha virt. eigenvalues --    0.30413   0.30607   0.31837   0.31890   0.32185

 Mulliken charges:
               1
     1  C   -0.298195
     2  C   -0.299707
     3  C   -0.475600
     4  H    0.149232
     5  H    0.149721
     6  H    0.151744
     7  H    0.151762
     8  H    0.154898
     9  H    0.155141
    10  H    0.159971
    11  C   -0.303277
    12  C   -0.299856
    13  C   -0.478308
    14  H    0.148480
    15  H    0.155865
    16  H    0.151299
    17  H    0.153684
    18  H    0.157532
    19  H    0.154565
    20  H    0.159441
    21  C   -0.298856
    22  C   -0.300042
    23  C   -0.480823
    24  H    0.149841
    25  H    0.149528
    26  H    0.152406
    27  H    0.152189
    28  H    0.155115
    29  H    0.157367
    30  H    0.164287
    31  C   -0.298322
    32  C   -0.299670
    33  C   -0.475738
    34  H    0.149709
    35  H    0.149750
    36  H    0.152029
    37  H    0.151960
    38  H    0.155231
    39  H    0.155267
    40  H    0.160379
 Sum of Mulliken charges =  -0.00000

 Dipole moment (field-independent basis, Debye):
    X=              0.0657    Y=             -0.0056    Z=              0.0047  Tot=              0.0661
 Quadrupole moment (field-independent basis, Debye-Ang):
   XX=            -85.2882   YY=            -84.8072   ZZ=            -84.9479
   XY=             -0.3493   XZ=             -0.4935   YZ=             -0.5690

 Normal termination of Gaussian 16 at Thu May  6 00:46:23 2021.
