 Gaussian 16, Revision A.03,
 Gaussian 16:  EM64L-G16RevA.03 25-Dec-2016

 -------------
 #p 6-31g* mp2
 -------------

 ------------------------------------------------------
 Input file generated by CHIRIPA (05-May-2021 14:51:10)
 ------------------------------------------------------
 Symbolic Z-matrix:
 Charge =  0 Multiplicity = 1

                         Standard orientation:
 ---------------------------------------------------------------------
 Center     Atomic      Atomic             Coordinates (Angstroms)
 Number     Number       Type             X           Y           Z
 ---------------------------------------------------------------------
      1          6           0        3.668509   -0.517018    0.217099
      2          6           0        3.857371   -1.764810   -0.646226
      3          6           0        4.336778   -2.973346    0.158388
      4          1           0        4.618190   -0.275339    0.713731
      5          1           0        2.945843   -0.737584    1.014909
      6          1           0        4.578423   -1.541537   -1.443001
      7          1           0        2.907180   -2.003434   -1.141010
      8          1           0        3.615915   -3.224114    0.943291
      9          1           0        5.296654   -2.759592    0.639584
     10          1           0        4.465185   -3.854234   -0.478328
     11          6           0        3.189506    0.699524   -0.573033
     12          6           0        3.000643    1.947316    0.290293
     13          6           0        2.521236    3.155852   -0.514321
     14          1           0        3.912171    0.920091   -1.370842
     15          1           0        2.239825    0.457846   -1.069664
     16          1           0        3.950834    2.185941    0.785077
     17          1           0        2.279591    1.724044    1.087068
     18          1           0        1.561361    2.942099   -0.995517
     19          1           0        3.242099    3.406621   -1.299224
     20          1           0        2.392830    4.036741    0.122395
     21          6           0       -3.995982   -0.553777   -0.041220
     22          6           0       -5.343414    0.157485   -0.169753
     23          6           0       -6.467734   -0.780996   -0.609017
     24          1           0       -3.737131   -1.012270   -1.005443
     25          1           0       -4.091028   -1.376695    0.680699
     26          1           0       -5.245495    0.979684   -0.890181
     27          1           0       -5.598997    0.614500    0.794835
     28          1           0       -6.594338   -1.594650    0.112467
     29          1           0       -6.238828   -1.227391   -1.582122
     30          1           0       -7.421965   -0.251854   -0.694529
     31          6           0       -2.862032    0.371270    0.397154
     32          6           0       -1.514600   -0.339991    0.525686
     33          6           0       -0.390280    0.598489    0.964950
     34          1           0       -2.766987    1.194188   -0.324766
     35          1           0       -3.120884    0.829763    1.361376
     36          1           0       -1.259016   -0.797007   -0.438903
     37          1           0       -1.612519   -1.162191    1.246113
     38          1           0       -0.619187    1.044884    1.938056
     39          1           0       -0.263676    1.412144    0.243466
     40          1           0        0.563951    0.069347    1.050462
 ---------------------------------------------------------------------

 SCF Done:  E(RHF) =  -470.731927560     A.U. after   11 cycles
 E2 =    -0.1584407590D+01 EUMP2 =    -0.47231633514915D+03

 The electronic state is 1-A.
 Alpha  occ. eigenvalues --  -11.21664 -11.21628 -11.21595 -11.21448 -11.21432
 Alpha  occ. eigenvalues --  -11.21387 -11.21380 -11.21285 -11.21122 -11.21091
 Alpha  occ. eigenvalues --  -11.21067 -11.21008  -1.08492  -1.08378  -1.03612
 Alpha  occ. eigenvalues --   -1.03451  -0.96041  -0.95943  -0.87092  -0.86934
 Alpha  occ. eigenvalues --   -0.79690  -0.79518  -0.78295  -0.78195  -0.65214
 Alpha  occ. eigenvalues --   -0.65006  -0.61141  -0.60770  -0.59399  -0.59267
 Alpha  occ. eigenvalues --   -0.57671  -0.57543  -0.55362  -0.55191  -0.52788
 Alpha  occ. eigenvalues --   -0.52592  -0.52455  -0.52333  -0.49970  -0.49877
 Alpha  occ. eigenvalues --   -0.47993  -0.47824  -0.46682  -0.46576  -0.45842
 Alpha  occ. eigenvalues --   -0.45765  -0.45710  -0.45672  -0.43765  -0.43700
 Alpha virt. eigenvalues --    0.20680   0.23078   0.23486   0.24884   0.25916
 Alpha virt. eigenvalues --    0.26345   0.26924   0.27339   0.27965   0.29522
 Alpha virt. eigenvalues --    0.30676   0.30905   0.31753   0.32056   0.32410

 Mulliken charges:
               1
     1  C   -0.302012
     2  C   -0.299456
     3  C   -0.475712
     4  H    0.150225
     5  H    0.150752
     6  H    0.152111
     7  H    0.151794
     8  H    0.155071
     9  H    0.155223
    10  H    0.160253
    11  C   -0.300659
    12  C   -0.304108
    13  C   -0.476947
    14  H    0.149878
    15  H    0.151410
    16  H    0.151180
    17  H    0.160501
    18  H    0.155005
    19  H    0.154777
    20  H    0.160088
    21  C   -0.298298
    22  C   -0.299659
    23  C   -0.475729
    24  H    0.149666
    25  H    0.149601
    26  H    0.152011
    27  H    0.152008
    28  H    0.155215
    29  H    0.155219
    30  H    0.160368
    31  C   -0.298759
    32  C   -0.300367
    33  C   -0.484515
    34  H    0.149575
    35  H    0.149873
    36  H    0.151618
    37  H    0.151987
    38  H    0.155351
    39  H    0.158916
    40  H    0.166546
 Sum of Mulliken charges =  -0.00000

 Dipole moment (field-independent basis, Debye):
    X=             -0.0266    Y=              0.0002    Z=              0.0196  Tot=              0.0331
 Quadrupole moment (field-independent basis, Debye-Ang):
   XX=            -84.8547   YY=            -85.9831   ZZ=            -84.0712
   XY=              0.0776   XZ=             -0.7855   YZ=              0.0361

 Normal termination of Gaussian 16 at Wed May  5 21:26:27 2021.
