 Gaussian 16, Revision A.03,
 Gaussian 16:  EM64L-G16RevA.03 25-Dec-2016

 -------------
 #p 6-31g* mp2
 -------------

 ------------------------------------------------------
 Input file generated by CHIRIPA (05-May-2021 14:51:09)
 ------------------------------------------------------
 Symbolic Z-matrix:
 Charge =  0 Multiplicity = 1

                         Standard orientation:
 ---------------------------------------------------------------------
 Center     Atomic      Atomic             Coordinates (Angstroms)
 Number     Number       Type             X           Y           Z
 ---------------------------------------------------------------------
      1          6           0        2.246198    0.453970    0.504324
      2          6           0        2.410264    1.972737    0.437902
      3          6           0        2.322323    2.637486    1.812008
      4          1           0        1.278668    0.215960    0.967123
      5          1           0        3.019416    0.037156    1.164472
      6          1           0        1.637823    2.386421   -0.223020
      7          1           0        3.377432    2.207160   -0.024967
      8          1           0        3.102339    2.252517    2.476821
      9          1           0        1.352845    2.432796    2.277643
     10          1           0        2.442246    3.723059    1.741232
     11          6           0        2.331740   -0.224919   -0.861516
     12          6           0        2.167674   -1.743686   -0.795094
     13          6           0        2.255615   -2.408435   -2.169200
     14          1           0        1.558522    0.191895   -1.521664
     15          1           0        3.299270    0.013091   -1.324315
     16          1           0        1.200506   -1.978109   -0.332225
     17          1           0        2.940115   -2.157370   -0.134172
     18          1           0        3.225093   -2.203745   -2.634835
     19          1           0        1.475599   -2.023466   -2.834013
     20          1           0        2.135692   -3.494009   -2.098424
     21          6           0       -2.361030   -0.012177   -0.574905
     22          6           0       -2.761712    1.412925   -0.957689
     23          6           0       -2.901913    1.601984   -2.468449
     24          1           0       -1.411668   -0.264058   -1.067057
     25          1           0       -3.111199   -0.713869   -0.965125
     26          1           0       -2.011735    2.111835   -0.565674
     27          1           0       -3.710133    1.661510   -0.464415
     28          1           0       -3.664308    0.927789   -2.871951
     29          1           0       -1.956261    1.380672   -2.973785
     30          1           0       -3.188893    2.627825   -2.719749
     31          6           0       -2.216908   -0.216873    0.932097
     32          6           0       -1.816226   -1.641975    1.314881
     33          6           0       -1.676025   -1.831035    2.825641
     34          1           0       -1.466740    0.484818    1.322317
     35          1           0       -3.166270    0.035007    1.424249
     36          1           0       -0.867805   -1.890561    0.821607
     37          1           0       -2.566202   -2.340885    0.922865
     38          1           0       -2.621678   -1.609723    3.330977
     39          1           0       -0.913630   -1.156840    3.229143
     40          1           0       -1.389045   -2.856876    3.076941
 ---------------------------------------------------------------------

 SCF Done:  E(RHF) =  -470.733258546     A.U. after   11 cycles
 E2 =    -0.1584705481D+01 EUMP2 =    -0.47231796402693D+03

 The electronic state is 1-A.
 Alpha  occ. eigenvalues --  -11.21670 -11.21668 -11.21648 -11.21644 -11.21481
 Alpha  occ. eigenvalues --  -11.21478 -11.21422 -11.21419 -11.21132 -11.21127
 Alpha  occ. eigenvalues --  -11.21109 -11.21103  -1.08546  -1.08458  -1.03599
 Alpha  occ. eigenvalues --   -1.03578  -0.96045  -0.96026  -0.87053  -0.87051
 Alpha  occ. eigenvalues --   -0.79720  -0.79592  -0.78337  -0.78298  -0.65515
 Alpha  occ. eigenvalues --   -0.64774  -0.61071  -0.60920  -0.59443  -0.59365
 Alpha  occ. eigenvalues --   -0.57656  -0.57635  -0.55394  -0.55252  -0.52737
 Alpha  occ. eigenvalues --   -0.52715  -0.52480  -0.52440  -0.50000  -0.49987
 Alpha  occ. eigenvalues --   -0.48091  -0.47925  -0.46973  -0.46474  -0.46128
 Alpha  occ. eigenvalues --   -0.45813  -0.45691  -0.45424  -0.43849  -0.43839
 Alpha virt. eigenvalues --    0.18111   0.22334   0.22792   0.24352   0.25555
 Alpha virt. eigenvalues --    0.27140   0.27332   0.27884   0.28011   0.29808
 Alpha virt. eigenvalues --    0.31030   0.31285   0.31765   0.31777   0.32242

 Mulliken charges:
               1
     1  C   -0.303458
     2  C   -0.299793
     3  C   -0.475979
     4  H    0.153807
     5  H    0.150047
     6  H    0.151743
     7  H    0.152469
     8  H    0.155546
     9  H    0.154745
    10  H    0.160694
    11  C   -0.298721
    12  C   -0.309497
    13  C   -0.475143
    14  H    0.149619
    15  H    0.150294
    16  H    0.160351
    17  H    0.152390
    18  H    0.155374
    19  H    0.155120
    20  H    0.160580
    21  C   -0.300961
    22  C   -0.299914
    23  C   -0.475683
    24  H    0.151129
    25  H    0.150106
    26  H    0.151818
    27  H    0.152427
    28  H    0.155477
    29  H    0.154739
    30  H    0.160626
    31  C   -0.299912
    32  C   -0.309782
    33  C   -0.475505
    34  H    0.150361
    35  H    0.150413
    36  H    0.160617
    37  H    0.152444
    38  H    0.155361
    39  H    0.155453
    40  H    0.160599
 Sum of Mulliken charges =  -0.00000

 Dipole moment (field-independent basis, Debye):
    X=              0.0012    Y=             -0.0119    Z=              0.0038  Tot=              0.0126
 Quadrupole moment (field-independent basis, Debye-Ang):
   XX=            -82.6428   YY=            -85.1326   ZZ=            -86.7423
   XY=              0.2270   XZ=             -0.0388   YZ=             -0.2978

 Normal termination of Gaussian 16 at Thu May  6 02:07:47 2021.
