 Gaussian 16, Revision A.03,
 Gaussian 16:  EM64L-G16RevA.03 25-Dec-2016

 -------------
 #p 6-31g* mp2
 -------------

 ------------------------------------------------------
 Input file generated by CHIRIPA (05-May-2021 14:53:11)
 ------------------------------------------------------
 Symbolic Z-matrix:
 Charge =  0 Multiplicity = 1

                         Standard orientation:
 ---------------------------------------------------------------------
 Center     Atomic      Atomic             Coordinates (Angstroms)
 Number     Number       Type             X           Y           Z
 ---------------------------------------------------------------------
      1          6           0       -3.320700   -0.545772   -0.249304
      2          6           0       -2.776096   -1.972640   -0.175550
      3          6           0       -1.346856   -2.088052   -0.706350
      4          1           0       -3.286127   -0.200320   -1.291616
      5          1           0       -2.661047    0.121070    0.323038
      6          1           0       -3.437343   -2.636823   -0.746713
      7          1           0       -2.812147   -2.314804    0.866679
      8          1           0       -0.669444   -1.448738   -0.131033
      9          1           0       -1.298192   -1.772586   -1.753592
     10          1           0       -0.977362   -3.116391   -0.644283
     11          6           0       -4.748518   -0.414300    0.277741
     12          6           0       -5.293122    1.012567    0.203986
     13          6           0       -6.722362    1.127980    0.734787
     14          1           0       -5.408171   -1.081142   -0.294601
     15          1           0       -4.783091   -0.759752    1.320052
     16          1           0       -5.257071    1.354732   -0.838242
     17          1           0       -4.631875    1.676751    0.775150
     18          1           0       -6.771026    0.812514    1.782028
     19          1           0       -7.399774    0.488665    0.159469
     20          1           0       -7.091856    2.156319    0.672720
     21          6           0        4.678684   -1.528594    0.630377
     22          6           0        3.425487   -1.794979    0.069078
     23          6           0        2.571373   -0.748084   -0.290158
     24          6           0        3.004448    0.559063   -0.073125
     25          6           0        4.247109    0.856712    0.484091
     26          6           0        5.084780   -0.205930    0.835730
     27          1           0        5.335792   -2.347962    0.906489
     28          1           0        3.107474   -2.821191   -0.091552
     29          1           0        1.595958   -0.925863   -0.726479
     30          1           0        4.536372    1.890075    0.632095
     31          1           0        6.057480    0.003931    1.271455
     32          7           0        2.108940    1.675699   -0.449410
     33          8           0        2.513905    2.818531   -0.247973
     34          8           0        1.019034    1.386943   -0.938655
 ---------------------------------------------------------------------

 SCF Done:  E(RHF) =  -669.535694752     A.U. after   15 cycles
 E2 =    -0.2091212510D+01 EUMP2 =    -0.67162690726176D+03

 The electronic state is 1-A.
 Alpha  occ. eigenvalues --  -20.60766 -20.60760 -15.85812 -11.31152 -11.27733
 Alpha  occ. eigenvalues --  -11.27672 -11.27474 -11.26748 -11.26725 -11.21479
 Alpha  occ. eigenvalues --  -11.21168 -11.21155 -11.21018 -11.20919 -11.20718
 Alpha  occ. eigenvalues --   -1.59839  -1.39392  -1.19329  -1.08732  -1.08097
 Alpha  occ. eigenvalues --   -1.04728  -1.03286  -0.95759  -0.95562  -0.86793
 Alpha  occ. eigenvalues --   -0.86124  -0.82397  -0.79359  -0.77872  -0.77437
 Alpha  occ. eigenvalues --   -0.72031  -0.71161  -0.70444  -0.64981  -0.64780
 Alpha  occ. eigenvalues --   -0.64688  -0.62100  -0.60675  -0.59123  -0.57340
 Alpha  occ. eigenvalues --   -0.55273  -0.55008  -0.53064  -0.52885  -0.52477
 Alpha  occ. eigenvalues --   -0.52111  -0.49687  -0.48790  -0.48788  -0.47649
 Alpha  occ. eigenvalues --   -0.46358  -0.45424  -0.45328  -0.44792  -0.43521
 Alpha  occ. eigenvalues --   -0.37318  -0.36328
 Alpha virt. eigenvalues --    0.05055   0.11277   0.16574   0.21084   0.23210
 Alpha virt. eigenvalues --    0.24432   0.25994   0.27068   0.27709   0.28098
 Alpha virt. eigenvalues --    0.29398   0.30601   0.31548   0.31805   0.32083

 Mulliken charges:
               1
     1  C   -0.299300
     2  C   -0.299124
     3  C   -0.482481
     4  H    0.153347
     5  H    0.157398
     6  H    0.151273
     7  H    0.150389
     8  H    0.157316
     9  H    0.160569
    10  H    0.152831
    11  C   -0.298609
    12  C   -0.299808
    13  C   -0.475635
    14  H    0.147566
    15  H    0.147760
    16  H    0.153502
    17  H    0.154874
    18  H    0.153985
    19  H    0.153882
    20  H    0.160411
    21  C   -0.170608
    22  C   -0.221212
    23  C   -0.178425
    24  C    0.157028
    25  C   -0.170470
    26  C   -0.218863
    27  H    0.225433
    28  H    0.223948
    29  H    0.288562
    30  H    0.275370
    31  H    0.223263
    32  N    0.487481
    33  O   -0.460370
    34  O   -0.461283
 Sum of Mulliken charges =  -0.00000

 Dipole moment (field-independent basis, Debye):
    X=              3.1331    Y=             -3.8327    Z=              1.2943  Tot=              5.1167
 Quadrupole moment (field-independent basis, Debye-Ang):
   XX=            -74.9290   YY=            -97.7508   ZZ=            -94.4818
   XY=             -7.5894   XZ=              5.9647   YZ=              2.2959

 Normal termination of Gaussian 16 at Thu May  6 00:54:29 2021.
