 Gaussian 16, Revision A.03,
 Gaussian 16:  EM64L-G16RevA.03 25-Dec-2016

 -------------
 #p 6-31g* mp2
 -------------

 ------------------------------------------------------
 Input file generated by CHIRIPA (05-May-2021 14:55:25)
 ------------------------------------------------------
 Symbolic Z-matrix:
 Charge =  0 Multiplicity = 1

                         Standard orientation:
 ---------------------------------------------------------------------
 Center     Atomic      Atomic             Coordinates (Angstroms)
 Number     Number       Type             X           Y           Z
 ---------------------------------------------------------------------
      1          6           0       -2.942697   -2.692667    0.130235
      2          6           0       -4.075683   -1.872585    0.148375
      3          6           0       -3.948133   -0.483340    0.057390
      4          6           0       -2.666652    0.054551   -0.051102
      5          6           0       -1.518655   -0.735992   -0.071907
      6          6           0       -1.670042   -2.122758    0.020346
      7          1           0       -3.051039   -3.770903    0.201407
      8          1           0       -5.065292   -2.312416    0.233624
      9          1           0       -4.808333    0.174944    0.069022
     10          1           0       -0.545323   -0.268384   -0.157856
     11          1           0       -0.788377   -2.757191    0.006006
     12          7           0       -2.519003    1.523970   -0.148094
     13          8           0       -1.378906    1.973232   -0.242858
     14          8           0       -3.546168    2.198615   -0.127516
     15          6           0        3.077185    0.786545    0.432255
     16          6           0        2.918506    2.086744   -0.356597
     17          6           0        2.181792    3.170207    0.431536
     18          1           0        2.083982    0.418516    0.723882
     19          1           0        3.619335    0.995515    1.364886
     20          1           0        2.378030    1.875136   -1.288114
     21          1           0        3.912192    2.451619   -0.646545
     22          1           0        2.721383    3.410159    1.353417
     23          1           0        1.178503    2.830401    0.708203
     24          1           0        2.079452    4.091013   -0.151133
     25          6           0        3.811741   -0.306219   -0.342358
     26          6           0        3.970420   -1.606418    0.446494
     27          6           0        4.707134   -2.689882   -0.341639
     28          1           0        3.269591   -0.515189   -1.274989
     29          1           0        4.804944    0.061809   -0.633985
     30          1           0        2.976733   -1.971294    0.736442
     31          1           0        4.510896   -1.394810    1.378011
     32          1           0        5.710423   -2.350075   -0.618306
     33          1           0        4.167543   -2.929834   -1.263520
     34          1           0        4.809474   -3.610687    0.241030
 ---------------------------------------------------------------------

 SCF Done:  E(RHF) =  -669.535990690     A.U. after   15 cycles
 E2 =    -0.2091670899D+01 EUMP2 =    -0.67162766158885D+03

 The electronic state is 1-A.
 Alpha  occ. eigenvalues --  -20.60928 -20.60911 -15.85964 -11.31286 -11.27854
 Alpha  occ. eigenvalues --  -11.27845 -11.27585 -11.26858 -11.26848 -11.21866
 Alpha  occ. eigenvalues --  -11.21451 -11.21344 -11.21261 -11.21039 -11.20006
 Alpha  occ. eigenvalues --   -1.59987  -1.39544  -1.19455  -1.08857  -1.08350
 Alpha  occ. eigenvalues --   -1.04852  -1.03303  -0.95748  -0.95685  -0.86751
 Alpha  occ. eigenvalues --   -0.86252  -0.82536  -0.79428  -0.78108  -0.77583
 Alpha  occ. eigenvalues --   -0.72193  -0.71302  -0.70566  -0.65118  -0.65017
 Alpha  occ. eigenvalues --   -0.64836  -0.62201  -0.60687  -0.59190  -0.57331
 Alpha  occ. eigenvalues --   -0.55357  -0.55002  -0.53182  -0.52947  -0.52403
 Alpha  occ. eigenvalues --   -0.52151  -0.49694  -0.48945  -0.48921  -0.47706
 Alpha  occ. eigenvalues --   -0.46491  -0.45638  -0.45548  -0.44918  -0.43587
 Alpha  occ. eigenvalues --   -0.37432  -0.36453
 Alpha virt. eigenvalues --    0.04923   0.11194   0.16412   0.19296   0.22835
 Alpha virt. eigenvalues --    0.23988   0.25548   0.27179   0.27801   0.28364
 Alpha virt. eigenvalues --    0.29691   0.30391   0.31660   0.31863   0.32202

 Mulliken charges:
               1
     1  C   -0.170439
     2  C   -0.218703
     3  C   -0.170292
     4  C    0.157461
     5  C   -0.174980
     6  C   -0.219925
     7  H    0.226091
     8  H    0.223838
     9  H    0.275859
    10  H    0.280780
    11  H    0.224164
    12  N    0.492977
    13  O   -0.465770
    14  O   -0.458779
    15  C   -0.299859
    16  C   -0.298772
    17  C   -0.482838
    18  H    0.144190
    19  H    0.150536
    20  H    0.153759
    21  H    0.148833
    22  H    0.147847
    23  H    0.178403
    24  H    0.161367
    25  C   -0.298521
    26  C   -0.297466
    27  C   -0.475589
    28  H    0.146787
    29  H    0.151903
    30  H    0.142804
    31  H    0.154213
    32  H    0.157609
    33  H    0.153280
    34  H    0.159234
 Sum of Mulliken charges =  -0.00000

 Dipole moment (field-independent basis, Debye):
    X=             -0.6634    Y=             -5.0691    Z=              0.3324  Tot=              5.1232
 Quadrupole moment (field-independent basis, Debye-Ang):
   XX=            -86.4462   YY=            -96.4122   ZZ=            -95.8327
   XY=             14.1294   XZ=             -0.6989   YZ=              0.0064

 Normal termination of Gaussian 16 at Thu May  6 07:57:46 2021.
