 Gaussian 16, Revision A.03,
 Gaussian 16:  EM64L-G16RevA.03 25-Dec-2016

 -------------
 #p 6-31g* mp2
 -------------

 ------------------------------------------------------
 Input file generated by CHIRIPA (05-May-2021 14:51:10)
 ------------------------------------------------------
 Symbolic Z-matrix:
 Charge =  0 Multiplicity = 1

                         Standard orientation:
 ---------------------------------------------------------------------
 Center     Atomic      Atomic             Coordinates (Angstroms)
 Number     Number       Type             X           Y           Z
 ---------------------------------------------------------------------
      1          6           0       -4.596423   -0.276755   -0.366293
      2          6           0       -5.713670   -0.995922    0.390373
      3          6           0       -6.805325   -1.531909   -0.536341
      4          1           0       -5.028090    0.551796   -0.944318
      5          1           0       -4.152574   -0.968649   -1.095453
      6          1           0       -6.154357   -0.303297    1.118852
      7          1           0       -5.279267   -1.822738    0.966815
      8          1           0       -6.385628   -2.243415   -1.254822
      9          1           0       -7.265690   -0.715340   -1.101921
     10          1           0       -7.593896   -2.042277    0.025389
     11          6           0       -3.497651    0.264722    0.546522
     12          6           0       -2.380405    0.983890   -0.210144
     13          6           0       -1.288749    1.519877    0.716571
     14          1           0       -3.941501    0.956616    1.275683
     15          1           0       -3.065984   -0.563828    1.124547
     16          1           0       -2.814807    1.810706   -0.786586
     17          1           0       -1.939717    0.291264   -0.938623
     18          1           0       -0.828385    0.703308    1.282150
     19          1           0       -1.708447    2.231383    1.435051
     20          1           0       -0.500179    2.030245    0.154840
     21          6           0        4.080815   -0.754401   -0.026415
     22          6           0        5.509886   -1.297154    0.007627
     23          6           0        5.561007   -2.819939    0.135325
     24          1           0        3.555547   -1.065015    0.887126
     25          1           0        3.542128   -1.212117   -0.867668
     26          1           0        6.046133   -0.837506    0.847734
     27          1           0        6.031872   -0.985050   -0.906012
     28          1           0        5.050332   -3.294668   -0.708739
     29          1           0        5.064673   -3.146286    1.054972
     30          1           0        6.592005   -3.186543    0.157784
     31          6           0        4.013259    0.766432   -0.153814
     32          6           0        2.584188    1.309186   -0.187857
     33          6           0        2.533067    2.831971   -0.315554
     34          1           0        4.551947    1.224150    0.687439
     35          1           0        4.538528    1.077047   -1.067356
     36          1           0        2.062202    0.997082    0.725784
     37          1           0        2.047941    0.849538   -1.027963
     38          1           0        3.029400    3.158318   -1.235202
     39          1           0        3.043743    3.306701    0.528509
     40          1           0        1.502070    3.198576   -0.338014
 ---------------------------------------------------------------------

 SCF Done:  E(RHF) =  -470.732929948     A.U. after   11 cycles
 E2 =    -0.1582832176D+01 EUMP2 =    -0.47231576212353D+03

 The electronic state is 1-A.
 Alpha  occ. eigenvalues --  -11.21597 -11.21595 -11.21582 -11.21552 -11.21393
 Alpha  occ. eigenvalues --  -11.21392 -11.21333 -11.21331 -11.21071 -11.21066
 Alpha  occ. eigenvalues --  -11.21055 -11.21010  -1.08428  -1.08404  -1.03558
 Alpha  occ. eigenvalues --   -1.03476  -0.96032  -0.95907  -0.87018  -0.86954
 Alpha  occ. eigenvalues --   -0.79624  -0.79535  -0.78245  -0.78211  -0.65057
 Alpha  occ. eigenvalues --   -0.65035  -0.60943  -0.60882  -0.59732  -0.59076
 Alpha  occ. eigenvalues --   -0.57791  -0.57330  -0.55272  -0.55231  -0.52911
 Alpha  occ. eigenvalues --   -0.52542  -0.52445  -0.52155  -0.49947  -0.49873
 Alpha  occ. eigenvalues --   -0.47955  -0.47829  -0.46677  -0.46543  -0.45798
 Alpha  occ. eigenvalues --   -0.45746  -0.45712  -0.45656  -0.43828  -0.43691
 Alpha virt. eigenvalues --    0.21768   0.23045   0.23394   0.25087   0.26174
 Alpha virt. eigenvalues --    0.26655   0.26832   0.27318   0.27677   0.29001
 Alpha virt. eigenvalues --    0.30224   0.30877   0.31441   0.31879   0.32247

 Mulliken charges:
               1
     1  C   -0.298203
     2  C   -0.299619
     3  C   -0.475691
     4  H    0.149594
     5  H    0.149484
     6  H    0.151903
     7  H    0.151926
     8  H    0.155164
     9  H    0.155159
    10  H    0.160225
    11  C   -0.298630
    12  C   -0.299200
    13  C   -0.483216
    14  H    0.149456
    15  H    0.149631
    16  H    0.151576
    17  H    0.151938
    18  H    0.155411
    19  H    0.154431
    20  H    0.169211
    21  C   -0.298175
    22  C   -0.299634
    23  C   -0.475692
    24  H    0.149463
    25  H    0.149347
    26  H    0.151962
    27  H    0.151953
    28  H    0.155097
    29  H    0.155111
    30  H    0.160258
    31  C   -0.298447
    32  C   -0.301036
    33  C   -0.480107
    34  H    0.149500
    35  H    0.149442
    36  H    0.155454
    37  H    0.151408
    38  H    0.155203
    39  H    0.155623
    40  H    0.162722
 Sum of Mulliken charges =  -0.00000

 Dipole moment (field-independent basis, Debye):
    X=              0.0071    Y=              0.0048    Z=              0.0068  Tot=              0.0110
 Quadrupole moment (field-independent basis, Debye-Ang):
   XX=            -85.4460   YY=            -85.4002   ZZ=            -84.0381
   XY=             -0.6138   XZ=             -0.4830   YZ=              0.0341

 Normal termination of Gaussian 16 at Wed May  5 15:11:15 2021.
