 Gaussian 16, Revision A.03,
 Gaussian 16:  EM64L-G16RevA.03 25-Dec-2016

 -------------
 #p 6-31g* mp2
 -------------

 ------------------------------------------------------
 Input file generated by CHIRIPA (05-May-2021 14:51:10)
 ------------------------------------------------------
 Symbolic Z-matrix:
 Charge =  0 Multiplicity = 1

                         Standard orientation:
 ---------------------------------------------------------------------
 Center     Atomic      Atomic             Coordinates (Angstroms)
 Number     Number       Type             X           Y           Z
 ---------------------------------------------------------------------
      1          6           0       -3.543117    0.496551   -0.317739
      2          6           0       -4.019065   -0.786100    0.365096
      3          6           0       -5.225630   -1.414601   -0.332745
      4          1           0       -4.370429    1.218901   -0.344385
      5          1           0       -3.288449    0.274276   -1.363269
      6          1           0       -4.271446   -0.561756    1.409409
      7          1           0       -3.190468   -1.505410    0.390291
      8          1           0       -4.982614   -1.666527   -1.370086
      9          1           0       -6.069734   -0.717510   -0.345177
     10          1           0       -5.549250   -2.330290    0.171877
     11          6           0       -2.337562    1.136627    0.368313
     12          6           0       -1.861614    2.419278   -0.314523
     13          6           0       -0.655049    3.047779    0.383318
     14          1           0       -2.592230    1.358902    1.413843
     15          1           0       -1.510250    0.414277    0.394959
     16          1           0       -2.690211    3.138588   -0.339718
     17          1           0       -1.609233    2.194933   -1.358836
     18          1           0        0.189055    2.350688    0.395751
     19          1           0       -0.898065    3.299705    1.420660
     20          1           0       -0.331429    3.963468   -0.121303
     21          6           0        3.288268   -0.168569   -0.231315
     22          6           0        4.764730   -0.121079    0.163387
     23          6           0        5.447038    1.181505   -0.255569
     24          1           0        3.201793   -0.041065   -1.319069
     25          1           0        2.766144    0.683414    0.225748
     26          1           0        5.283637   -0.973675   -0.293158
     27          1           0        4.847713   -0.248904    1.250304
     28          1           0        4.955421    2.041282    0.211012
     29          1           0        5.393822    1.312391   -1.341220
     30          1           0        6.501774    1.194166    0.036377
     31          6           0        2.592411   -1.464609    0.180741
     32          6           0        1.115949   -1.512098   -0.213960
     33          6           0        0.433640   -2.814683    0.204996
     34          1           0        3.114535   -2.316592   -0.276323
     35          1           0        2.678886   -1.592113    1.268496
     36          1           0        1.032966   -1.384275   -1.300878
     37          1           0        0.597042   -0.659503    0.242585
     38          1           0        0.486857   -2.945569    1.290647
     39          1           0        0.925258   -3.674459   -0.261585
     40          1           0       -0.621095   -2.827344   -0.086950
 ---------------------------------------------------------------------

 SCF Done:  E(RHF) =  -470.733308619     A.U. after   11 cycles
 E2 =    -0.1583741297D+01 EUMP2 =    -0.47231704991621D+03

 The electronic state is 1-A.
 Alpha  occ. eigenvalues --  -11.21672 -11.21628 -11.21598 -11.21588 -11.21456
 Alpha  occ. eigenvalues --  -11.21397 -11.21381 -11.21316 -11.21152 -11.21082
 Alpha  occ. eigenvalues --  -11.21080 -11.21066  -1.08489  -1.08412  -1.03582
 Alpha  occ. eigenvalues --   -1.03523  -0.96030  -0.95970  -0.87047  -0.86985
 Alpha  occ. eigenvalues --   -0.79677  -0.79563  -0.78359  -0.78173  -0.65218
 Alpha  occ. eigenvalues --   -0.64964  -0.61020  -0.60883  -0.59399  -0.59341
 Alpha  occ. eigenvalues --   -0.57668  -0.57562  -0.55356  -0.55215  -0.52734
 Alpha  occ. eigenvalues --   -0.52662  -0.52469  -0.52384  -0.50023  -0.49869
 Alpha  occ. eigenvalues --   -0.48065  -0.47846  -0.46860  -0.46566  -0.46052
 Alpha  occ. eigenvalues --   -0.45802  -0.45734  -0.45252  -0.43830  -0.43773
 Alpha virt. eigenvalues --    0.19898   0.22009   0.23536   0.24250   0.25547
 Alpha virt. eigenvalues --    0.26362   0.26909   0.27229   0.28541   0.29344
 Alpha virt. eigenvalues --    0.30024   0.31527   0.31676   0.31920   0.32180

 Mulliken charges:
               1
     1  C   -0.297431
     2  C   -0.302744
     3  C   -0.475625
     4  H    0.149628
     5  H    0.149440
     6  H    0.152047
     7  H    0.154222
     8  H    0.155088
     9  H    0.155244
    10  H    0.160310
    11  C   -0.307711
    12  C   -0.298838
    13  C   -0.479043
    14  H    0.149096
    15  H    0.159038
    16  H    0.151932
    17  H    0.152224
    18  H    0.157016
    19  H    0.154993
    20  H    0.160574
    21  C   -0.300764
    22  C   -0.299670
    23  C   -0.475847
    24  H    0.149778
    25  H    0.151419
    26  H    0.152077
    27  H    0.152144
    28  H    0.155624
    29  H    0.155188
    30  H    0.160343
    31  C   -0.297439
    32  C   -0.308059
    33  C   -0.478369
    34  H    0.149851
    35  H    0.149961
    36  H    0.151809
    37  H    0.158764
    38  H    0.155902
    39  H    0.155873
    40  H    0.161953
 Sum of Mulliken charges =  -0.00000

 Dipole moment (field-independent basis, Debye):
    X=              0.0273    Y=             -0.0147    Z=              0.0010  Tot=              0.0310
 Quadrupole moment (field-independent basis, Debye-Ang):
   XX=            -85.4559   YY=            -85.4162   ZZ=            -83.8205
   XY=             -1.5248   XZ=             -0.7876   YZ=              0.6773

 Normal termination of Gaussian 16 at Thu May  6 02:11:49 2021.
