 Gaussian 16, Revision A.03,
 Gaussian 16:  EM64L-G16RevA.03 25-Dec-2016

 -------------
 #p 6-31g* mp2
 -------------

 ------------------------------------------------------
 Input file generated by CHIRIPA (05-May-2021 14:51:12)
 ------------------------------------------------------
 Symbolic Z-matrix:
 Charge =  0 Multiplicity = 1

                         Standard orientation:
 ---------------------------------------------------------------------
 Center     Atomic      Atomic             Coordinates (Angstroms)
 Number     Number       Type             X           Y           Z
 ---------------------------------------------------------------------
      1          6           0        4.496536   -0.702078    0.026285
      2          6           0        6.025537   -0.705590    0.037608
      3          6           0        6.611773   -2.098181    0.271731
      4          1           0        4.128206   -1.100687    0.981475
      5          1           0        4.141023   -1.386860   -0.756070
      6          1           0        6.378068   -0.019954    0.818787
      7          1           0        6.390269   -0.306748   -0.917646
      8          1           0        6.288424   -2.789266   -0.513410
      9          1           0        6.276154   -2.500842    1.232889
     10          1           0        7.706039   -2.077594    0.276020
     11          6           0        3.895612    0.682964   -0.206695
     12          6           0        2.366611    0.686477   -0.218019
     13          6           0        1.780375    2.079067   -0.452142
     14          1           0        4.251125    1.367747    0.575659
     15          1           0        4.263942    1.081573   -1.161886
     16          1           0        2.001879    0.287634    0.737236
     17          1           0        2.014080    0.000840   -0.999197
     18          1           0        2.115994    2.481729   -1.413300
     19          1           0        2.103724    2.770152    0.333000
     20          1           0        0.686109    2.058481   -0.456431
     21          6           0       -4.704724   -0.394932   -0.311162
     22          6           0       -5.167132   -1.666042    0.401890
     23          6           0       -6.184570   -2.464505   -0.413628
     24          1           0       -5.578455    0.234832   -0.527810
     25          1           0       -4.266483   -0.666048   -1.281644
     26          1           0       -5.603115   -1.392728    1.371340
     27          1           0       -4.292178   -2.292766    0.617036
     28          1           0       -5.756436   -2.765629   -1.375205
     29          1           0       -7.074822   -1.860478   -0.616614
     30          1           0       -6.501554   -3.369039    0.114764
     31          6           0       -3.687424    0.414046    0.491572
     32          6           0       -3.225016    1.685156   -0.221480
     33          6           0       -2.207578    2.483619    0.594040
     34          1           0       -4.125664    0.685161    1.462056
     35          1           0       -2.813693   -0.215719    0.708220
     36          1           0       -4.099970    2.311878   -0.436626
     37          1           0       -2.789033    1.411841   -1.190930
     38          1           0       -1.317326    1.879591    0.797024
     39          1           0       -2.635711    2.784743    1.555615
     40          1           0       -1.890594    3.388153    0.065646
 ---------------------------------------------------------------------

 SCF Done:  E(RHF) =  -470.733101774     A.U. after   11 cycles
 E2 =    -0.1582325156D+01 EUMP2 =    -0.47231542692927D+03

 The electronic state is 1-A.
 Alpha  occ. eigenvalues --  -11.21616 -11.21605 -11.21599 -11.21595 -11.21412
 Alpha  occ. eigenvalues --  -11.21398 -11.21353 -11.21339 -11.21073 -11.21070
 Alpha  occ. eigenvalues --  -11.21067 -11.20980  -1.08440  -1.08420  -1.03555
 Alpha  occ. eigenvalues --   -1.03502  -0.96029  -0.95924  -0.87067  -0.86920
 Alpha  occ. eigenvalues --   -0.79635  -0.79547  -0.78250  -0.78236  -0.65077
 Alpha  occ. eigenvalues --   -0.65050  -0.60998  -0.60904  -0.59407  -0.59283
 Alpha  occ. eigenvalues --   -0.57634  -0.57560  -0.55314  -0.55219  -0.52819
 Alpha  occ. eigenvalues --   -0.52553  -0.52448  -0.52308  -0.49937  -0.49861
 Alpha  occ. eigenvalues --   -0.47954  -0.47852  -0.46631  -0.46607  -0.45791
 Alpha  occ. eigenvalues --   -0.45776  -0.45716  -0.45704  -0.43840  -0.43692
 Alpha virt. eigenvalues --    0.21724   0.23029   0.23539   0.24987   0.26527
 Alpha virt. eigenvalues --    0.26683   0.27251   0.27452   0.27606   0.28869
 Alpha virt. eigenvalues --    0.31057   0.31414   0.31600   0.31901   0.32021

 Mulliken charges:
               1
     1  C   -0.298254
     2  C   -0.299648
     3  C   -0.475698
     4  H    0.149568
     5  H    0.149360
     6  H    0.151973
     7  H    0.151938
     8  H    0.155126
     9  H    0.155163
    10  H    0.160257
    11  C   -0.298128
    12  C   -0.299867
    13  C   -0.482653
    14  H    0.149642
    15  H    0.149713
    16  H    0.151356
    17  H    0.151328
    18  H    0.154554
    19  H    0.155114
    20  H    0.168598
    21  C   -0.298305
    22  C   -0.299685
    23  C   -0.475712
    24  H    0.149679
    25  H    0.149551
    26  H    0.151927
    27  H    0.152006
    28  H    0.155190
    29  H    0.155183
    30  H    0.160272
    31  C   -0.298455
    32  C   -0.300598
    33  C   -0.479748
    34  H    0.149586
    35  H    0.149881
    36  H    0.152277
    37  H    0.152080
    38  H    0.158722
    39  H    0.155581
    40  H    0.161122
 Sum of Mulliken charges =  -0.00000

 Dipole moment (field-independent basis, Debye):
    X=             -0.0250    Y=              0.0128    Z=              0.0064  Tot=              0.0288
 Quadrupole moment (field-independent basis, Debye-Ang):
   XX=            -85.1346   YY=            -85.8294   ZZ=            -83.8089
   XY=             -0.4031   XZ=             -0.7816   YZ=              0.2485

 Normal termination of Gaussian 16 at Wed May  5 16:49:09 2021.
