 Gaussian 16, Revision A.03,
 Gaussian 16:  EM64L-G16RevA.03 25-Dec-2016

 -------------
 #p 6-31g* mp2
 -------------

 ------------------------------------------------------
 Input file generated by CHIRIPA (05-May-2021 14:53:11)
 ------------------------------------------------------
 Symbolic Z-matrix:
 Charge =  0 Multiplicity = 1

                         Standard orientation:
 ---------------------------------------------------------------------
 Center     Atomic      Atomic             Coordinates (Angstroms)
 Number     Number       Type             X           Y           Z
 ---------------------------------------------------------------------
      1          6           0        3.849497   -0.341931   -0.267879
      2          6           0        5.335824   -0.550402    0.024284
      3          6           0        5.716862   -2.027680    0.125538
      4          1           0        3.256154   -0.821777    0.522460
      5          1           0        3.592131   -0.853064   -1.205910
      6          1           0        5.590613   -0.037865    0.960770
      7          1           0        5.925701   -0.069840   -0.766741
      8          1           0        5.490739   -2.548868   -0.810321
      9          1           0        5.153747   -2.516713    0.927005
     10          1           0        6.783722   -2.153675    0.334810
     11          6           0        3.453153    1.129734   -0.371998
     12          6           0        1.966827    1.338204   -0.664162
     13          6           0        1.585788    2.815483   -0.765415
     14          1           0        3.710519    1.640867    0.566032
     15          1           0        4.046496    1.609579   -1.162337
     16          1           0        1.376949    0.857642    0.126864
     17          1           0        1.712038    0.825668   -1.600647
     18          1           0        2.148903    3.304515   -1.566882
     19          1           0        1.811911    3.336671    0.170444
     20          1           0        0.518928    2.941478   -0.974688
     21          6           0       -1.030910   -0.055622    1.977325
     22          6           0       -0.785704   -0.771147    0.800712
     23          6           0       -1.787636   -0.917237   -0.163310
     24          6           0       -3.028711   -0.332109    0.082956
     25          6           0       -3.303738    0.386716    1.245255
     26          6           0       -2.286930    0.520012    2.195457
     27          1           0       -0.246808    0.052895    2.720832
     28          1           0        0.188782   -1.219267    0.628631
     29          1           0       -1.624914   -1.465941   -1.083019
     30          1           0       -4.285220    0.822108    1.388594
     31          1           0       -2.480201    1.076247    3.108306
     32          7           0       -4.097287   -0.479995   -0.930295
     33          8           0       -5.182177    0.045056   -0.689526
     34          8           0       -3.829711   -1.118159   -1.946064
 ---------------------------------------------------------------------

 SCF Done:  E(RHF) =  -669.534619770     A.U. after   15 cycles
 E2 =    -0.2092752991D+01 EUMP2 =    -0.67162737276016D+03

 The electronic state is 1-A.
 Alpha  occ. eigenvalues --  -20.60780 -20.60775 -15.85832 -11.31214 -11.27764
 Alpha  occ. eigenvalues --  -11.27751 -11.27517 -11.26801 -11.26766 -11.22227
 Alpha  occ. eigenvalues --  -11.22157 -11.22132 -11.21983 -11.21626 -11.21496
 Alpha  occ. eigenvalues --   -1.59855  -1.39407  -1.19383  -1.09085  -1.08779
 Alpha  occ. eigenvalues --   -1.04789  -1.04095  -0.96545  -0.95611  -0.87560
 Alpha  occ. eigenvalues --   -0.86194  -0.82440  -0.80182  -0.78933  -0.77473
 Alpha  occ. eigenvalues --   -0.72051  -0.71177  -0.70490  -0.65761  -0.65032
 Alpha  occ. eigenvalues --   -0.64775  -0.62150  -0.61484  -0.59910  -0.58164
 Alpha  occ. eigenvalues --   -0.55844  -0.55291  -0.53260  -0.53097  -0.52971
 Alpha  occ. eigenvalues --   -0.52861  -0.50490  -0.48820  -0.48805  -0.48473
 Alpha  occ. eigenvalues --   -0.47219  -0.46437  -0.46377  -0.44809  -0.44373
 Alpha  occ. eigenvalues --   -0.37328  -0.36328
 Alpha virt. eigenvalues --    0.05032   0.11158   0.16514   0.19934   0.22686
 Alpha virt. eigenvalues --    0.23839   0.24856   0.26159   0.27359   0.28126
 Alpha virt. eigenvalues --    0.29240   0.30904   0.31090   0.31494   0.31637

 Mulliken charges:
               1
     1  C   -0.298649
     2  C   -0.299779
     3  C   -0.476084
     4  H    0.140111
     5  H    0.151074
     6  H    0.152283
     7  H    0.154985
     8  H    0.156484
     9  H    0.153361
    10  H    0.162632
    11  C   -0.298072
    12  C   -0.304618
    13  C   -0.475531
    14  H    0.148645
    15  H    0.152897
    16  H    0.150037
    17  H    0.152060
    18  H    0.157301
    19  H    0.153232
    20  H    0.164291
    21  C   -0.171651
    22  C   -0.216936
    23  C   -0.173142
    24  C    0.158590
    25  C   -0.171350
    26  C   -0.218051
    27  H    0.225305
    28  H    0.227958
    29  H    0.275945
    30  H    0.275645
    31  H    0.223564
    32  N    0.488028
    33  O   -0.460332
    34  O   -0.460233
 Sum of Mulliken charges =  -0.00000

 Dipole moment (field-independent basis, Debye):
    X=              3.8193    Y=              0.5618    Z=              3.5132  Tot=              5.2197
 Quadrupole moment (field-independent basis, Debye-Ang):
   XX=           -115.7904   YY=            -95.2467   ZZ=            -91.9123
   XY=             -4.3220   XZ=            -13.0666   YZ=              0.7357

 Normal termination of Gaussian 16 at Thu May  6 02:29:46 2021.
