 Gaussian 16, Revision A.03,
 Gaussian 16:  EM64L-G16RevA.03 25-Dec-2016

 -------------
 #p 6-31g* mp2
 -------------

 ------------------------------------------------------
 Input file generated by CHIRIPA (05-May-2021 14:51:12)
 ------------------------------------------------------
 Symbolic Z-matrix:
 Charge =  0 Multiplicity = 1

                         Standard orientation:
 ---------------------------------------------------------------------
 Center     Atomic      Atomic             Coordinates (Angstroms)
 Number     Number       Type             X           Y           Z
 ---------------------------------------------------------------------
      1          6           0       -3.984440   -0.467169    0.095857
      2          6           0       -5.387537   -1.030612   -0.131819
      3          6           0       -5.456103   -2.544912    0.068152
      4          1           0       -3.282185   -0.961137   -0.589547
      5          1           0       -3.656627   -0.718714    1.114022
      6          1           0       -5.713160   -0.776887   -1.148779
      7          1           0       -6.086567   -0.535109    0.554074
      8          1           0       -5.156748   -2.812954    1.086553
      9          1           0       -4.781219   -3.056105   -0.625975
     10          1           0       -6.468057   -2.926597   -0.099559
     11          6           0       -3.899837    1.045467   -0.100361
     12          6           0       -2.496741    1.608910    0.127314
     13          6           0       -2.428174    3.123210   -0.072656
     14          1           0       -4.227650    1.297012   -1.118526
     15          1           0       -4.602093    1.539435    0.585043
     16          1           0       -1.797710    1.113407   -0.558578
     17          1           0       -2.171118    1.355185    1.144275
     18          1           0       -3.103058    3.634403    0.621471
     19          1           0       -2.727530    3.391252   -1.091058
     20          1           0       -1.416220    3.504895    0.095055
     21          6           0        3.270179    0.058442    0.107528
     22          6           0        2.069594   -0.858527   -0.128581
     23          6           0        0.732428   -0.148751    0.085901
     24          1           0        3.224348    0.455839    1.130720
     25          1           0        3.200606    0.923059   -0.567004
     26          1           0        2.142137   -1.721855    0.545227
     27          1           0        2.118391   -1.253937   -1.151266
     28          1           0        0.634052    0.701911   -0.596226
     29          1           0        0.657933    0.231334    1.109906
     30          1           0       -0.112240   -0.822625   -0.088140
     31          6           0        4.614098   -0.636740   -0.103024
     32          6           0        5.814684    0.280228    0.133085
     33          6           0        7.151849   -0.429547   -0.081397
     34          1           0        4.683672   -1.501356    0.571508
     35          1           0        4.659930   -1.034137   -1.126216
     36          1           0        5.765885    0.675639    1.155770
     37          1           0        5.742140    1.143557   -0.540723
     38          1           0        7.226346   -0.809632   -1.105403
     39          1           0        7.250226   -1.280208    0.600730
     40          1           0        7.996518    0.244326    0.092644
 ---------------------------------------------------------------------

 SCF Done:  E(RHF) =  -470.732550215     A.U. after   11 cycles
 E2 =    -0.1583107623D+01 EUMP2 =    -0.47231565783801D+03

 The electronic state is 1-A.
 Alpha  occ. eigenvalues --  -11.21599 -11.21573 -11.21565 -11.21399 -11.21398
 Alpha  occ. eigenvalues --  -11.21350 -11.21339 -11.21268 -11.21070 -11.21054
 Alpha  occ. eigenvalues --  -11.21027 -11.20979  -1.08427  -1.08355  -1.03544
 Alpha  occ. eigenvalues --   -1.03432  -0.95988  -0.95904  -0.87036  -0.86898
 Alpha  occ. eigenvalues --   -0.79742  -0.79389  -0.78277  -0.78103  -0.65074
 Alpha  occ. eigenvalues --   -0.64978  -0.60997  -0.60790  -0.59401  -0.59230
 Alpha  occ. eigenvalues --   -0.57657  -0.57454  -0.55303  -0.55171  -0.52776
 Alpha  occ. eigenvalues --   -0.52554  -0.52400  -0.52312  -0.49998  -0.49795
 Alpha  occ. eigenvalues --   -0.48020  -0.47704  -0.46751  -0.46424  -0.45869
 Alpha  occ. eigenvalues --   -0.45733  -0.45632  -0.45538  -0.43758  -0.43650
 Alpha virt. eigenvalues --    0.21990   0.23050   0.23769   0.24575   0.25981
 Alpha virt. eigenvalues --    0.26334   0.26763   0.27191   0.27872   0.29298
 Alpha virt. eigenvalues --    0.30522   0.31024   0.31732   0.31916   0.32301

 Mulliken charges:
               1
     1  C   -0.298914
     2  C   -0.299524
     3  C   -0.475668
     4  H    0.149394
     5  H    0.149517
     6  H    0.151845
     7  H    0.152015
     8  H    0.155106
     9  H    0.154957
    10  H    0.160178
    11  C   -0.297852
    12  C   -0.304025
    13  C   -0.476226
    14  H    0.148739
    15  H    0.148919
    16  H    0.160583
    17  H    0.151936
    18  H    0.154605
    19  H    0.154310
    20  H    0.159966
    21  C   -0.298443
    22  C   -0.300976
    23  C   -0.475506
    24  H    0.149516
    25  H    0.149386
    26  H    0.151704
    27  H    0.151431
    28  H    0.155402
    29  H    0.155794
    30  H    0.161849
    31  C   -0.298194
    32  C   -0.299612
    33  C   -0.475695
    34  H    0.149532
    35  H    0.149579
    36  H    0.151910
    37  H    0.151884
    38  H    0.155158
    39  H    0.155180
    40  H    0.160240
 Sum of Mulliken charges =  -0.00000

 Dipole moment (field-independent basis, Debye):
    X=              0.0215    Y=             -0.0091    Z=              0.0036  Tot=              0.0236
 Quadrupole moment (field-independent basis, Debye-Ang):
   XX=            -86.1559   YY=            -86.1679   ZZ=            -82.8196
   XY=              0.1978   XZ=             -0.0560   YZ=             -0.0616

 Normal termination of Gaussian 16 at Wed May  5 18:18:13 2021.
