 Gaussian 16, Revision A.03,
 Gaussian 16:  EM64L-G16RevA.03 25-Dec-2016

 -------------
 #p 6-31g* mp2
 -------------

 ------------------------------------------------------
 Input file generated by CHIRIPA (05-May-2021 14:53:12)
 ------------------------------------------------------
 Symbolic Z-matrix:
 Charge =  0 Multiplicity = 1

                         Standard orientation:
 ---------------------------------------------------------------------
 Center     Atomic      Atomic             Coordinates (Angstroms)
 Number     Number       Type             X           Y           Z
 ---------------------------------------------------------------------
      1          6           0        3.175773   -0.400200    0.024340
      2          6           0        4.459355   -1.187256   -0.242015
      3          6           0        4.223463   -2.696245   -0.313449
      4          1           0        2.728718   -0.747847    0.965737
      5          1           0        2.447283   -0.621271   -0.768014
      6          1           0        5.185704   -0.963699    0.549854
      7          1           0        4.903508   -0.837562   -1.182790
      8          1           0        3.518392   -2.938411   -1.115217
      9          1           0        3.802191   -3.065264    0.627272
     10          1           0        5.154177   -3.239475   -0.504582
     11          6           0        3.395367    1.109769    0.098501
     12          6           0        2.111785    1.896825    0.364856
     13          6           0        2.347677    3.405814    0.436290
     14          1           0        4.123857    1.330840    0.890855
     15          1           0        3.842422    1.457416   -0.842897
     16          1           0        1.667633    1.547131    1.305631
     17          1           0        1.385436    1.673268   -0.427013
     18          1           0        2.768949    3.774833   -0.504431
     19          1           0        3.052749    3.647979    1.238058
     20          1           0        1.416963    3.949044    0.627423
     21          6           0       -2.135885   -2.736833    0.312951
     22          6           0       -3.438874   -2.234944    0.395697
     23          6           0       -3.689393   -0.873873    0.197521
     24          6           0       -2.608516   -0.039384   -0.082879
     25          6           0       -1.299095   -0.509265   -0.171871
     26          6           0       -1.072029   -1.873913    0.029930
     27          1           0       -1.950385   -3.795535    0.468307
     28          1           0       -4.267013   -2.902764    0.615349
     29          1           0       -4.688223   -0.458711    0.255800
     30          1           0       -0.493963    0.181069   -0.392373
     31          1           0       -0.059073   -2.260896   -0.034938
     32          7           0       -2.861315    1.403413   -0.294598
     33          8           0       -1.891839    2.117815   -0.540328
     34          8           0       -4.024148    1.792559   -0.210805
 ---------------------------------------------------------------------

 SCF Done:  E(RHF) =  -669.535928947     A.U. after   15 cycles
 E2 =    -0.2092252629D+01 EUMP2 =    -0.67162818157575D+03

 The electronic state is 1-A.
 Alpha  occ. eigenvalues --  -20.60740 -20.60735 -15.85787 -11.31102 -11.27685
 Alpha  occ. eigenvalues --  -11.27618 -11.27418 -11.26696 -11.26646 -11.22131
 Alpha  occ. eigenvalues --  -11.22015 -11.21708 -11.21665 -11.21603 -11.20776
 Alpha  occ. eigenvalues --   -1.59812  -1.39367  -1.19277  -1.08809  -1.08684
 Alpha  occ. eigenvalues --   -1.04670  -1.03783  -0.96240  -0.95525  -0.87257
 Alpha  occ. eigenvalues --   -0.86074  -0.82356  -0.79903  -0.78660  -0.77378
 Alpha  occ. eigenvalues --   -0.72008  -0.71132  -0.70393  -0.65442  -0.64929
 Alpha  occ. eigenvalues --   -0.64675  -0.62034  -0.61163  -0.59632  -0.57829
 Alpha  occ. eigenvalues --   -0.55545  -0.55188  -0.53011  -0.52908  -0.52786
 Alpha  occ. eigenvalues --   -0.52617  -0.50193  -0.48775  -0.48762  -0.48176
 Alpha  occ. eigenvalues --   -0.46947  -0.46127  -0.46040  -0.44780  -0.44056
 Alpha  occ. eigenvalues --   -0.37267  -0.36272
 Alpha virt. eigenvalues --    0.05111   0.11367   0.16603   0.19797   0.22854
 Alpha virt. eigenvalues --    0.23476   0.24741   0.26376   0.27512   0.28146
 Alpha virt. eigenvalues --    0.29378   0.30620   0.31261   0.31556   0.32408

 Mulliken charges:
               1
     1  C   -0.302121
     2  C   -0.299084
     3  C   -0.477078
     4  H    0.147783
     5  H    0.142395
     6  H    0.155069
     7  H    0.155059
     8  H    0.151971
     9  H    0.152957
    10  H    0.163748
    11  C   -0.297900
    12  C   -0.307941
    13  C   -0.476006
    14  H    0.151406
    15  H    0.151973
    16  H    0.151032
    17  H    0.158562
    18  H    0.155346
    19  H    0.152631
    20  H    0.172752
    21  C   -0.170472
    22  C   -0.219223
    23  C   -0.170008
    24  C    0.155581
    25  C   -0.177156
    26  C   -0.225734
    27  H    0.225427
    28  H    0.223021
    29  H    0.275218
    30  H    0.289621
    31  H    0.227090
    32  N    0.487393
    33  O   -0.462939
    34  O   -0.460374
 Sum of Mulliken charges =  -0.00000

 Dipole moment (field-independent basis, Debye):
    X=              1.0142    Y=             -4.9051    Z=              0.7578  Tot=              5.0659
 Quadrupole moment (field-independent basis, Debye-Ang):
   XX=            -94.2286   YY=            -95.5992   ZZ=            -94.6742
   XY=             14.3338   XZ=             -2.7870   YZ=              0.0873

 Normal termination of Gaussian 16 at Thu May  6 12:01:40 2021.
