 Gaussian 16, Revision A.03,
 Gaussian 16:  EM64L-G16RevA.03 25-Dec-2016

 -------------
 #p 6-31g* mp2
 -------------

 ------------------------------------------------------
 Input file generated by CHIRIPA (05-May-2021 14:53:16)
 ------------------------------------------------------
 Symbolic Z-matrix:
 Charge =  0 Multiplicity = 1

                         Standard orientation:
 ---------------------------------------------------------------------
 Center     Atomic      Atomic             Coordinates (Angstroms)
 Number     Number       Type             X           Y           Z
 ---------------------------------------------------------------------
      1          6           0        2.824935    1.237796    0.226363
      2          6           0        1.738175    1.869679   -0.644076
      3          6           0        0.941354    2.946041    0.093701
      4          1           0        2.361399    0.803215    1.122587
      5          1           0        3.507171    2.024353    0.577471
      6          1           0        1.058990    1.081975   -0.994570
      7          1           0        2.204330    2.302638   -1.538426
      8          1           0        1.601828    3.751996    0.429574
      9          1           0        0.449981    2.524398    0.976521
     10          1           0        0.169900    3.384413   -0.547040
     11          6           0        3.630124    0.159911   -0.497213
     12          6           0        4.716884   -0.471972    0.373225
     13          6           0        5.513705   -1.548334   -0.364552
     14          1           0        2.947888   -0.626647   -0.848322
     15          1           0        4.093660    0.594491   -1.393438
     16          1           0        4.250729   -0.904931    1.267575
     17          1           0        5.396069    0.315732    0.723719
     18          1           0        6.005078   -1.126691   -1.247371
     19          1           0        4.853231   -2.354290   -0.700425
     20          1           0        6.285159   -1.986706    0.276189
     21          6           0       -0.712638   -2.274962    0.429116
     22          6           0       -1.900136   -2.618241   -0.225505
     23          6           0       -2.909197   -1.668392   -0.410247
     24          6           0       -2.696382   -0.378828    0.074544
     25          6           0       -1.524315   -0.006151    0.730791
     26          6           0       -0.528842   -0.972309    0.904337
     27          1           0        0.065948   -3.019162    0.568280
     28          1           0       -2.045621   -3.629130   -0.595614
     29          1           0       -3.838284   -1.907093   -0.913476
     30          1           0       -1.408227    1.009645    1.088705
     31          1           0        0.392361   -0.702879    1.413098
     32          7           0       -3.757438    0.635368   -0.115108
     33          8           0       -3.545515    1.764646    0.321305
     34          8           0       -4.780925    0.281813   -0.696579
 ---------------------------------------------------------------------

 SCF Done:  E(RHF) =  -669.534831337     A.U. after   15 cycles
 E2 =    -0.2093512017D+01 EUMP2 =    -0.67162834335445D+03

 The electronic state is 1-A.
 Alpha  occ. eigenvalues --  -20.60776 -20.60771 -15.85829 -11.31206 -11.27787
 Alpha  occ. eigenvalues --  -11.27757 -11.27539 -11.26804 -11.26789 -11.22288
 Alpha  occ. eigenvalues --  -11.22143 -11.22056 -11.22030 -11.21690 -11.21514
 Alpha  occ. eigenvalues --   -1.59851  -1.39403  -1.19392  -1.09097  -1.08781
 Alpha  occ. eigenvalues --   -1.04811  -1.04110  -0.96580  -0.95611  -0.87591
 Alpha  occ. eigenvalues --   -0.86188  -0.82449  -0.80174  -0.78909  -0.77495
 Alpha  occ. eigenvalues --   -0.72048  -0.71174  -0.70510  -0.65838  -0.65042
 Alpha  occ. eigenvalues --   -0.64775  -0.62303  -0.61349  -0.59920  -0.58169
 Alpha  occ. eigenvalues --   -0.55936  -0.55288  -0.53218  -0.53110  -0.53082
 Alpha  occ. eigenvalues --   -0.52794  -0.50492  -0.48811  -0.48800  -0.48478
 Alpha  occ. eigenvalues --   -0.47226  -0.46451  -0.46369  -0.44805  -0.44378
 Alpha  occ. eigenvalues --   -0.37374  -0.36362
 Alpha virt. eigenvalues --    0.05019   0.11186   0.16401   0.18949   0.22861
 Alpha virt. eigenvalues --    0.23672   0.25129   0.25998   0.26549   0.28760
 Alpha virt. eigenvalues --    0.29326   0.30689   0.31164   0.31486   0.31801

 Mulliken charges:
               1
     1  C   -0.299447
     2  C   -0.306397
     3  C   -0.477045
     4  H    0.139157
     5  H    0.153953
     6  H    0.156402
     7  H    0.155845
     8  H    0.158452
     9  H    0.144389
    10  H    0.171582
    11  C   -0.299321
    12  C   -0.299335
    13  C   -0.475517
    14  H    0.146912
    15  H    0.153821
    16  H    0.146736
    17  H    0.154981
    18  H    0.157829
    19  H    0.152751
    20  H    0.161866
    21  C   -0.172698
    22  C   -0.218686
    23  C   -0.170527
    24  C    0.158567
    25  C   -0.176259
    26  C   -0.222611
    27  H    0.225929
    28  H    0.223616
    29  H    0.275763
    30  H    0.282690
    31  H    0.229158
    32  N    0.487841
    33  O   -0.459909
    34  O   -0.460489
 Sum of Mulliken charges =  -0.00000

 Dipole moment (field-independent basis, Debye):
    X=              3.7983    Y=             -3.4624    Z=              0.5413  Tot=              5.1680
 Quadrupole moment (field-independent basis, Debye-Ang):
   XX=           -113.3388   YY=            -89.7494   ZZ=            -94.3539
   XY=             11.6703   XZ=             -0.2036   YZ=              0.5831

 Normal termination of Gaussian 16 at Wed May  5 18:42:28 2021.
