 Gaussian 16, Revision A.03,
 Gaussian 16:  EM64L-G16RevA.03 25-Dec-2016

 -------------
 #p 6-31g* mp2
 -------------

 ------------------------------------------------------
 Input file generated by CHIRIPA (05-May-2021 14:53:16)
 ------------------------------------------------------
 Symbolic Z-matrix:
 Charge =  0 Multiplicity = 1

                         Standard orientation:
 ---------------------------------------------------------------------
 Center     Atomic      Atomic             Coordinates (Angstroms)
 Number     Number       Type             X           Y           Z
 ---------------------------------------------------------------------
      1          6           0        3.341921    0.279256    0.125101
      2          6           0        3.874369   -0.674040   -0.945278
      3          6           0        4.941067   -1.629001   -0.408623
      4          1           0        4.178334    0.857737    0.540696
      5          1           0        2.925346   -0.308243    0.954984
      6          1           0        4.288566   -0.084912   -1.773520
      7          1           0        3.036564   -1.250182   -1.358507
      8          1           0        4.536295   -2.241548    0.403502
      9          1           0        5.795411   -1.069656   -0.013869
     10          1           0        5.307805   -2.301463   -1.190390
     11          6           0        2.274810    1.240162   -0.396110
     12          6           0        1.742361    2.193458    0.674269
     13          6           0        0.675663    3.148420    0.137615
     14          1           0        2.691385    1.827661   -1.225992
     15          1           0        1.438397    0.661681   -0.811704
     16          1           0        2.580166    2.769600    1.087498
     17          1           0        1.328165    1.604330    1.502511
     18          1           0       -0.178680    2.589074   -0.257140
     19          1           0        1.080435    3.760966   -0.674511
     20          1           0        0.308926    3.820881    0.919382
     21          6           0       -0.701872   -2.508138    0.794065
     22          6           0       -1.810858   -2.744380   -0.024997
     23          6           0       -2.644530   -1.691125   -0.412544
     24          6           0       -2.338292   -0.408425    0.039330
     25          6           0       -1.240753   -0.141054    0.856160
     26          6           0       -0.420855   -1.209517    1.231259
     27          1           0       -0.059605   -3.332238    1.090286
     28          1           0       -2.031527   -3.751874   -0.366033
     29          1           0       -3.509574   -1.845782   -1.045946
     30          1           0       -1.046364    0.874129    1.180249
     31          1           0        0.439717   -1.023089    1.867424
     32          7           0       -3.213573    0.714660   -0.364359
     33          8           0       -2.922177    1.835548    0.047142
     34          8           0       -4.174441    0.452778   -1.084628
 ---------------------------------------------------------------------

 SCF Done:  E(RHF) =  -669.534658626     A.U. after   15 cycles
 E2 =    -0.2095052597D+01 EUMP2 =    -0.67162971122345D+03

 The electronic state is 1-A.
 Alpha  occ. eigenvalues --  -20.60911 -20.60905 -15.85937 -11.31273 -11.27845
 Alpha  occ. eigenvalues --  -11.27797 -11.27584 -11.26853 -11.26839 -11.22069
 Alpha  occ. eigenvalues --  -11.21992 -11.21919 -11.21680 -11.21581 -11.20891
 Alpha  occ. eigenvalues --   -1.59973  -1.39529  -1.19454  -1.08876  -1.08832
 Alpha  occ. eigenvalues --   -1.04861  -1.03882  -0.96297  -0.95684  -0.87290
 Alpha  occ. eigenvalues --   -0.86249  -0.82527  -0.79945  -0.78668  -0.77592
 Alpha  occ. eigenvalues --   -0.72165  -0.71290  -0.70583  -0.65585  -0.65090
 Alpha  occ. eigenvalues --   -0.64884  -0.62357  -0.61070  -0.59669  -0.57903
 Alpha  occ. eigenvalues --   -0.55657  -0.55297  -0.53175  -0.52971  -0.52881
 Alpha  occ. eigenvalues --   -0.52661  -0.50255  -0.48922  -0.48909  -0.48233
 Alpha  occ. eigenvalues --   -0.47015  -0.46207  -0.46130  -0.44865  -0.44125
 Alpha  occ. eigenvalues --   -0.37432  -0.36408
 Alpha virt. eigenvalues --    0.04902   0.11077   0.16304   0.19367   0.23118
 Alpha virt. eigenvalues --    0.23808   0.24760   0.26761   0.27046   0.28361
 Alpha virt. eigenvalues --    0.29692   0.31026   0.31365   0.31830   0.32179

 Mulliken charges:
               1
     1  C   -0.297125
     2  C   -0.300420
     3  C   -0.475179
     4  H    0.151879
     5  H    0.139079
     6  H    0.155062
     7  H    0.152027
     8  H    0.150431
     9  H    0.157035
    10  H    0.161618
    11  C   -0.301424
    12  C   -0.303545
    13  C   -0.486355
    14  H    0.153385
    15  H    0.153601
    16  H    0.154950
    17  H    0.136265
    18  H    0.170269
    19  H    0.157814
    20  H    0.163674
    21  C   -0.171438
    22  C   -0.218720
    23  C   -0.170459
    24  C    0.157198
    25  C   -0.175371
    26  C   -0.221360
    27  H    0.226137
    28  H    0.223910
    29  H    0.275849
    30  H    0.284962
    31  H    0.226895
    32  N    0.488380
    33  O   -0.460033
    34  O   -0.458993
 Sum of Mulliken charges =  -0.00000

 Dipole moment (field-independent basis, Debye):
    X=              2.9931    Y=             -3.8728    Z=              1.2743  Tot=              5.0578
 Quadrupole moment (field-independent basis, Debye-Ang):
   XX=           -107.9200   YY=            -89.5619   ZZ=            -93.9929
   XY=             11.2710   XZ=             -2.1609   YZ=              1.0061

 Normal termination of Gaussian 16 at Wed May  5 21:58:41 2021.
