 Gaussian 16, Revision A.03,
 Gaussian 16:  EM64L-G16RevA.03 25-Dec-2016

 -------------
 #p 6-31g* mp2
 -------------

 ------------------------------------------------------
 Input file generated by CHIRIPA (05-May-2021 14:51:14)
 ------------------------------------------------------
 Symbolic Z-matrix:
 Charge =  0 Multiplicity = 1

                         Standard orientation:
 ---------------------------------------------------------------------
 Center     Atomic      Atomic             Coordinates (Angstroms)
 Number     Number       Type             X           Y           Z
 ---------------------------------------------------------------------
      1          6           0        2.700173    1.053247    0.405094
      2          6           0        2.010436    2.260590   -0.230963
      3          6           0        1.165124    3.052250    0.767294
      4          1           0        1.939501    0.395022    0.846752
      5          1           0        3.335215    1.396828    1.233387
      6          1           0        1.377956    1.914979   -1.058694
      7          1           0        2.772825    2.915922   -0.671326
      8          1           0        1.786511    3.424800    1.588078
      9          1           0        0.383717    2.418170    1.198508
     10          1           0        0.681142    3.910855    0.291460
     11          6           0        3.548944    0.251782   -0.580283
     12          6           0        4.238682   -0.955562    0.055774
     13          6           0        5.083993   -1.747221   -0.942483
     14          1           0        2.913902   -0.091800   -1.408576
     15          1           0        4.309617    0.910007   -1.021941
     16          1           0        3.476292   -1.610893    0.496137
     17          1           0        4.871161   -0.609951    0.883505
     18          1           0        5.865401   -1.113141   -1.373697
     19          1           0        4.462606   -2.119771   -1.763266
     20          1           0        5.567975   -2.605827   -0.466649
     21          6           0       -2.363257   -0.622564    0.141944
     22          6           0       -1.753045   -1.861179    0.798800
     23          6           0       -0.229272   -1.786384    0.900371
     24          1           0       -1.933158   -0.497866   -0.861257
     25          1           0       -2.076523    0.268202    0.717891
     26          1           0       -2.041988   -2.749487    0.222573
     27          1           0       -2.184788   -1.983051    1.800479
     28          1           0        0.075132   -0.917706    1.493108
     29          1           0        0.218743   -1.688496   -0.093763
     30          1           0        0.186023   -2.681955    1.372960
     31          6           0       -3.885862   -0.682465    0.033245
     32          6           0       -4.496072    0.556151   -0.623611
     33          6           0       -6.019845    0.481355   -0.725182
     34          1           0       -4.172594   -1.573230   -0.542703
     35          1           0       -4.315959   -0.807163    1.036445
     36          1           0       -4.064330    0.678022   -1.625290
     37          1           0       -4.207130    1.444458   -0.047385
     38          1           0       -6.467861    0.383468    0.268952
     39          1           0       -6.324250   -0.387323   -1.317919
     40          1           0       -6.435142    1.376926   -1.197771
 ---------------------------------------------------------------------

 SCF Done:  E(RHF) =  -470.733126857     A.U. after   11 cycles
 E2 =    -0.1583465806D+01 EUMP2 =    -0.47231659266376D+03

 The electronic state is 1-A.
 Alpha  occ. eigenvalues --  -11.21697 -11.21636 -11.21526 -11.21515 -11.21480
 Alpha  occ. eigenvalues --  -11.21413 -11.21304 -11.21204 -11.21201 -11.21097
 Alpha  occ. eigenvalues --  -11.21043 -11.21015  -1.08503  -1.08338  -1.03605
 Alpha  occ. eigenvalues --   -1.03458  -0.96068  -0.95903  -0.87087  -0.86923
 Alpha  occ. eigenvalues --   -0.79687  -0.79514  -0.78331  -0.78130  -0.65135
 Alpha  occ. eigenvalues --   -0.64980  -0.61031  -0.60834  -0.59425  -0.59274
 Alpha  occ. eigenvalues --   -0.57705  -0.57500  -0.55368  -0.55193  -0.52755
 Alpha  occ. eigenvalues --   -0.52619  -0.52540  -0.52283  -0.50066  -0.49795
 Alpha  occ. eigenvalues --   -0.48075  -0.47815  -0.46758  -0.46513  -0.45990
 Alpha  occ. eigenvalues --   -0.45786  -0.45661  -0.45337  -0.43855  -0.43702
 Alpha virt. eigenvalues --    0.20461   0.22649   0.23481   0.24921   0.25452
 Alpha virt. eigenvalues --    0.26039   0.26910   0.27615   0.28393   0.29704
 Alpha virt. eigenvalues --    0.30261   0.31510   0.31738   0.31848   0.31997

 Mulliken charges:
               1
     1  C   -0.307176
     2  C   -0.298908
     3  C   -0.476526
     4  H    0.160419
     5  H    0.148397
     6  H    0.151762
     7  H    0.151525
     8  H    0.155008
     9  H    0.154699
    10  H    0.160187
    11  C   -0.297400
    12  C   -0.301381
    13  C   -0.475541
    14  H    0.148570
    15  H    0.149159
    16  H    0.154362
    17  H    0.151567
    18  H    0.154945
    19  H    0.154784
    20  H    0.159975
    21  C   -0.299328
    22  C   -0.300027
    23  C   -0.480358
    24  H    0.149571
    25  H    0.150146
    26  H    0.152396
    27  H    0.152478
    28  H    0.158623
    29  H    0.155986
    30  H    0.161112
    31  C   -0.298334
    32  C   -0.299772
    33  C   -0.475767
    34  H    0.149736
    35  H    0.149885
    36  H    0.151987
    37  H    0.152320
    38  H    0.155269
    39  H    0.155195
    40  H    0.160454
 Sum of Mulliken charges =  -0.00000

 Dipole moment (field-independent basis, Debye):
    X=             -0.0594    Y=             -0.0382    Z=              0.0195  Tot=              0.0733
 Quadrupole moment (field-independent basis, Debye-Ang):
   XX=            -85.8645   YY=            -84.7584   ZZ=            -84.2693
   XY=              0.9530   XZ=              0.3741   YZ=              0.1132

 Normal termination of Gaussian 16 at Wed May  5 16:55:03 2021.
