 Gaussian 16, Revision A.03,
 Gaussian 16:  EM64L-G16RevA.03 25-Dec-2016

 -------------
 #p 6-31g* mp2
 -------------

 ------------------------------------------------------
 Input file generated by CHIRIPA (05-May-2021 14:53:15)
 ------------------------------------------------------
 Symbolic Z-matrix:
 Charge =  0 Multiplicity = 1

                         Standard orientation:
 ---------------------------------------------------------------------
 Center     Atomic      Atomic             Coordinates (Angstroms)
 Number     Number       Type             X           Y           Z
 ---------------------------------------------------------------------
      1          6           0       -2.801799    1.194505    0.206925
      2          6           0       -1.971876    2.386189   -0.271720
      3          6           0       -2.285594    3.671202    0.495169
      4          1           0       -3.869015    1.433782    0.103290
      5          1           0       -2.619541    1.036601    1.278953
      6          1           0       -2.154588    2.540938   -1.342834
      7          1           0       -0.906510    2.143974   -0.167113
      8          1           0       -2.085590    3.540761    1.563618
      9          1           0       -3.340760    3.939980    0.381217
     10          1           0       -1.681148    4.510309    0.136834
     11          6           0       -2.499497   -0.097441   -0.550186
     12          6           0       -3.329419   -1.289125   -0.071541
     13          6           0       -3.015701   -2.574137   -0.838430
     14          1           0       -2.681754    0.060463   -1.622214
     15          1           0       -1.432280   -0.336718   -0.446551
     16          1           0       -4.394786   -1.046910   -0.176149
     17          1           0       -3.146707   -1.443873    0.999573
     18          1           0       -1.960536   -2.842916   -0.724478
     19          1           0       -3.215705   -2.443697   -1.906880
     20          1           0       -3.620148   -3.413244   -0.480096
     21          6           0        0.580799   -2.197480    1.142362
     22          6           0        0.857243   -2.213407   -0.228713
     23          6           0        1.681483   -1.238285   -0.798198
     24          6           0        2.214868   -0.257527    0.036610
     25          6           0        1.958089   -0.214845    1.406111
     26          6           0        1.131135   -1.200009    1.953967
     27          1           0       -0.060544   -2.958879    1.576350
     28          1           0        0.431226   -2.986849   -0.861438
     29          1           0        1.911951   -1.226954   -1.856580
     30          1           0        2.397312    0.568876    2.011324
     31          1           0        0.918170   -1.185161    3.019082
     32          7           0        3.088891    0.780108   -0.554829
     33          8           0        3.546521    1.633422    0.202183
     34          8           0        3.299770    0.720443   -1.764212
 ---------------------------------------------------------------------

 SCF Done:  E(RHF) =  -669.534534965     A.U. after   15 cycles
 E2 =    -0.2094675437D+01 EUMP2 =    -0.67162921040182D+03

 The electronic state is 1-A.
 Alpha  occ. eigenvalues --  -20.60869 -20.60863 -15.85925 -11.31354 -11.27915
 Alpha  occ. eigenvalues --  -11.27893 -11.27640 -11.26929 -11.26896 -11.22115
 Alpha  occ. eigenvalues --  -11.21817 -11.21620 -11.21551 -11.21494 -11.21046
 Alpha  occ. eigenvalues --   -1.59944  -1.39495  -1.19526  -1.08922  -1.08654
 Alpha  occ. eigenvalues --   -1.04930  -1.03820  -0.96278  -0.95726  -0.87309
 Alpha  occ. eigenvalues --   -0.86322  -0.82553  -0.79896  -0.78449  -0.77596
 Alpha  occ. eigenvalues --   -0.72140  -0.71269  -0.70610  -0.65385  -0.65158
 Alpha  occ. eigenvalues --   -0.64914  -0.62299  -0.61215  -0.59659  -0.57865
 Alpha  occ. eigenvalues --   -0.55592  -0.55408  -0.53320  -0.53073  -0.52964
 Alpha  occ. eigenvalues --   -0.52645  -0.50241  -0.48904  -0.48891  -0.48198
 Alpha  occ. eigenvalues --   -0.46923  -0.45983  -0.45856  -0.44887  -0.44031
 Alpha  occ. eigenvalues --   -0.37456  -0.36469
 Alpha virt. eigenvalues --    0.04919   0.10987   0.16361   0.20358   0.22821
 Alpha virt. eigenvalues --    0.24148   0.25869   0.26404   0.27215   0.28009
 Alpha virt. eigenvalues --    0.28731   0.30214   0.31274   0.31590   0.32022

 Mulliken charges:
               1
     1  C   -0.297099
     2  C   -0.300021
     3  C   -0.475757
     4  H    0.149160
     5  H    0.146345
     6  H    0.153405
     7  H    0.152927
     8  H    0.153316
     9  H    0.154429
    10  H    0.163950
    11  C   -0.306699
    12  C   -0.297833
    13  C   -0.478499
    14  H    0.149137
    15  H    0.160197
    16  H    0.154450
    17  H    0.146673
    18  H    0.144903
    19  H    0.158676
    20  H    0.160318
    21  C   -0.169826
    22  C   -0.219776
    23  C   -0.171428
    24  C    0.159092
    25  C   -0.171425
    26  C   -0.218493
    27  H    0.227654
    28  H    0.226373
    29  H    0.276817
    30  H    0.276391
    31  H    0.224291
    32  N    0.487932
    33  O   -0.459992
    34  O   -0.459589
 Sum of Mulliken charges =  -0.00000

 Dipole moment (field-independent basis, Debye):
    X=             -2.9613    Y=             -3.5915    Z=              2.0591  Tot=              5.0900
 Quadrupole moment (field-independent basis, Debye-Ang):
   XX=           -108.8015   YY=            -93.5664   ZZ=            -90.3452
   XY=             -7.3022   XZ=              5.7652   YZ=              0.7707

 Normal termination of Gaussian 16 at Wed May  5 15:39:28 2021.
