 Gaussian 16, Revision A.03,
 Gaussian 16:  EM64L-G16RevA.03 25-Dec-2016

 -------------
 #p 6-31g* mp2
 -------------

 ------------------------------------------------------
 Input file generated by CHIRIPA (05-May-2021 14:53:11)
 ------------------------------------------------------
 Symbolic Z-matrix:
 Charge =  0 Multiplicity = 1

                         Standard orientation:
 ---------------------------------------------------------------------
 Center     Atomic      Atomic             Coordinates (Angstroms)
 Number     Number       Type             X           Y           Z
 ---------------------------------------------------------------------
      1          6           0       -3.645833   -0.574581    0.265556
      2          6           0       -2.963814   -1.798959   -0.345781
      3          6           0       -1.547179   -2.014426    0.187616
      4          1           0       -3.036376    0.316529    0.062011
      5          1           0       -3.677750   -0.688575    1.357976
      6          1           0       -2.934432   -1.683326   -1.436827
      7          1           0       -3.575062   -2.687229   -0.140921
      8          1           0       -1.561587   -2.155417    1.273210
      9          1           0       -0.917317   -1.145810   -0.030058
     10          1           0       -1.078256   -2.894898   -0.262650
     11          6           0       -5.062723   -0.345969   -0.257784
     12          6           0       -5.744742    0.878410    0.353553
     13          6           0       -7.161377    1.093877   -0.179844
     14          1           0       -5.030806   -0.231974   -1.350204
     15          1           0       -5.672180   -1.237078   -0.054239
     16          1           0       -5.133494    1.766680    0.148694
     17          1           0       -5.774124    0.762777    1.444599
     18          1           0       -7.791239    0.225261    0.037831
     19          1           0       -7.146969    1.234868   -1.265438
     20          1           0       -7.630300    1.974349    0.270423
     21          6           0        5.322215   -1.276737   -0.019960
     22          6           0        5.573093    0.097728   -0.086475
     23          6           0        4.516774    1.013515   -0.077804
     24          6           0        3.216119    0.517784   -0.001400
     25          6           0        2.933880   -0.845698    0.066028
     26          6           0        4.005730   -1.743242    0.055946
     27          1           0        6.148821   -1.981056   -0.027245
     28          1           0        6.594477    0.462884   -0.145496
     29          1           0        4.682510    2.082814   -0.128275
     30          1           0        1.905003   -1.179550    0.124106
     31          1           0        3.807909   -2.810122    0.107709
     32          7           0        2.089621    1.477629    0.008528
     33          8           0        0.952786    1.015431    0.076477
     34          8           0        2.364836    2.673978   -0.051829
 ---------------------------------------------------------------------

 SCF Done:  E(RHF) =  -669.536281507     A.U. after   15 cycles
 E2 =    -0.2091114467D+01 EUMP2 =    -0.67162739597365D+03

 The electronic state is 1-A.
 Alpha  occ. eigenvalues --  -20.60895 -20.60885 -15.85937 -11.31229 -11.27800
 Alpha  occ. eigenvalues --  -11.27771 -11.27536 -11.26803 -11.26786 -11.21064
 Alpha  occ. eigenvalues --  -11.21032 -11.20802 -11.20648 -11.20600 -11.20509
 Alpha  occ. eigenvalues --   -1.59960  -1.39517  -1.19400  -1.08811  -1.07824
 Alpha  occ. eigenvalues --   -1.04792  -1.02976  -0.95661  -0.95429  -0.86462
 Alpha  occ. eigenvalues --   -0.86194  -0.82492  -0.79052  -0.77642  -0.77519
 Alpha  occ. eigenvalues --   -0.72167  -0.71274  -0.70510  -0.65060  -0.64799
 Alpha  occ. eigenvalues --   -0.64445  -0.62142  -0.60361  -0.58812  -0.57038
 Alpha  occ. eigenvalues --   -0.55304  -0.54698  -0.53128  -0.52891  -0.52172
 Alpha  occ. eigenvalues --   -0.51847  -0.49402  -0.48906  -0.48863  -0.47345
 Alpha  occ. eigenvalues --   -0.46049  -0.45171  -0.45067  -0.44932  -0.43236
 Alpha  occ. eigenvalues --   -0.37384  -0.36393
 Alpha virt. eigenvalues --    0.04986   0.11260   0.16488   0.21058   0.23479
 Alpha virt. eigenvalues --    0.24583   0.26091   0.27320   0.27666   0.28221
 Alpha virt. eigenvalues --    0.29264   0.30534   0.31625   0.32146   0.32314

 Mulliken charges:
               1
     1  C   -0.300830
     2  C   -0.297398
     3  C   -0.492450
     4  H    0.161738
     5  H    0.147911
     6  H    0.151270
     7  H    0.148162
     8  H    0.152742
     9  H    0.181239
    10  H    0.149335
    11  C   -0.298109
    12  C   -0.299816
    13  C   -0.475435
    14  H    0.148914
    15  H    0.146767
    16  H    0.155316
    17  H    0.151128
    18  H    0.153462
    19  H    0.154711
    20  H    0.159462
    21  C   -0.170323
    22  C   -0.218896
    23  C   -0.170570
    24  C    0.156626
    25  C   -0.172609
    26  C   -0.220302
    27  H    0.225760
    28  H    0.223528
    29  H    0.275526
    30  H    0.282459
    31  H    0.224248
    32  N    0.493830
    33  O   -0.467887
    34  O   -0.459509
 Sum of Mulliken charges =  -0.00000

 Dipole moment (field-independent basis, Debye):
    X=              4.1168    Y=             -3.2129    Z=             -0.0386  Tot=              5.2222
 Quadrupole moment (field-independent basis, Debye-Ang):
   XX=            -68.9120   YY=            -95.8664   ZZ=            -95.2511
   XY=             -6.0489   XZ=             -0.9215   YZ=             -0.6412

 Normal termination of Gaussian 16 at Thu May  6 05:40:55 2021.
