 Gaussian 16, Revision A.03,
 Gaussian 16:  EM64L-G16RevA.03 25-Dec-2016

 -------------
 #p 6-31g* mp2
 -------------

 ------------------------------------------------------
 Input file generated by CHIRIPA (05-May-2021 14:55:20)
 ------------------------------------------------------
 Symbolic Z-matrix:
 Charge =  0 Multiplicity = 1

                         Standard orientation:
 ---------------------------------------------------------------------
 Center     Atomic      Atomic             Coordinates (Angstroms)
 Number     Number       Type             X           Y           Z
 ---------------------------------------------------------------------
      1          6           0        1.774380    2.094723    0.783551
      2          6           0        1.732094    0.828890    1.377184
      3          6           0        2.608272   -0.178947    0.963511
      4          6           0        3.518041    0.114959   -0.050998
      5          6           0        3.584653    1.366192   -0.661956
      6          6           0        2.698895    2.358868   -0.232334
      7          1           0        1.090023    2.871746    1.111097
      8          1           0        1.015153    0.620909    2.166351
      9          1           0        2.597136   -1.167689    1.405870
     10          1           0        4.310394    1.543568   -1.446339
     11          1           0        2.733999    3.341010   -0.695161
     12          7           0        4.450682   -0.943967   -0.497378
     13          8           0        5.242854   -0.659750   -1.393102
     14          8           0        4.371855   -2.038120    0.056926
     15          6           0       -3.569080   -0.208856    0.088298
     16          6           0       -2.716704   -1.443854    0.381930
     17          6           0       -1.244119   -1.104194    0.614137
     18          1           0       -3.166198    0.305309   -0.795029
     19          1           0       -3.482191    0.495864    0.926877
     20          1           0       -2.806269   -2.146642   -0.456332
     21          1           0       -3.121776   -1.955245    1.264546
     22          1           0       -1.135440   -0.421736    1.463278
     23          1           0       -0.818141   -0.614220   -0.267378
     24          1           0       -0.653121   -2.001551    0.822295
     25          6           0       -5.043607   -0.532221   -0.146078
     26          6           0       -5.895983    0.702777   -0.439710
     27          6           0       -7.368567    0.363117   -0.671917
     28          1           0       -5.130495   -1.236941   -0.984657
     29          1           0       -5.446489   -1.046386    0.737249
     30          1           0       -5.490911    1.214168   -1.322327
     31          1           0       -5.806417    1.405565    0.398552
     32          1           0       -7.794546   -0.126857    0.209598
     33          1           0       -7.477247   -0.319341   -1.521059
     34          1           0       -7.959566    1.260474   -0.880076
 ---------------------------------------------------------------------

 SCF Done:  E(RHF) =  -669.535062999     A.U. after   15 cycles
 E2 =    -0.2091695757D+01 EUMP2 =    -0.67162675875535D+03

 The electronic state is 1-A.
 Alpha  occ. eigenvalues --  -20.60726 -20.60721 -15.85779 -11.31133 -11.27692
 Alpha  occ. eigenvalues --  -11.27679 -11.27428 -11.26724 -11.26683 -11.22052
 Alpha  occ. eigenvalues --  -11.21959 -11.21860 -11.21743 -11.21676 -11.21363
 Alpha  occ. eigenvalues --   -1.59802  -1.39355  -1.19303  -1.08855  -1.08701
 Alpha  occ. eigenvalues --   -1.04707  -1.03954  -0.96423  -0.95537  -0.87453
 Alpha  occ. eigenvalues --   -0.86098  -0.82370  -0.80029  -0.78666  -0.77412
 Alpha  occ. eigenvalues --   -0.71997  -0.71124  -0.70409  -0.65489  -0.64954
 Alpha  occ. eigenvalues --   -0.64723  -0.62078  -0.61337  -0.59785  -0.58027
 Alpha  occ. eigenvalues --   -0.55727  -0.55201  -0.53329  -0.53039  -0.52875
 Alpha  occ. eigenvalues --   -0.52552  -0.50351  -0.48758  -0.48753  -0.48325
 Alpha  occ. eigenvalues --   -0.47046  -0.46206  -0.46126  -0.44763  -0.44215
 Alpha  occ. eigenvalues --   -0.37277  -0.36256
 Alpha virt. eigenvalues --    0.05103   0.11331   0.16564   0.20693   0.22545
 Alpha virt. eigenvalues --    0.23921   0.25678   0.26493   0.27037   0.28031
 Alpha virt. eigenvalues --    0.28743   0.29635   0.31321   0.31517   0.32011

 Mulliken charges:
               1
     1  C   -0.173010
     2  C   -0.212443
     3  C   -0.171518
     4  C    0.158208
     5  C   -0.171559
     6  C   -0.218613
     7  H    0.225276
     8  H    0.224955
     9  H    0.275450
    10  H    0.275245
    11  H    0.223090
    12  N    0.488102
    13  O   -0.460679
    14  O   -0.460548
    15  C   -0.298133
    16  C   -0.300880
    17  C   -0.475853
    18  H    0.149933
    19  H    0.145985
    20  H    0.155562
    21  H    0.152474
    22  H    0.143387
    23  H    0.161063
    24  H    0.161721
    25  C   -0.298539
    26  C   -0.299760
    27  C   -0.475909
    28  H    0.151347
    29  H    0.150318
    30  H    0.151934
    31  H    0.150775
    32  H    0.155657
    33  H    0.156246
    34  H    0.160717
 Sum of Mulliken charges =  -0.00000

 Dipole moment (field-independent basis, Debye):
    X=             -3.3763    Y=              3.6944    Z=              1.5217  Tot=              5.2310
 Quadrupole moment (field-independent basis, Debye-Ang):
   XX=           -118.8070   YY=            -92.2661   ZZ=            -92.2718
   XY=             14.2684   XZ=              3.9768   YZ=             -2.2968

 Normal termination of Gaussian 16 at Thu May  6 19:06:36 2021.
