 Gaussian 16, Revision A.03,
 Gaussian 16:  EM64L-G16RevA.03 25-Dec-2016

 -------------
 #p 6-31g* mp2
 -------------

 ------------------------------------------------------
 Input file generated by CHIRIPA (05-May-2021 14:55:24)
 ------------------------------------------------------
 Symbolic Z-matrix:
 Charge =  0 Multiplicity = 1

                         Standard orientation:
 ---------------------------------------------------------------------
 Center     Atomic      Atomic             Coordinates (Angstroms)
 Number     Number       Type             X           Y           Z
 ---------------------------------------------------------------------
      1          6           0        0.829183   -1.612135    2.089419
      2          6           0        1.769492   -0.593364    2.275015
      3          6           0        2.402754   -0.003038    1.177270
      4          6           0        2.070287   -0.457984   -0.097791
      5          6           0        1.137677   -1.471027   -0.315212
      6          6           0        0.516828   -2.046949    0.797176
      7          1           0        0.342072   -2.065119    2.947862
      8          1           0        2.014038   -0.253672    3.277437
      9          1           0        3.134453    0.787411    1.292267
     10          1           0        0.914620   -1.788471   -1.326594
     11          1           0       -0.213036   -2.837956    0.650034
     12          7           0        2.734123    0.159342   -1.267675
     13          8           0        2.423727   -0.259346   -2.380776
     14          8           0        3.552263    1.050201   -1.049379
     15          6           0       -2.519575    1.429856    0.151123
     16          6           0       -1.149816    2.108750    0.121976
     17          6           0       -1.185330    3.535395    0.670806
     18          1           0       -3.231898    2.030520   -0.430894
     19          1           0       -2.892751    1.416967    1.184548
     20          1           0       -0.778719    2.119117   -0.910882
     21          1           0       -0.440625    1.506300    0.703970
     22          1           0       -1.531196    3.540058    1.709534
     23          1           0       -1.871209    4.156357    0.085507
     24          1           0       -0.195719    4.001895    0.640647
     25          6           0       -2.500275    0.003046   -0.394375
     26          6           0       -3.870035   -0.675848   -0.365228
     27          6           0       -3.834522   -2.102493   -0.914058
     28          1           0       -2.127099    0.015935   -1.427801
     29          1           0       -1.787951   -0.597618    0.187642
     30          1           0       -4.579226   -0.073397   -0.947223
     31          1           0       -4.241131   -0.686215    0.667630
     32          1           0       -3.148640   -2.723455   -0.328758
     33          1           0       -3.488654   -2.107156   -1.952785
     34          1           0       -4.824131   -2.568993   -0.883900
 ---------------------------------------------------------------------

 SCF Done:  E(RHF) =  -669.534660742     A.U. after   15 cycles
 E2 =    -0.2094962097D+01 EUMP2 =    -0.67162962283881D+03

 The electronic state is 1-A.
 Alpha  occ. eigenvalues --  -20.60818 -20.60812 -15.85873 -11.31262 -11.27850
 Alpha  occ. eigenvalues --  -11.27823 -11.27610 -11.26891 -11.26851 -11.21913
 Alpha  occ. eigenvalues --  -11.21603 -11.21537 -11.21485 -11.21430 -11.21036
 Alpha  occ. eigenvalues --   -1.59891  -1.39444  -1.19465  -1.08852  -1.08577
 Alpha  occ. eigenvalues --   -1.04875  -1.03707  -0.96170  -0.95673  -0.87191
 Alpha  occ. eigenvalues --   -0.86264  -0.82509  -0.79776  -0.78402  -0.77534
 Alpha  occ. eigenvalues --   -0.72092  -0.71211  -0.70558  -0.65267  -0.65109
 Alpha  occ. eigenvalues --   -0.64843  -0.62213  -0.61112  -0.59545  -0.57779
 Alpha  occ. eigenvalues --   -0.55492  -0.55365  -0.53359  -0.52957  -0.52802
 Alpha  occ. eigenvalues --   -0.52602  -0.50142  -0.48854  -0.48843  -0.48111
 Alpha  occ. eigenvalues --   -0.46828  -0.45890  -0.45739  -0.44842  -0.43931
 Alpha  occ. eigenvalues --   -0.37425  -0.36356
 Alpha virt. eigenvalues --    0.04990   0.11069   0.16421   0.20252   0.22943
 Alpha virt. eigenvalues --    0.23732   0.25786   0.26607   0.27597   0.28255
 Alpha virt. eigenvalues --    0.28596   0.29877   0.31398   0.31685   0.32208

 Mulliken charges:
               1
     1  C   -0.171690
     2  C   -0.218212
     3  C   -0.172580
     4  C    0.161898
     5  C   -0.166345
     6  C   -0.222274
     7  H    0.226253
     8  H    0.224165
     9  H    0.276150
    10  H    0.276637
    11  H    0.226585
    12  N    0.488073
    13  O   -0.460343
    14  O   -0.460331
    15  C   -0.296714
    16  C   -0.306525
    17  C   -0.475852
    18  H    0.150545
    19  H    0.146304
    20  H    0.155959
    21  H    0.155177
    22  H    0.151811
    23  H    0.156155
    24  H    0.162494
    25  C   -0.307450
    26  C   -0.299057
    27  C   -0.475134
    28  H    0.150716
    29  H    0.154461
    30  H    0.154409
    31  H    0.149987
    32  H    0.144521
    33  H    0.157682
    34  H    0.162524
 Sum of Mulliken charges =  -0.00000

 Dipole moment (field-independent basis, Debye):
    X=             -2.2261    Y=             -2.1619    Z=              4.0771  Tot=              5.1237
 Quadrupole moment (field-independent basis, Debye-Ang):
   XX=           -103.8050   YY=            -92.5046   ZZ=            -93.3002
   XY=             -1.9367   XZ=             10.9810   YZ=             -0.4478

 Normal termination of Gaussian 16 at Thu May  6 07:57:30 2021.
