 Gaussian 16, Revision A.03,
 Gaussian 16:  EM64L-G16RevA.03 25-Dec-2016

 -------------
 #p 6-31g* mp2
 -------------

 ------------------------------------------------------
 Input file generated by CHIRIPA (05-May-2021 14:53:13)
 ------------------------------------------------------
 Symbolic Z-matrix:
 Charge =  0 Multiplicity = 1

                         Standard orientation:
 ---------------------------------------------------------------------
 Center     Atomic      Atomic             Coordinates (Angstroms)
 Number     Number       Type             X           Y           Z
 ---------------------------------------------------------------------
      1          6           0        4.015754    0.743365   -0.462730
      2          6           0        2.551417    1.174551   -0.374521
      3          6           0        2.290115    2.521490   -1.049258
      4          1           0        4.647012    1.514935   -0.001061
      5          1           0        4.311593    0.688622   -1.519554
      6          1           0        2.258033    1.227125    0.681783
      7          1           0        1.923556    0.401776   -0.836283
      8          1           0        2.555620    2.478671   -2.110519
      9          1           0        2.891997    3.308710   -0.583828
     10          1           0        1.237144    2.810460   -0.974364
     11          6           0        4.292758   -0.601276    0.207298
     12          6           0        5.757095   -1.032463    0.119089
     13          6           0        6.018397   -2.379402    0.793826
     14          1           0        3.996920   -0.546533    1.264123
     15          1           0        3.661500   -1.372846   -0.254371
     16          1           0        6.384956   -0.259687    0.580852
     17          1           0        6.050479   -1.085036   -0.937214
     18          1           0        5.416516   -3.166621    0.328396
     19          1           0        5.752893   -2.336583    1.855087
     20          1           0        7.071368   -2.668371    0.718933
     21          6           0       -1.433355    1.564085    0.777228
     22          6           0       -1.297622    0.811659   -0.394075
     23          6           0       -2.295386   -0.088735   -0.779185
     24          6           0       -3.420705   -0.212079    0.034285
     25          6           0       -3.585029    0.523452    1.207009
     26          6           0       -2.574612    1.417838    1.572630
     27          1           0       -0.653353    2.261199    1.068820
     28          1           0       -0.412394    0.923168   -1.013736
     29          1           0       -2.215976   -0.683707   -1.680916
     30          1           0       -4.478915    0.390498    1.804260
     31          1           0       -2.682713    2.000876    2.482809
     32          7           0       -4.483690   -1.162106   -0.363098
     33          8           0       -5.465436   -1.252371    0.370841
     34          8           0       -4.314985   -1.798483   -1.400980
 ---------------------------------------------------------------------

 SCF Done:  E(RHF) =  -669.534951244     A.U. after   15 cycles
 E2 =    -0.2092168305D+01 EUMP2 =    -0.67162711954940D+03

 The electronic state is 1-A.
 Alpha  occ. eigenvalues --  -20.60716 -20.60711 -15.85768 -11.31121 -11.27688
 Alpha  occ. eigenvalues --  -11.27670 -11.27411 -11.26705 -11.26626 -11.22821
 Alpha  occ. eigenvalues --  -11.22375 -11.22262 -11.22128 -11.22031 -11.21478
 Alpha  occ. eigenvalues --   -1.59792  -1.39346  -1.19287  -1.09270  -1.08683
 Alpha  occ. eigenvalues --   -1.04700  -1.04388  -0.96832  -0.95521  -0.87837
 Alpha  occ. eigenvalues --   -0.86091  -0.82357  -0.80493  -0.79018  -0.77406
 Alpha  occ. eigenvalues --   -0.71988  -0.71114  -0.70406  -0.65917  -0.64943
 Alpha  occ. eigenvalues --   -0.64760  -0.62175  -0.61723  -0.60164  -0.58395
 Alpha  occ. eigenvalues --   -0.56093  -0.55178  -0.53560  -0.53275  -0.53010
 Alpha  occ. eigenvalues --   -0.52724  -0.50745  -0.48804  -0.48743  -0.48731
 Alpha  occ. eigenvalues --   -0.47501  -0.46556  -0.46442  -0.44754  -0.44628
 Alpha  occ. eigenvalues --   -0.37260  -0.36283
 Alpha virt. eigenvalues --    0.05118   0.11298   0.16589   0.19346   0.22508
 Alpha virt. eigenvalues --    0.24014   0.25212   0.26081   0.26740   0.27216
 Alpha virt. eigenvalues --    0.29139   0.29924   0.30671   0.31026   0.31685

 Mulliken charges:
               1
     1  C   -0.298106
     2  C   -0.305679
     3  C   -0.482330
     4  H    0.151935
     5  H    0.152219
     6  H    0.151691
     7  H    0.149433
     8  H    0.161514
     9  H    0.161431
    10  H    0.152752
    11  C   -0.299162
    12  C   -0.300415
    13  C   -0.476225
    14  H    0.150292
    15  H    0.151236
    16  H    0.152535
    17  H    0.153031
    18  H    0.156556
    19  H    0.155774
    20  H    0.161994
    21  C   -0.174867
    22  C   -0.222617
    23  C   -0.172554
    24  C    0.158852
    25  C   -0.171262
    26  C   -0.218525
    27  H    0.227081
    28  H    0.233069
    29  H    0.275254
    30  H    0.275291
    31  H    0.223051
    32  N    0.488004
    33  O   -0.460624
    34  O   -0.460632
 Sum of Mulliken charges =  -0.00000

 Dipole moment (field-independent basis, Debye):
    X=              4.0222    Y=              3.3191    Z=              1.3978  Tot=              5.3989
 Quadrupole moment (field-independent basis, Debye-Ang):
   XX=           -118.7128   YY=            -97.1965   ZZ=            -90.9902
   XY=            -12.6341   XZ=             -7.2382   YZ=              1.8626

 Normal termination of Gaussian 16 at Thu May  6 12:02:57 2021.
