 Gaussian 16, Revision A.03,
 Gaussian 16:  EM64L-G16RevA.03 25-Dec-2016

 -------------
 #p 6-31g* mp2
 -------------

 ------------------------------------------------------
 Input file generated by CHIRIPA (05-May-2021 14:57:27)
 ------------------------------------------------------
 Symbolic Z-matrix:
 Charge =  0 Multiplicity = 1

                         Standard orientation:
 ---------------------------------------------------------------------
 Center     Atomic      Atomic             Coordinates (Angstroms)
 Number     Number       Type             X           Y           Z
 ---------------------------------------------------------------------
      1          6           0       -2.210007    2.137630   -0.336711
      2          6           0       -1.528759    0.921729   -0.218360
      3          6           0       -2.234803   -0.279421   -0.103083
      4          6           0       -3.627844   -0.227642   -0.109743
      5          6           0       -4.335282    0.967879   -0.226155
      6          6           0       -3.608628    2.156790   -0.340225
      7          1           0       -1.653530    3.065958   -0.425792
      8          1           0       -0.442612    0.903825   -0.215339
      9          1           0       -1.732722   -1.234771   -0.010132
     10          1           0       -5.418435    0.953868   -0.226088
     11          1           0       -4.140348    3.099603   -0.431999
     12          7           0       -4.386210   -1.492768    0.011656
     13          8           0       -5.613120   -1.420254    0.003189
     14          8           0       -3.739349   -2.532932    0.112978
     15          6           0        2.161757    2.065006    0.747641
     16          6           0        1.871600    0.832205    1.341385
     17          6           0        2.608121   -0.307974    1.006604
     18          6           0        3.632509   -0.178653    0.070016
     19          6           0        3.945705    1.035603   -0.538902
     20          6           0        3.196061    2.162598   -0.188956
     21          1           0        1.584514    2.945603    1.013597
     22          1           0        1.068912    0.753446    2.069077
     23          1           0        2.404762   -1.274732    1.450946
     24          1           0        4.751823    1.082843   -1.260955
     25          1           0        3.423629    3.118711   -0.651670
     26          7           0        4.419177   -1.378731   -0.292429
     27          8           0        5.316633   -1.238398   -1.120388
     28          8           0        4.123417   -2.436960    0.258309
 ---------------------------------------------------------------------

 SCF Done:  E(RHF) =  -868.336566037     A.U. after   16 cycles
 E2 =    -0.2601545953D+01 EUMP2 =    -0.87093811199005D+03

 The electronic state is 1-A.
 Alpha  occ. eigenvalues --  -20.61416 -20.61409 -20.61057 -20.61051 -15.86476
 Alpha  occ. eigenvalues --  -15.86111 -11.32103 -11.31583 -11.28688 -11.28664
 Alpha  occ. eigenvalues --  -11.28535 -11.28145 -11.28133 -11.27961 -11.27771
 Alpha  occ. eigenvalues --  -11.27756 -11.27213 -11.27066  -1.60485  -1.60130
 Alpha  occ. eigenvalues --   -1.40030  -1.39680  -1.20321  -1.19758  -1.09684
 Alpha  occ. eigenvalues --   -1.09147  -1.05747  -1.05161  -0.96457  -0.95967
 Alpha  occ. eigenvalues --   -0.87146  -0.86552  -0.83267  -0.82784  -0.78262
 Alpha  occ. eigenvalues --   -0.77804  -0.72687  -0.72326  -0.71813  -0.71456
 Alpha  occ. eigenvalues --   -0.71425  -0.70903  -0.65967  -0.65773  -0.65408
 Alpha  occ. eigenvalues --   -0.65132  -0.63059  -0.62498  -0.56265  -0.55727
 Alpha  occ. eigenvalues --   -0.54226  -0.53814  -0.53496  -0.53065  -0.49467
 Alpha  occ. eigenvalues --   -0.49427  -0.49093  -0.49077  -0.45377  -0.45062
 Alpha  occ. eigenvalues --   -0.38342  -0.37781  -0.37356  -0.36739
 Alpha virt. eigenvalues --    0.04232   0.04705   0.10090   0.10954   0.15587
 Alpha virt. eigenvalues --    0.16175   0.19875   0.21637   0.26020   0.26360
 Alpha virt. eigenvalues --    0.27600   0.28727   0.30129   0.31434   0.31702

 Mulliken charges:
               1
     1  C   -0.175060
     2  C   -0.230556
     3  C   -0.175167
     4  C    0.159866
     5  C   -0.171204
     6  C   -0.217656
     7  H    0.219863
     8  H    0.235774
     9  H    0.276680
    10  H    0.276807
    11  H    0.223726
    12  N    0.487841
    13  O   -0.459450
    14  O   -0.458741
    15  C   -0.178321
    16  C   -0.230593
    17  C   -0.171987
    18  C    0.160129
    19  C   -0.169664
    20  C   -0.217182
    21  H    0.225224
    22  H    0.230449
    23  H    0.280391
    24  H    0.279204
    25  H    0.226090
    26  N    0.487868
    27  O   -0.457642
    28  O   -0.456688
 Sum of Mulliken charges =  -0.00000

 Dipole moment (field-independent basis, Debye):
    X=              0.1593    Y=              8.5349    Z=              0.8348  Tot=              8.5771
 Quadrupole moment (field-independent basis, Debye-Ang):
   XX=           -138.4198   YY=           -106.4580   ZZ=           -103.7731
   XY=             -1.6892   XZ=              3.9690   YZ=             -2.5519

 Normal termination of Gaussian 16 at Fri May  7 08:11:07 2021.
