 Gaussian 16, Revision A.03,
 Gaussian 16:  EM64L-G16RevA.03 25-Dec-2016

 -------------
 #p 6-31g* mp2
 -------------

 ------------------------------------------------------
 Input file generated by CHIRIPA (05-May-2021 14:51:12)
 ------------------------------------------------------
 Symbolic Z-matrix:
 Charge =  0 Multiplicity = 1

                         Standard orientation:
 ---------------------------------------------------------------------
 Center     Atomic      Atomic             Coordinates (Angstroms)
 Number     Number       Type             X           Y           Z
 ---------------------------------------------------------------------
      1          6           0       -3.193019   -0.523618   -0.317389
      2          6           0       -2.613954   -1.588514    0.614632
      3          6           0       -2.460072   -2.949114   -0.065724
      4          1           0       -4.170071   -0.862245   -0.688395
      5          1           0       -2.542316   -0.423213   -1.197104
      6          1           0       -3.264815   -1.685897    1.492989
      7          1           0       -1.638253   -1.247227    0.983614
      8          1           0       -1.793774   -2.873911   -0.931168
      9          1           0       -3.429578   -3.315074   -0.418898
     10          1           0       -2.044518   -3.695420    0.618529
     11          6           0       -3.352835    0.842020    0.348359
     12          6           0       -3.931900    1.906917   -0.583662
     13          6           0       -4.085782    3.267516    0.096694
     14          1           0       -4.003538    0.741615    1.228074
     15          1           0       -2.375783    1.180648    0.719366
     16          1           0       -4.907601    1.565630   -0.952644
     17          1           0       -3.281039    2.004300   -1.462019
     18          1           0       -3.116276    3.633476    0.449869
     19          1           0       -4.752080    3.192313    0.962138
     20          1           0       -4.501336    4.013822   -0.587558
     21          6           0        3.918493    0.198323   -0.212595
     22          6           0        4.020924    1.617493    0.347271
     23          6           0        5.317928    2.319771   -0.055694
     24          1           0        4.778856   -0.389401    0.135688
     25          1           0        3.989969    0.237876   -1.308369
     26          1           0        3.947887    1.575408    1.441579
     27          1           0        3.160116    2.201852   -0.002231
     28          1           0        5.394809    2.391209   -1.145458
     29          1           0        6.187054    1.761206    0.306554
     30          1           0        5.370351    3.332808    0.355242
     31          6           0        2.627361   -0.516725    0.181624
     32          6           0        2.524930   -1.935895   -0.378241
     33          6           0        1.227926   -2.638173    0.024723
     34          1           0        2.555885   -0.556278    1.277400
     35          1           0        1.766997    0.070998   -0.166659
     36          1           0        3.385738   -2.520254   -0.028739
     37          1           0        2.597968   -1.893809   -1.472549
     38          1           0        0.358800   -2.079608   -0.337525
     39          1           0        1.151045   -2.709612    1.114488
     40          1           0        1.175503   -3.651211   -0.386213
 ---------------------------------------------------------------------

 SCF Done:  E(RHF) =  -470.732370015     A.U. after   11 cycles
 E2 =    -0.1583389871D+01 EUMP2 =    -0.47231575988624D+03

 The electronic state is 1-A.
 Alpha  occ. eigenvalues --  -11.21628 -11.21601 -11.21598 -11.21521 -11.21437
 Alpha  occ. eigenvalues --  -11.21390 -11.21377 -11.21331 -11.21091 -11.21069
 Alpha  occ. eigenvalues --  -11.21022 -11.20947  -1.08462  -1.08402  -1.03588
 Alpha  occ. eigenvalues --   -1.03457  -0.96072  -0.95873  -0.87085  -0.86890
 Alpha  occ. eigenvalues --   -0.79622  -0.79548  -0.78277  -0.78217  -0.65166
 Alpha  occ. eigenvalues --   -0.64991  -0.61185  -0.60726  -0.59371  -0.59304
 Alpha  occ. eigenvalues --   -0.57640  -0.57511  -0.55564  -0.54998  -0.52753
 Alpha  occ. eigenvalues --   -0.52561  -0.52373  -0.52361  -0.50094  -0.49705
 Alpha  occ. eigenvalues --   -0.47997  -0.47787  -0.46666  -0.46550  -0.45878
 Alpha  occ. eigenvalues --   -0.45757  -0.45692  -0.45630  -0.43827  -0.43715
 Alpha virt. eigenvalues --    0.21193   0.23120   0.23643   0.24947   0.26254
 Alpha virt. eigenvalues --    0.26692   0.27119   0.27408   0.28075   0.29251
 Alpha virt. eigenvalues --    0.30284   0.31455   0.31630   0.31867   0.32343

 Mulliken charges:
               1
     1  C   -0.298402
     2  C   -0.304216
     3  C   -0.475972
     4  H    0.149897
     5  H    0.148152
     6  H    0.152090
     7  H    0.155153
     8  H    0.156152
     9  H    0.154364
    10  H    0.161492
    11  C   -0.298262
    12  C   -0.299576
    13  C   -0.475696
    14  H    0.149666
    15  H    0.149628
    16  H    0.151993
    17  H    0.151584
    18  H    0.155148
    19  H    0.155245
    20  H    0.160193
    21  C   -0.298187
    22  C   -0.299642
    23  C   -0.475723
    24  H    0.149883
    25  H    0.149545
    26  H    0.151991
    27  H    0.151690
    28  H    0.155210
    29  H    0.155271
    30  H    0.160330
    31  C   -0.298377
    32  C   -0.300393
    33  C   -0.478837
    34  H    0.149538
    35  H    0.148611
    36  H    0.151788
    37  H    0.151550
    38  H    0.161930
    39  H    0.154724
    40  H    0.160462
 Sum of Mulliken charges =  -0.00000

 Dipole moment (field-independent basis, Debye):
    X=              0.0130    Y=             -0.0244    Z=              0.0108  Tot=              0.0296
 Quadrupole moment (field-independent basis, Debye-Ang):
   XX=            -84.5995   YY=            -86.0462   ZZ=            -84.1668
   XY=             -0.3206   XZ=              0.3322   YZ=             -0.6326

 Normal termination of Gaussian 16 at Thu May  6 03:54:42 2021.
