 Gaussian 16, Revision A.03,
 Gaussian 16:  EM64L-G16RevA.03 25-Dec-2016

 -------------
 #p 6-31g* mp2
 -------------

 ------------------------------------------------------
 Input file generated by CHIRIPA (05-May-2021 14:53:14)
 ------------------------------------------------------
 Symbolic Z-matrix:
 Charge =  0 Multiplicity = 1

                         Standard orientation:
 ---------------------------------------------------------------------
 Center     Atomic      Atomic             Coordinates (Angstroms)
 Number     Number       Type             X           Y           Z
 ---------------------------------------------------------------------
      1          6           0        3.875485    0.348918    0.033577
      2          6           0        2.611497   -0.087928   -0.707696
      3          6           0        1.422922    0.837531   -0.445763
      4          1           0        3.666969    0.384128    1.111643
      5          1           0        4.133716    1.373362   -0.268461
      6          1           0        2.356513   -1.111749   -0.405389
      7          1           0        2.823101   -0.122287   -1.784106
      8          1           0        1.652825    1.859423   -0.764324
      9          1           0        1.183586    0.864339    0.622226
     10          1           0        0.530007    0.506744   -0.985340
     11          6           0        5.072365   -0.566388   -0.218259
     12          6           0        6.336354   -0.129542    0.523013
     13          6           0        7.524929   -1.055001    0.261080
     14          1           0        4.814134   -1.590832    0.083778
     15          1           0        5.280881   -0.601598   -1.296325
     16          1           0        6.124750   -0.095183    1.599423
     17          1           0        6.591338    0.894279    0.220707
     18          1           0        7.764265   -1.081809   -0.806909
     19          1           0        7.295026   -2.076893    0.579641
     20          1           0        8.417844   -0.724214    0.800657
     21          6           0       -1.942729    2.073188    0.122082
     22          6           0       -2.327573    1.516139   -1.101892
     23          6           0       -3.187350    0.414431   -1.141554
     24          6           0       -3.645347   -0.107266    0.067314
     25          6           0       -3.280032    0.425409    1.302665
     26          6           0       -2.419346    1.527008    1.318344
     27          1           0       -1.274480    2.928980    0.143577
     28          1           0       -1.958987    1.938231   -2.032498
     29          1           0       -3.501269   -0.036519   -2.075104
     30          1           0       -3.663897   -0.017257    2.213770
     31          1           0       -2.122146    1.957555    2.270367
     32          7           0       -4.556034   -1.273537    0.038020
     33          8           0       -4.945650   -1.714662    1.117022
     34          8           0       -4.862972   -1.724454   -1.063389
 ---------------------------------------------------------------------

 SCF Done:  E(RHF) =  -669.535152312     A.U. after   15 cycles
 E2 =    -0.2091902358D+01 EUMP2 =    -0.67162705467013D+03

 The electronic state is 1-A.
 Alpha  occ. eigenvalues --  -20.60756 -20.60751 -15.85812 -11.31171 -11.27764
 Alpha  occ. eigenvalues --  -11.27760 -11.27481 -11.26751 -11.26739 -11.22012
 Alpha  occ. eigenvalues --  -11.21873 -11.21774 -11.21666 -11.21609 -11.21288
 Alpha  occ. eigenvalues --   -1.59833  -1.39386  -1.19359  -1.08794  -1.08736
 Alpha  occ. eigenvalues --   -1.04767  -1.03893  -0.96363  -0.95575  -0.87384
 Alpha  occ. eigenvalues --   -0.86157  -0.82414  -0.79967  -0.78589  -0.77463
 Alpha  occ. eigenvalues --   -0.72030  -0.71157  -0.70452  -0.65412  -0.65010
 Alpha  occ. eigenvalues --   -0.64765  -0.62114  -0.61293  -0.59738  -0.57964
 Alpha  occ. eigenvalues --   -0.55656  -0.55253  -0.53516  -0.52856  -0.52785
 Alpha  occ. eigenvalues --   -0.52609  -0.50303  -0.48788  -0.48784  -0.48281
 Alpha  occ. eigenvalues --   -0.46992  -0.46136  -0.46051  -0.44794  -0.44155
 Alpha  occ. eigenvalues --   -0.37247  -0.36356
 Alpha virt. eigenvalues --    0.05066   0.11210   0.16508   0.21062   0.22565
 Alpha virt. eigenvalues --    0.24018   0.26235   0.26780   0.27100   0.27520
 Alpha virt. eigenvalues --    0.28775   0.30385   0.31066   0.31710   0.31959

 Mulliken charges:
               1
     1  C   -0.298423
     2  C   -0.300374
     3  C   -0.479380
     4  H    0.149125
     5  H    0.148120
     6  H    0.155217
     7  H    0.152019
     8  H    0.147202
     9  H    0.153637
    10  H    0.165812
    11  C   -0.298564
    12  C   -0.299759
    13  C   -0.475896
    14  H    0.150948
    15  H    0.150085
    16  H    0.151915
    17  H    0.151447
    18  H    0.155509
    19  H    0.156029
    20  H    0.160738
    21  C   -0.163081
    22  C   -0.220594
    23  C   -0.171941
    24  C    0.158272
    25  C   -0.170498
    26  C   -0.220307
    27  H    0.227268
    28  H    0.223999
    29  H    0.275620
    30  H    0.275571
    31  H    0.223316
    32  N    0.488142
    33  O   -0.460597
    34  O   -0.460578
 Sum of Mulliken charges =  -0.00000

 Dipole moment (field-independent basis, Debye):
    X=              3.2287    Y=              4.0909    Z=              0.1132  Tot=              5.2127
 Quadrupole moment (field-independent basis, Debye-Ang):
   XX=           -119.7598   YY=            -96.3762   ZZ=            -89.1167
   XY=            -14.9854   XZ=             -0.5052   YZ=             -0.1979

 Normal termination of Gaussian 16 at Wed May  5 17:06:16 2021.
