 Gaussian 16, Revision A.03,
 Gaussian 16:  EM64L-G16RevA.03 25-Dec-2016

 -------------
 #p 6-31g* mp2
 -------------

 ------------------------------------------------------
 Input file generated by CHIRIPA (05-May-2021 14:53:13)
 ------------------------------------------------------
 Symbolic Z-matrix:
 Charge =  0 Multiplicity = 1

                         Standard orientation:
 ---------------------------------------------------------------------
 Center     Atomic      Atomic             Coordinates (Angstroms)
 Number     Number       Type             X           Y           Z
 ---------------------------------------------------------------------
      1          6           0        2.374964    1.034298   -0.546836
      2          6           0        1.139136    1.120593   -1.443087
      3          6           0        0.471746    2.495525   -1.398980
      4          1           0        2.087708    1.271037    0.486790
      5          1           0        3.096913    1.803379   -0.854566
      6          1           0        0.420316    0.350671   -1.134648
      7          1           0        1.429331    0.883434   -2.474668
      8          1           0        1.169238    3.273010   -1.727039
      9          1           0        0.154489    2.737221   -0.379405
     10          1           0       -0.409490    2.535004   -2.046842
     11          6           0        3.053171   -0.334150   -0.580221
     12          6           0        4.288999   -0.420446    0.316030
     13          6           0        4.956389   -1.795378    0.271923
     14          1           0        2.331221   -1.103232   -0.272491
     15          1           0        3.340427   -0.570889   -1.613848
     16          1           0        3.998804   -0.183287    1.347611
     17          1           0        5.007819    0.349476    0.007591
     18          1           0        5.273645   -2.037074   -0.747652
     19          1           0        4.258897   -2.572863    0.599981
     20          1           0        5.837625   -1.834857    0.919784
     21          6           0       -0.919702    1.137435    2.153035
     22          6           0       -1.846397    1.726277    1.286419
     23          6           0       -2.517549    0.954215    0.333516
     24          6           0       -2.236441   -0.409899    0.274671
     25          6           0       -1.318616   -1.025790    1.124121
     26          6           0       -0.659227   -0.234301    2.069268
     27          1           0       -0.402905    1.744736    2.890260
     28          1           0       -2.050681    2.791345    1.349198
     29          1           0       -3.239787    1.384299   -0.349725
     30          1           0       -1.136017   -2.090018    1.037553
     31          1           0        0.059950   -0.694305    2.740999
     32          7           0       -2.940732   -1.237529   -0.730018
     33          8           0       -2.675310   -2.437191   -0.761607
     34          8           0       -3.744842   -0.670891   -1.466881
 ---------------------------------------------------------------------

 SCF Done:  E(RHF) =  -669.534083449     A.U. after   15 cycles
 E2 =    -0.2095862027D+01 EUMP2 =    -0.67162994547540D+03

 The electronic state is 1-A.
 Alpha  occ. eigenvalues --  -20.60873 -20.60868 -15.85929 -11.31344 -11.27902
 Alpha  occ. eigenvalues --  -11.27881 -11.27652 -11.26963 -11.26911 -11.21928
 Alpha  occ. eigenvalues --  -11.21641 -11.21612 -11.21552 -11.21350 -11.21148
 Alpha  occ. eigenvalues --   -1.59949  -1.39500  -1.19535  -1.08922  -1.08629
 Alpha  occ. eigenvalues --   -1.04938  -1.03720  -0.96187  -0.95736  -0.87213
 Alpha  occ. eigenvalues --   -0.86326  -0.82561  -0.79799  -0.78455  -0.77598
 Alpha  occ. eigenvalues --   -0.72145  -0.71278  -0.70616  -0.65321  -0.65174
 Alpha  occ. eigenvalues --   -0.64919  -0.62274  -0.61205  -0.59556  -0.57796
 Alpha  occ. eigenvalues --   -0.55607  -0.55417  -0.53133  -0.53021  -0.52847
 Alpha  occ. eigenvalues --   -0.52571  -0.50164  -0.48909  -0.48896  -0.48085
 Alpha  occ. eigenvalues --   -0.46875  -0.45988  -0.45934  -0.44891  -0.43986
 Alpha  occ. eigenvalues --   -0.37430  -0.36424
 Alpha virt. eigenvalues --    0.04897   0.10984   0.16336   0.20740   0.22818
 Alpha virt. eigenvalues --    0.23977   0.26107   0.26744   0.26877   0.28311
 Alpha virt. eigenvalues --    0.28553   0.30508   0.31121   0.31452   0.31759

 Mulliken charges:
               1
     1  C   -0.296995
     2  C   -0.302107
     3  C   -0.476699
     4  H    0.143519
     5  H    0.148805
     6  H    0.156813
     7  H    0.153953
     8  H    0.152681
     9  H    0.152046
    10  H    0.159271
    11  C   -0.298384
    12  C   -0.298988
    13  C   -0.475452
    14  H    0.147312
    15  H    0.152631
    16  H    0.146232
    17  H    0.153000
    18  H    0.157642
    19  H    0.153932
    20  H    0.160194
    21  C   -0.171247
    22  C   -0.217740
    23  C   -0.168027
    24  C    0.160533
    25  C   -0.174641
    26  C   -0.215487
    27  H    0.226752
    28  H    0.225339
    29  H    0.276425
    30  H    0.276259
    31  H    0.224519
    32  N    0.487685
    33  O   -0.459891
    34  O   -0.459884
 Sum of Mulliken charges =  -0.00000

 Dipole moment (field-independent basis, Debye):
    X=              2.3480    Y=              2.8647    Z=              3.5483  Tot=              5.1294
 Quadrupole moment (field-independent basis, Debye-Ang):
   XX=           -105.2186   YY=            -95.1068   ZZ=            -92.2679
   XY=             -9.3783   XZ=             -7.0640   YZ=             -2.1096

 Normal termination of Gaussian 16 at Thu May  6 13:44:08 2021.
