 Gaussian 16, Revision A.03,
 Gaussian 16:  EM64L-G16RevA.03 25-Dec-2016

 -------------
 #p 6-31g* mp2
 -------------

 ------------------------------------------------------
 Input file generated by CHIRIPA (05-May-2021 14:55:24)
 ------------------------------------------------------
 Symbolic Z-matrix:
 Charge =  0 Multiplicity = 1

                         Standard orientation:
 ---------------------------------------------------------------------
 Center     Atomic      Atomic             Coordinates (Angstroms)
 Number     Number       Type             X           Y           Z
 ---------------------------------------------------------------------
      1          6           0       -1.633873    2.658386   -0.005923
      2          6           0       -1.221174    1.994889   -1.166084
      3          6           0       -1.574591    0.659980   -1.384398
      4          6           0       -2.344999    0.016161   -0.417309
      5          6           0       -2.771537    0.650006    0.748707
      6          6           0       -2.406375    1.985014    0.946092
      7          1           0       -1.354768    3.695413    0.155540
      8          1           0       -0.621169    2.515334   -1.907148
      9          1           0       -1.268643    0.122312   -2.273626
     10          1           0       -3.368926    0.104811    1.469337
     11          1           0       -2.728303    2.497777    1.848024
     12          7           0       -2.725362   -1.397099   -0.637350
     13          8           0       -3.404705   -1.942025    0.229937
     14          8           0       -2.336947   -1.933128   -1.672939
     15          6           0        2.522494   -0.328756    1.139075
     16          6           0        1.053174   -0.704640    0.944656
     17          6           0        0.268354   -0.720187    2.256758
     18          1           0        2.986702   -1.038683    1.837257
     19          1           0        2.580950    0.660345    1.614110
     20          1           0        0.997521   -1.692134    0.468869
     21          1           0        0.592459    0.006149    0.246707
     22          1           0        0.294121    0.265388    2.732761
     23          1           0        0.701485   -1.442546    2.956185
     24          1           0       -0.779521   -0.991333    2.094594
     25          6           0        3.320220   -0.308898   -0.163602
     26          6           0        4.789539    0.066987    0.030816
     27          6           0        5.574359    0.082533   -1.281285
     28          1           0        3.261765   -1.297998   -0.638637
     29          1           0        2.856011    0.401029   -0.861784
     30          1           0        5.250255   -0.643804    0.728766
     31          1           0        4.845193    1.054480    0.506604
     32          1           0        5.141230    0.804892   -1.980712
     33          1           0        5.548594   -0.903042   -1.757288
     34          1           0        6.622235    0.353678   -1.119121
 ---------------------------------------------------------------------

 SCF Done:  E(RHF) =  -669.533630373     A.U. after   15 cycles
 E2 =    -0.2095759110D+01 EUMP2 =    -0.67162938948263D+03

 The electronic state is 1-A.
 Alpha  occ. eigenvalues --  -20.60855 -20.60848 -15.85893 -11.31220 -11.27845
 Alpha  occ. eigenvalues --  -11.27822 -11.27620 -11.26853 -11.26843 -11.21714
 Alpha  occ. eigenvalues --  -11.21476 -11.21396 -11.21339 -11.21200 -11.20936
 Alpha  occ. eigenvalues --   -1.59920  -1.39475  -1.19468  -1.08847  -1.08451
 Alpha  occ. eigenvalues --   -1.04871  -1.03533  -0.96010  -0.95672  -0.87022
 Alpha  occ. eigenvalues --   -0.86254  -0.82510  -0.79611  -0.78280  -0.77552
 Alpha  occ. eigenvalues --   -0.72116  -0.71252  -0.70573  -0.65109  -0.65101
 Alpha  occ. eigenvalues --   -0.64858  -0.62210  -0.60979  -0.59423  -0.57684
 Alpha  occ. eigenvalues --   -0.55366  -0.55359  -0.53224  -0.52949  -0.52503
 Alpha  occ. eigenvalues --   -0.52387  -0.49952  -0.48878  -0.48871  -0.47939
 Alpha  occ. eigenvalues --   -0.46632  -0.45813  -0.45724  -0.44870  -0.43795
 Alpha  occ. eigenvalues --   -0.37408  -0.36321
 Alpha virt. eigenvalues --    0.04951   0.11111   0.16421   0.21247   0.22886
 Alpha virt. eigenvalues --    0.24245   0.26577   0.26898   0.27366   0.28158
 Alpha virt. eigenvalues --    0.28298   0.30309   0.31435   0.31518   0.31921

 Mulliken charges:
               1
     1  C   -0.170844
     2  C   -0.217873
     3  C   -0.176688
     4  C    0.167041
     5  C   -0.171526
     6  C   -0.216331
     7  H    0.226139
     8  H    0.223897
     9  H    0.276308
    10  H    0.276008
    11  H    0.224089
    12  N    0.488540
    13  O   -0.461156
    14  O   -0.459582
    15  C   -0.296865
    16  C   -0.310996
    17  C   -0.475119
    18  H    0.150493
    19  H    0.145813
    20  H    0.156656
    21  H    0.158619
    22  H    0.149003
    23  H    0.155624
    24  H    0.161240
    25  C   -0.297358
    26  C   -0.299496
    27  C   -0.475465
    28  H    0.152647
    29  H    0.143861
    30  H    0.153346
    31  H    0.150012
    32  H    0.152768
    33  H    0.156808
    34  H    0.160384
 Sum of Mulliken charges =  -0.00000

 Dipole moment (field-independent basis, Debye):
    X=              1.2286    Y=              4.9591    Z=              0.7242  Tot=              5.1601
 Quadrupole moment (field-independent basis, Debye-Ang):
   XX=           -100.9865   YY=            -94.1597   ZZ=            -92.6982
   XY=            -12.2369   XZ=             -4.3094   YZ=             -2.1146

 Normal termination of Gaussian 16 at Thu May  6 14:22:09 2021.
