 Gaussian 16, Revision A.03,
 Gaussian 16:  EM64L-G16RevA.03 25-Dec-2016

 -------------
 #p 6-31g* mp2
 -------------

 ------------------------------------------------------
 Input file generated by CHIRIPA (05-May-2021 14:53:12)
 ------------------------------------------------------
 Symbolic Z-matrix:
 Charge =  0 Multiplicity = 1

                         Standard orientation:
 ---------------------------------------------------------------------
 Center     Atomic      Atomic             Coordinates (Angstroms)
 Number     Number       Type             X           Y           Z
 ---------------------------------------------------------------------
      1          6           0       -3.290607   -0.121036    1.036299
      2          6           0       -2.247649   -1.203002    1.318388
      3          6           0       -1.749878   -1.181721    2.763921
      4          1           0       -2.858695    0.863478    1.262414
      5          1           0       -4.140663   -0.253883    1.719784
      6          1           0       -1.400431   -1.068992    0.633641
      7          1           0       -2.682031   -2.185041    1.091392
      8          1           0       -2.580533   -1.338095    3.459737
      9          1           0       -1.291652   -0.215704    2.999385
     10          1           0       -1.005086   -1.963296    2.943599
     11          6           0       -3.797863   -0.129548   -0.404655
     12          6           0       -4.840821    0.952418   -0.686745
     13          6           0       -5.338593    0.931136   -2.132277
     14          1           0       -2.947808    0.003298   -1.088140
     15          1           0       -4.229775   -1.114062   -0.630771
     16          1           0       -4.406440    1.934457   -0.459749
     17          1           0       -5.688039    0.818407   -0.001997
     18          1           0       -5.796818   -0.034880   -2.367741
     19          1           0       -4.507937    1.087511   -2.828093
     20          1           0       -6.083385    1.712712   -2.311956
     21          6           0        2.485329   -2.256091   -1.109460
     22          6           0        3.754200   -1.668009   -1.083996
     23          6           0        3.923135   -0.364351   -0.608092
     24          6           0        2.796352    0.325458   -0.163331
     25          6           0        1.519171   -0.233056   -0.176076
     26          6           0        1.373825   -1.538003   -0.656217
     27          1           0        2.363259   -3.269304   -1.480800
     28          1           0        4.619201   -2.223313   -1.435359
     29          1           0        4.894005    0.115104   -0.577238
     30          1           0        0.675767    0.345486    0.180823
     31          1           0        0.387203   -1.992180   -0.674826
     32          7           0        2.962709    1.706265    0.342730
     33          8           0        1.954080    2.292891    0.728960
     34          8           0        4.098580    2.175768    0.343570
 ---------------------------------------------------------------------

 SCF Done:  E(RHF) =  -669.535198466     A.U. after   15 cycles
 E2 =    -0.2092027214D+01 EUMP2 =    -0.67162722568044D+03

 The electronic state is 1-A.
 Alpha  occ. eigenvalues --  -20.60767 -20.60762 -15.85819 -11.31169 -11.27736
 Alpha  occ. eigenvalues --  -11.27722 -11.27470 -11.26751 -11.26706 -11.22382
 Alpha  occ. eigenvalues --  -11.21879 -11.21847 -11.21790 -11.21535 -11.21286
 Alpha  occ. eigenvalues --   -1.59841  -1.39396  -1.19338  -1.08904  -1.08734
 Alpha  occ. eigenvalues --   -1.04747  -1.03970  -0.96378  -0.95575  -0.87396
 Alpha  occ. eigenvalues --   -0.86138  -0.82422  -0.80074  -0.78718  -0.77452
 Alpha  occ. eigenvalues --   -0.72039  -0.71163  -0.70458  -0.65570  -0.64983
 Alpha  occ. eigenvalues --   -0.64748  -0.62218  -0.61256  -0.59754  -0.57998
 Alpha  occ. eigenvalues --   -0.55651  -0.55236  -0.53090  -0.53062  -0.52844
 Alpha  occ. eigenvalues --   -0.52783  -0.50317  -0.48798  -0.48795  -0.48352
 Alpha  occ. eigenvalues --   -0.47107  -0.46239  -0.46152  -0.44805  -0.44218
 Alpha  occ. eigenvalues --   -0.37318  -0.36337
 Alpha virt. eigenvalues --    0.05067   0.11308   0.16540   0.19468   0.22703
 Alpha virt. eigenvalues --    0.23876   0.25313   0.26302   0.27622   0.28142
 Alpha virt. eigenvalues --    0.29553   0.29834   0.31276   0.31504   0.32540

 Mulliken charges:
               1
     1  C   -0.299757
     2  C   -0.306349
     3  C   -0.477358
     4  H    0.155627
     5  H    0.152884
     6  H    0.142007
     7  H    0.152418
     8  H    0.158688
     9  H    0.162137
    10  H    0.160018
    11  C   -0.298208
    12  C   -0.300454
    13  C   -0.476131
    14  H    0.145735
    15  H    0.148842
    16  H    0.155716
    17  H    0.153001
    18  H    0.154383
    19  H    0.155584
    20  H    0.162207
    21  C   -0.170793
    22  C   -0.218659
    23  C   -0.170953
    24  C    0.159045
    25  C   -0.173878
    26  C   -0.222192
    27  H    0.225696
    28  H    0.223370
    29  H    0.275474
    30  H    0.276881
    31  H    0.228048
    32  N    0.488570
    33  O   -0.461265
    34  O   -0.460336
 Sum of Mulliken charges =  -0.00000

 Dipole moment (field-independent basis, Debye):
    X=             -0.7262    Y=             -4.8069    Z=             -1.6921  Tot=              5.1475
 Quadrupole moment (field-independent basis, Debye-Ang):
   XX=            -92.2392   YY=            -98.1609   ZZ=            -95.4665
   XY=            -13.9626   XZ=             -6.8637   YZ=              0.2646

 Normal termination of Gaussian 16 at Wed May  5 16:59:07 2021.
