 Gaussian 16, Revision A.03,
 Gaussian 16:  EM64L-G16RevA.03 25-Dec-2016

 -------------
 #p 6-31g* mp2
 -------------

 ------------------------------------------------------
 Input file generated by CHIRIPA (05-May-2021 14:53:16)
 ------------------------------------------------------
 Symbolic Z-matrix:
 Charge =  0 Multiplicity = 1

                         Standard orientation:
 ---------------------------------------------------------------------
 Center     Atomic      Atomic             Coordinates (Angstroms)
 Number     Number       Type             X           Y           Z
 ---------------------------------------------------------------------
      1          6           0        3.803898   -0.307339   -0.109102
      2          6           0        4.978108   -0.654957    0.806527
      3          6           0        5.507892   -2.070712    0.576826
      4          1           0        2.995096   -1.033455    0.050713
      5          1           0        4.119505   -0.416380   -1.155953
      6          1           0        4.660786   -0.543956    1.851324
      7          1           0        5.784134    0.072184    0.644651
      8          1           0        5.851050   -2.190799   -0.455851
      9          1           0        4.721320   -2.810441    0.757679
     10          1           0        6.346922   -2.298198    1.241761
     11          6           0        3.263269    1.104765    0.108637
     12          6           0        2.089058    1.452383   -0.806992
     13          6           0        1.559275    2.868137   -0.577291
     14          1           0        2.947661    1.213805    1.155488
     15          1           0        4.072070    1.830881   -0.051178
     16          1           0        1.283033    0.725241   -0.645116
     17          1           0        2.406380    1.341382   -1.851789
     18          1           0        2.345846    3.607866   -0.758144
     19          1           0        1.216116    2.988224    0.455386
     20          1           0        0.720244    3.095624   -1.242226
     21          6           0       -3.023852    2.115075    0.639235
     22          6           0       -2.151712    1.753662   -0.392886
     23          6           0       -1.997936    0.412226   -0.755446
     24          6           0       -2.735163   -0.546086   -0.061600
     25          6           0       -3.611987   -0.217578    0.971140
     26          6           0       -3.749926    1.130038    1.316759
     27          1           0       -3.137157    3.159535    0.914301
     28          1           0       -1.586556    2.516519   -0.920800
     29          1           0       -1.329716    0.104572   -1.550587
     30          1           0       -4.161893   -1.000547    1.479058
     31          1           0       -4.427970    1.407795    2.118728
     32          7           0       -2.580750   -1.969475   -0.436459
     33          8           0       -3.241619   -2.794740    0.190300
     34          8           0       -1.801776   -2.232911   -1.349935
 ---------------------------------------------------------------------

 SCF Done:  E(RHF) =  -669.535313225     A.U. after   15 cycles
 E2 =    -0.2091994201D+01 EUMP2 =    -0.67162730742545D+03

 The electronic state is 1-A.
 Alpha  occ. eigenvalues --  -20.60774 -20.60769 -15.85827 -11.31189 -11.27754
 Alpha  occ. eigenvalues --  -11.27736 -11.27480 -11.26775 -11.26724 -11.22079
 Alpha  occ. eigenvalues --  -11.21853 -11.21655 -11.21608 -11.21417 -11.20977
 Alpha  occ. eigenvalues --   -1.59850  -1.39403  -1.19358  -1.08753  -1.08646
 Alpha  occ. eigenvalues --   -1.04762  -1.03799  -0.96263  -0.95588  -0.87289
 Alpha  occ. eigenvalues --   -0.86148  -0.82419  -0.79880  -0.78408  -0.77471
 Alpha  occ. eigenvalues --   -0.72044  -0.71175  -0.70462  -0.65278  -0.65004
 Alpha  occ. eigenvalues --   -0.64782  -0.62188  -0.61160  -0.59658  -0.57853
 Alpha  occ. eigenvalues --   -0.55541  -0.55242  -0.53195  -0.53072  -0.52802
 Alpha  occ. eigenvalues --   -0.52524  -0.50171  -0.48803  -0.48800  -0.48183
 Alpha  occ. eigenvalues --   -0.46888  -0.45960  -0.45849  -0.44809  -0.44040
 Alpha  occ. eigenvalues --   -0.37335  -0.36340
 Alpha virt. eigenvalues --    0.05026   0.11243   0.16464   0.20094   0.22902
 Alpha virt. eigenvalues --    0.24006   0.26020   0.26267   0.26864   0.28398
 Alpha virt. eigenvalues --    0.28971   0.29611   0.31246   0.31550   0.32493

 Mulliken charges:
               1
     1  C   -0.299845
     2  C   -0.299945
     3  C   -0.476205
     4  H    0.154775
     5  H    0.150560
     6  H    0.151736
     7  H    0.150992
     8  H    0.155687
     9  H    0.158132
    10  H    0.160052
    11  C   -0.298429
    12  C   -0.303925
    13  C   -0.476926
    14  H    0.150051
    15  H    0.149858
    16  H    0.153881
    17  H    0.154183
    18  H    0.159206
    19  H    0.156587
    20  H    0.148649
    21  C   -0.172652
    22  C   -0.219005
    23  C   -0.173891
    24  C    0.158055
    25  C   -0.171314
    26  C   -0.218311
    27  H    0.226049
    28  H    0.229264
    29  H    0.276737
    30  H    0.275504
    31  H    0.223380
    32  N    0.488061
    33  O   -0.460507
    34  O   -0.460443
 Sum of Mulliken charges =  -0.00000

 Dipole moment (field-independent basis, Debye):
    X=             -0.4438    Y=              4.9535    Z=              1.3604  Tot=              5.1561
 Quadrupole moment (field-independent basis, Debye-Ang):
   XX=            -89.5370   YY=           -101.4900   ZZ=            -92.4221
   XY=            -12.0113   XZ=             -6.8340   YZ=             -2.2494

 Normal termination of Gaussian 16 at Wed May  5 20:21:29 2021.
