 Gaussian 16, Revision A.03,
 Gaussian 16:  EM64L-G16RevA.03 25-Dec-2016

 -------------
 #p 6-31g* mp2
 -------------

 ------------------------------------------------------
 Input file generated by CHIRIPA (05-May-2021 14:57:24)
 ------------------------------------------------------
 Symbolic Z-matrix:
 Charge =  0 Multiplicity = 1

                         Standard orientation:
 ---------------------------------------------------------------------
 Center     Atomic      Atomic             Coordinates (Angstroms)
 Number     Number       Type             X           Y           Z
 ---------------------------------------------------------------------
      1          6           0        0.799638   -1.916753    1.915322
      2          6           0        1.174474   -2.341308    0.636349
      3          6           0        1.757661   -1.446904   -0.266137
      4          6           0        1.952283   -0.129303    0.145373
      5          6           0        1.589536    0.323966    1.412753
      6          6           0        1.007998   -0.587814    2.298766
      7          1           0        0.347244   -2.618296    2.609997
      8          1           0        1.013859   -3.372782    0.335836
      9          1           0        2.057298   -1.748867   -1.262357
     10          1           0        1.762288    1.358480    1.683594
     11          1           0        0.717886   -0.255299    3.291396
     12          7           0        2.568804    0.826760   -0.801330
     13          8           0        2.729592    1.982258   -0.414537
     14          8           0        2.879572    0.402521   -1.912222
     15          6           0       -1.762890    2.471266    0.958221
     16          6           0       -2.097349    1.289832    1.628200
     17          6           0       -2.149061    0.073792    0.940364
     18          6           0       -1.859159    0.075695   -0.423176
     19          6           0       -1.522705    1.235991   -1.118734
     20          6           0       -1.477139    2.440629   -0.410695
     21          1           0       -1.725106    3.411487    1.500395
     22          1           0       -2.319748    1.310627    2.691286
     23          1           0       -2.405145   -0.855654    1.434297
     24          1           0       -1.306076    1.183660   -2.178806
     25          1           0       -1.217095    3.356593   -0.933603
     26          7           0       -1.910651   -1.205637   -1.162051
     27          8           0       -1.650967   -1.177279   -2.363049
     28          8           0       -2.209720   -2.214041   -0.526192
 ---------------------------------------------------------------------

 SCF Done:  E(RHF) =  -868.337737882     A.U. after   16 cycles
 E2 =    -0.2607309582D+01 EUMP2 =    -0.87094504746450D+03

 The electronic state is 1-A.
 Alpha  occ. eigenvalues --  -20.61063 -20.61019 -20.60829 -20.60787 -15.86066
 Alpha  occ. eigenvalues --  -15.85850 -11.31284 -11.31107 -11.27933 -11.27784
 Alpha  occ. eigenvalues --  -11.27673 -11.27587 -11.27511 -11.27319 -11.26910
 Alpha  occ. eigenvalues --  -11.26756 -11.26730 -11.26509  -1.60105  -1.59887
 Alpha  occ. eigenvalues --   -1.39665  -1.39441  -1.19519  -1.19214  -1.08890
 Alpha  occ. eigenvalues --   -1.08679  -1.04879  -1.04603  -0.95755  -0.95524
 Alpha  occ. eigenvalues --   -0.86263  -0.86024  -0.82592  -0.82352  -0.77661
 Alpha  occ. eigenvalues --   -0.77408  -0.72311  -0.72073  -0.71481  -0.71169
 Alpha  occ. eigenvalues --   -0.70594  -0.70341  -0.65130  -0.64897  -0.64867
 Alpha  occ. eigenvalues --   -0.64606  -0.62218  -0.61950  -0.55376  -0.55131
 Alpha  occ. eigenvalues --   -0.54112  -0.52954  -0.52692  -0.52068  -0.49074
 Alpha  occ. eigenvalues --   -0.49052  -0.48836  -0.48820  -0.45123  -0.44870
 Alpha  occ. eigenvalues --   -0.37846  -0.37417  -0.36534  -0.35444
 Alpha virt. eigenvalues --    0.04702   0.05250   0.11154   0.11371   0.16188
 Alpha virt. eigenvalues --    0.16843   0.20793   0.21987   0.26732   0.27526
 Alpha virt. eigenvalues --    0.28188   0.28855   0.30193   0.31663   0.32550

 Mulliken charges:
               1
     1  C   -0.174434
     2  C   -0.212379
     3  C   -0.178852
     4  C    0.157963
     5  C   -0.165993
     6  C   -0.217418
     7  H    0.225630
     8  H    0.233298
     9  H    0.281095
    10  H    0.270298
    11  H    0.216314
    12  N    0.487297
    13  O   -0.465747
    14  O   -0.457308
    15  C   -0.173220
    16  C   -0.221697
    17  C   -0.162515
    18  C    0.160460
    19  C   -0.175856
    20  C   -0.215408
    21  H    0.226197
    22  H    0.217917
    23  H    0.268935
    24  H    0.280628
    25  H    0.230431
    26  N    0.489101
    27  O   -0.457834
    28  O   -0.466903
 Sum of Mulliken charges =  -0.00000

 Dipole moment (field-independent basis, Debye):
    X=             -1.9629    Y=              1.0609    Z=              5.6972  Tot=              6.1185
 Quadrupole moment (field-independent basis, Debye-Ang):
   XX=           -115.6403   YY=            -99.7016   ZZ=           -100.9287
   XY=            -14.8468   XZ=             -0.2119   YZ=             -2.2751

 Normal termination of Gaussian 16 at Thu May  6 16:22:55 2021.
