 Gaussian 16, Revision A.03,
 Gaussian 16:  EM64L-G16RevA.03 25-Dec-2016

 -------------
 #p 6-31g* mp2
 -------------

 ------------------------------------------------------
 Input file generated by CHIRIPA (05-May-2021 14:51:09)
 ------------------------------------------------------
 Symbolic Z-matrix:
 Charge =  0 Multiplicity = 1

                         Standard orientation:
 ---------------------------------------------------------------------
 Center     Atomic      Atomic             Coordinates (Angstroms)
 Number     Number       Type             X           Y           Z
 ---------------------------------------------------------------------
      1          6           0       -4.373144   -0.510158    0.253592
      2          6           0       -5.394537    0.085938   -0.715640
      3          6           0       -6.773834   -0.562454   -0.593479
      4          1           0       -4.289770   -1.590105    0.069995
      5          1           0       -4.743429   -0.395571    1.281772
      6          1           0       -5.021796   -0.028500   -1.741595
      7          1           0       -5.475348    1.164624   -0.529842
      8          1           0       -7.170577   -0.436142    0.419063
      9          1           0       -6.714448   -1.636045   -0.799575
     10          1           0       -7.488419   -0.121283   -1.295331
     11          6           0       -2.989419    0.127728    0.143432
     12          6           0       -1.968026   -0.468367    1.112664
     13          6           0       -0.588729    0.180024    0.990503
     14          1           0       -2.619134    0.013141   -0.884748
     15          1           0       -3.072792    1.207675    0.327029
     16          1           0       -1.887215   -1.547054    0.926866
     17          1           0       -2.340766   -0.353929    2.138619
     18          1           0       -0.648114    1.253616    1.196599
     19          1           0       -0.191986    0.053712   -0.022039
     20          1           0        0.125856   -0.261146    1.692355
     21          6           0        4.202524   -0.315159    0.036694
     22          6           0        4.012358   -1.706535   -0.568200
     23          6           0        5.062794   -2.708472   -0.088096
     24          1           0        5.205896    0.053752   -0.216477
     25          1           0        4.164578   -0.390939    1.132237
     26          1           0        4.049270   -1.627948   -1.662310
     27          1           0        3.009252   -2.072096   -0.313720
     28          1           0        5.022990   -2.816382    1.000652
     29          1           0        6.068916   -2.369710   -0.355600
     30          1           0        4.908044   -3.696463   -0.532825
     31          6           0        3.160038    0.697589   -0.433718
     32          6           0        3.350205    2.088964    0.171176
     33          6           0        2.299769    3.090901   -0.308928
     34          1           0        3.197985    0.773368   -1.529261
     35          1           0        2.156666    0.328677   -0.180547
     36          1           0        4.353311    2.454526   -0.083303
     37          1           0        3.313293    2.010376    1.265286
     38          1           0        1.293646    2.752139   -0.041423
     39          1           0        2.339573    3.198812   -1.397676
     40          1           0        2.454519    4.078893    0.135802
 ---------------------------------------------------------------------

 SCF Done:  E(RHF) =  -470.732822729     A.U. after   11 cycles
 E2 =    -0.1583304074D+01 EUMP2 =    -0.47231612680365D+03

 The electronic state is 1-A.
 Alpha  occ. eigenvalues --  -11.21683 -11.21628 -11.21553 -11.21488 -11.21454
 Alpha  occ. eigenvalues --  -11.21392 -11.21300 -11.21200 -11.21185 -11.21092
 Alpha  occ. eigenvalues --  -11.21036 -11.20948  -1.08487  -1.08331  -1.03602
 Alpha  occ. eigenvalues --   -1.03441  -0.96057  -0.95891  -0.87085  -0.86908
 Alpha  occ. eigenvalues --   -0.79707  -0.79485  -0.78314  -0.78119  -0.65128
 Alpha  occ. eigenvalues --   -0.64961  -0.61000  -0.60851  -0.59420  -0.59265
 Alpha  occ. eigenvalues --   -0.57664  -0.57505  -0.55463  -0.55079  -0.52773
 Alpha  occ. eigenvalues --   -0.52597  -0.52490  -0.52317  -0.50114  -0.49720
 Alpha  occ. eigenvalues --   -0.48090  -0.47760  -0.46725  -0.46530  -0.45931
 Alpha  occ. eigenvalues --   -0.45770  -0.45657  -0.45377  -0.43822  -0.43690
 Alpha virt. eigenvalues --    0.21514   0.22941   0.23835   0.24524   0.25879
 Alpha virt. eigenvalues --    0.26380   0.27094   0.27510   0.27940   0.29415
 Alpha virt. eigenvalues --    0.30424   0.31077   0.31809   0.32009   0.32117

 Mulliken charges:
               1
     1  C   -0.298359
     2  C   -0.299709
     3  C   -0.475746
     4  H    0.149748
     5  H    0.149620
     6  H    0.152073
     7  H    0.152075
     8  H    0.155213
     9  H    0.155218
    10  H    0.160393
    11  C   -0.298759
    12  C   -0.300035
    13  C   -0.480752
    14  H    0.150060
    15  H    0.149847
    16  H    0.152286
    17  H    0.152192
    18  H    0.157241
    19  H    0.158484
    20  H    0.160349
    21  C   -0.297430
    22  C   -0.299706
    23  C   -0.475580
    24  H    0.149204
    25  H    0.148877
    26  H    0.151645
    27  H    0.151559
    28  H    0.155019
    29  H    0.155168
    30  H    0.159926
    31  C   -0.308975
    32  C   -0.298110
    33  C   -0.480138
    34  H    0.148002
    35  H    0.162794
    36  H    0.151215
    37  H    0.151323
    38  H    0.159970
    39  H    0.154438
    40  H    0.159363
 Sum of Mulliken charges =  -0.00000

 Dipole moment (field-independent basis, Debye):
    X=             -0.0854    Y=             -0.0155    Z=              0.0128  Tot=              0.0877
 Quadrupole moment (field-independent basis, Debye-Ang):
   XX=            -86.1710   YY=            -85.2087   ZZ=            -83.7517
   XY=              0.0928   XZ=             -0.8357   YZ=              0.5200

 Normal termination of Gaussian 16 at Wed May  5 19:45:35 2021.
