 Gaussian 16, Revision A.03,
 Gaussian 16:  EM64L-G16RevA.03 25-Dec-2016

 -------------
 #p 6-31g* mp2
 -------------

 ------------------------------------------------------
 Input file generated by CHIRIPA (05-May-2021 14:57:26)
 ------------------------------------------------------
 Symbolic Z-matrix:
 Charge =  0 Multiplicity = 1

                         Standard orientation:
 ---------------------------------------------------------------------
 Center     Atomic      Atomic             Coordinates (Angstroms)
 Number     Number       Type             X           Y           Z
 ---------------------------------------------------------------------
      1          6           0       -1.793319    2.306934   -1.321369
      2          6           0       -1.139437    1.086570   -1.520546
      3          6           0       -1.578198   -0.068949   -0.867238
      4          6           0       -2.678958    0.032515   -0.017931
      5          6           0       -3.351462    1.233789    0.201091
      6          6           0       -2.895301    2.376526   -0.462700
      7          1           0       -1.445720    3.199605   -1.832946
      8          1           0       -0.283361    1.029553   -2.186826
      9          1           0       -1.090537   -1.026601   -1.003279
     10          1           0       -4.202085    1.259315    0.871319
     11          1           0       -3.405059    3.322926   -0.306113
     12          7           0       -3.152665   -1.184015    0.679246
     13          8           0       -4.124762   -1.068190    1.422380
     14          8           0       -2.542890   -2.230322    0.469357
     15          6           0        3.192180    1.632819    1.724990
     16          6           0        2.582547    0.469276    2.205655
     17          6           0        2.250505   -0.570954    1.332605
     18          6           0        2.543722   -0.413396   -0.021089
     19          6           0        3.150505    0.733622   -0.530456
     20          6           0        3.473717    1.761052    0.360873
     21          1           0        3.446690    2.435923    2.410297
     22          1           0        2.362727    0.366934    3.264546
     23          1           0        1.778010   -1.482536    1.677834
     24          1           0        3.357242    0.806604   -1.591282
     25          1           0        3.947110    2.663540   -0.015235
     26          7           0        2.196877   -1.507865   -0.955024
     27          8           0        2.465663   -1.344541   -2.143181
     28          8           0        1.662801   -2.508312   -0.481202
 ---------------------------------------------------------------------

 SCF Done:  E(RHF) =  -868.338359581     A.U. after   16 cycles
 E2 =    -0.2600873069D+01 EUMP2 =    -0.87093923264983D+03

 The electronic state is 1-A.
 Alpha  occ. eigenvalues --  -20.61388 -20.61319 -20.60465 -20.60425 -15.86365
 Alpha  occ. eigenvalues --  -15.85499 -11.31625 -11.30920 -11.28233 -11.28103
 Alpha  occ. eigenvalues --  -11.27892 -11.27543 -11.27397 -11.27294 -11.27203
 Alpha  occ. eigenvalues --  -11.27106 -11.26584 -11.26483  -1.60434  -1.59532
 Alpha  occ. eigenvalues --   -1.39978  -1.39076  -1.19786  -1.19108  -1.09206
 Alpha  occ. eigenvalues --   -1.08505  -1.05163  -1.04511  -0.96052  -0.95323
 Alpha  occ. eigenvalues --   -0.86569  -0.85906  -0.82874  -0.82143  -0.77944
 Alpha  occ. eigenvalues --   -0.77171  -0.72562  -0.71822  -0.71682  -0.70883
 Alpha  occ. eigenvalues --   -0.70865  -0.70203  -0.65433  -0.65157  -0.64757
 Alpha  occ. eigenvalues --   -0.64508  -0.62503  -0.61824  -0.55665  -0.55036
 Alpha  occ. eigenvalues --   -0.53537  -0.53245  -0.52830  -0.52589  -0.49354
 Alpha  occ. eigenvalues --   -0.49326  -0.48493  -0.48455  -0.45378  -0.44470
 Alpha  occ. eigenvalues --   -0.37792  -0.37135  -0.36744  -0.36088
 Alpha virt. eigenvalues --    0.04529   0.05337   0.10745   0.11626   0.16048
 Alpha virt. eigenvalues --    0.16807   0.20969   0.21662   0.26788   0.27208
 Alpha virt. eigenvalues --    0.28162   0.28494   0.30654   0.31058   0.32068

 Mulliken charges:
               1
     1  C   -0.171385
     2  C   -0.221230
     3  C   -0.179322
     4  C    0.156685
     5  C   -0.171954
     6  C   -0.219261
     7  H    0.222898
     8  H    0.227229
     9  H    0.288555
    10  H    0.274122
    11  H    0.221232
    12  N    0.486487
    13  O   -0.463986
    14  O   -0.454122
    15  C   -0.170101
    16  C   -0.218039
    17  C   -0.170509
    18  C    0.156412
    19  C   -0.175260
    20  C   -0.218674
    21  H    0.226846
    22  H    0.227076
    23  H    0.282520
    24  H    0.272961
    25  H    0.222923
    26  N    0.483215
    27  O   -0.464062
    28  O   -0.451257
 Sum of Mulliken charges =  -0.00000

 Dipole moment (field-independent basis, Debye):
    X=              3.0382    Y=              7.9436    Z=              0.9832  Tot=              8.5614
 Quadrupole moment (field-independent basis, Debye-Ang):
   XX=           -105.7325   YY=           -105.6268   ZZ=           -101.7726
   XY=             -3.0140   XZ=             12.1232   YZ=             -2.5468

 Normal termination of Gaussian 16 at Thu May  6 08:21:49 2021.
