 Gaussian 16, Revision A.03,
 Gaussian 16:  EM64L-G16RevA.03 25-Dec-2016

 -------------
 #p 6-31g* mp2
 -------------

 ------------------------------------------------------
 Input file generated by CHIRIPA (05-May-2021 14:51:13)
 ------------------------------------------------------
 Symbolic Z-matrix:
 Charge =  0 Multiplicity = 1

                         Standard orientation:
 ---------------------------------------------------------------------
 Center     Atomic      Atomic             Coordinates (Angstroms)
 Number     Number       Type             X           Y           Z
 ---------------------------------------------------------------------
      1          6           0       -4.014604    0.233314   -0.210272
      2          6           0       -5.502429    0.078231    0.106449
      3          6           0       -6.359164    1.174627   -0.527361
      4          1           0       -3.672222    1.216680    0.140030
      5          1           0       -3.875992    0.224140   -1.300271
      6          1           0       -5.638041    0.086306    1.195559
      7          1           0       -5.841264   -0.904957   -0.244475
      8          1           0       -6.253432    1.164574   -1.617003
      9          1           0       -6.049054    2.161469   -0.168787
     10          1           0       -7.419207    1.044446   -0.288152
     11          6           0       -3.145138   -0.855293    0.416379
     12          6           0       -1.657313   -0.700210    0.099658
     13          6           0       -0.800578   -1.796606    0.733468
     14          1           0       -3.283750   -0.846119    1.506378
     15          1           0       -3.487520   -1.838659    0.066078
     16          1           0       -1.318478    0.282978    0.450583
     17          1           0       -1.521701   -0.708285   -0.989451
     18          1           0       -1.110688   -2.783448    0.374894
     19          1           0       -0.906310   -1.786553    1.823111
     20          1           0        0.259466   -1.666425    0.494259
     21          6           0        3.301419    0.982907   -0.336343
     22          6           0        3.766745    2.161962    0.518808
     23          6           0        3.201316    3.499295    0.039615
     24          1           0        3.598315    1.155339   -1.379926
     25          1           0        2.203391    0.942506   -0.326354
     26          1           0        4.863610    2.199295    0.508330
     27          1           0        3.468875    1.986612    1.560509
     28          1           0        2.106917    3.486740    0.066734
     29          1           0        3.509577    3.700632   -0.991422
     30          1           0        3.546689    4.328415    0.665026
     31          6           0        3.858323   -0.360927    0.130236
     32          6           0        3.392997   -1.539983   -0.724915
     33          6           0        3.958426   -2.877316   -0.245723
     34          1           0        4.956350   -0.320526    0.120247
     35          1           0        3.561427   -0.533360    1.173818
     36          1           0        3.690867   -1.364633   -1.766617
     37          1           0        2.296132   -1.577316   -0.714438
     38          1           0        3.650165   -3.078653    0.785315
     39          1           0        5.052824   -2.864761   -0.272843
     40          1           0        3.613053   -3.706436   -0.871133
 ---------------------------------------------------------------------

 SCF Done:  E(RHF) =  -470.733370038     A.U. after   11 cycles
 E2 =    -0.1582650753D+01 EUMP2 =    -0.47231602079120D+03

 The electronic state is 1-A.
 Alpha  occ. eigenvalues --  -11.21658 -11.21621 -11.21600 -11.21592 -11.21438
 Alpha  occ. eigenvalues --  -11.21403 -11.21377 -11.21343 -11.21119 -11.21085
 Alpha  occ. eigenvalues --  -11.21070 -11.21057  -1.08466  -1.08428  -1.03573
 Alpha  occ. eigenvalues --   -1.03521  -0.96018  -0.95972  -0.87042  -0.86982
 Alpha  occ. eigenvalues --   -0.79649  -0.79571  -0.78276  -0.78242  -0.65094
 Alpha  occ. eigenvalues --   -0.65081  -0.60985  -0.60946  -0.59422  -0.59290
 Alpha  occ. eigenvalues --   -0.57636  -0.57573  -0.55306  -0.55252  -0.52751
 Alpha  occ. eigenvalues --   -0.52653  -0.52455  -0.52382  -0.49953  -0.49912
 Alpha  occ. eigenvalues --   -0.48021  -0.47843  -0.46661  -0.46612  -0.45816
 Alpha  occ. eigenvalues --   -0.45778  -0.45745  -0.45694  -0.43804  -0.43763
 Alpha virt. eigenvalues --    0.20421   0.23051   0.23905   0.24588   0.26186
 Alpha virt. eigenvalues --    0.26643   0.27155   0.27614   0.27958   0.29103
 Alpha virt. eigenvalues --    0.30403   0.31405   0.31722   0.31830   0.31944

 Mulliken charges:
               1
     1  C   -0.298318
     2  C   -0.299693
     3  C   -0.475734
     4  H    0.149634
     5  H    0.149689
     6  H    0.151948
     7  H    0.152005
     8  H    0.155254
     9  H    0.155221
    10  H    0.160325
    11  C   -0.298383
    12  C   -0.299479
    13  C   -0.483698
    14  H    0.149628
    15  H    0.149882
    16  H    0.151413
    17  H    0.152387
    18  H    0.155767
    19  H    0.155353
    20  H    0.166964
    21  C   -0.299197
    22  C   -0.299643
    23  C   -0.475680
    24  H    0.149738
    25  H    0.150115
    26  H    0.151965
    27  H    0.151943
    28  H    0.155147
    29  H    0.155226
    30  H    0.160198
    31  C   -0.298299
    32  C   -0.306842
    33  C   -0.475546
    34  H    0.149704
    35  H    0.149818
    36  H    0.152289
    37  H    0.157775
    38  H    0.155585
    39  H    0.155202
    40  H    0.160340
 Sum of Mulliken charges =  -0.00000

 Dipole moment (field-independent basis, Debye):
    X=             -0.0094    Y=             -0.0068    Z=             -0.0037  Tot=              0.0121
 Quadrupole moment (field-independent basis, Debye-Ang):
   XX=            -84.7458   YY=            -86.0337   ZZ=            -83.8986
   XY=              1.0568   XZ=             -0.7629   YZ=              0.9344

 Normal termination of Gaussian 16 at Thu May  6 03:57:29 2021.
