 Gaussian 16, Revision A.03,
 Gaussian 16:  EM64L-G16RevA.03 25-Dec-2016

 -------------
 #p 6-31g* mp2
 -------------

 ------------------------------------------------------
 Input file generated by CHIRIPA (05-May-2021 14:53:16)
 ------------------------------------------------------
 Symbolic Z-matrix:
 Charge =  0 Multiplicity = 1

                         Standard orientation:
 ---------------------------------------------------------------------
 Center     Atomic      Atomic             Coordinates (Angstroms)
 Number     Number       Type             X           Y           Z
 ---------------------------------------------------------------------
      1          6           0        4.156058    0.641542   -0.135203
      2          6           0        2.751097    0.353647   -0.665473
      3          6           0        1.890945    1.613003   -0.774816
      4          1           0        4.078059    1.120732    0.850311
      5          1           0        4.648822    1.366907   -0.797338
      6          1           0        2.261636   -0.372009   -0.003305
      7          1           0        2.832454   -0.125087   -1.649755
      8          1           0        2.354189    2.338369   -1.451462
      9          1           0        1.780129    2.090044    0.204343
     10          1           0        0.890789    1.384221   -1.155877
     11          6           0        5.027953   -0.607583   -0.020255
     12          6           0        6.432914   -0.319688    0.510016
     13          6           0        7.293066   -1.579044    0.619358
     14          1           0        4.535189   -1.332948    0.641881
     15          1           0        5.105952   -1.086773   -1.005769
     16          1           0        6.351558    0.159046    1.494297
     17          1           0        6.922375    0.405969   -0.152152
     18          1           0        7.403883   -2.056085   -0.359801
     19          1           0        6.829822   -2.304410    1.296004
     20          1           0        8.293222   -1.350261    1.000419
     21          6           0       -2.284246    2.141138    0.221925
     22          6           0       -2.125273    1.308430   -0.890659
     23          6           0       -2.842230    0.112379   -0.990559
     24          6           0       -3.713499   -0.221545    0.045141
     25          6           0       -3.893643    0.587022    1.166327
     26          6           0       -3.166368    1.778416    1.245065
     27          1           0       -1.723289    3.068451    0.291310
     28          1           0       -1.440908    1.587584   -1.686752
     29          1           0       -2.738354   -0.550878   -1.840688
     30          1           0       -4.583270    0.281979    1.944005
     31          1           0       -3.291842    2.423159    2.110286
     32          7           0       -4.477971   -1.485286   -0.049416
     33          8           0       -5.239296   -1.756875    0.876468
     34          8           0       -4.301363   -2.180289   -1.047623
 ---------------------------------------------------------------------

 SCF Done:  E(RHF) =  -669.535293537     A.U. after   15 cycles
 E2 =    -0.2091192266D+01 EUMP2 =    -0.67162648580359D+03

 The electronic state is 1-A.
 Alpha  occ. eigenvalues --  -20.60761 -20.60756 -15.85815 -11.31184 -11.27761
 Alpha  occ. eigenvalues --  -11.27756 -11.27492 -11.26766 -11.26750 -11.22169
 Alpha  occ. eigenvalues --  -11.21901 -11.21879 -11.21837 -11.21698 -11.21282
 Alpha  occ. eigenvalues --   -1.59837  -1.39390  -1.19361  -1.08850  -1.08750
 Alpha  occ. eigenvalues --   -1.04769  -1.03984  -0.96457  -0.95583  -0.87487
 Alpha  occ. eigenvalues --   -0.86160  -0.82419  -0.80053  -0.78635  -0.77470
 Alpha  occ. eigenvalues --   -0.72034  -0.71160  -0.70456  -0.65473  -0.65012
 Alpha  occ. eigenvalues --   -0.64809  -0.62155  -0.61374  -0.59830  -0.58051
 Alpha  occ. eigenvalues --   -0.55736  -0.55254  -0.53387  -0.53027  -0.52935
 Alpha  occ. eigenvalues --   -0.52635  -0.50384  -0.48794  -0.48788  -0.48360
 Alpha  occ. eigenvalues --   -0.47065  -0.46187  -0.46089  -0.44795  -0.44239
 Alpha  occ. eigenvalues --   -0.37321  -0.36356
 Alpha virt. eigenvalues --    0.05070   0.11168   0.16523   0.20661   0.22572
 Alpha virt. eigenvalues --    0.23981   0.26164   0.26239   0.27012   0.27843
 Alpha virt. eigenvalues --    0.28679   0.29905   0.31052   0.31663   0.32046

 Mulliken charges:
               1
     1  C   -0.298907
     2  C   -0.299157
     3  C   -0.479716
     4  H    0.149662
     5  H    0.149644
     6  H    0.155507
     7  H    0.153173
     8  H    0.155716
     9  H    0.154319
    10  H    0.154380
    11  C   -0.298825
    12  C   -0.299921
    13  C   -0.475982
    14  H    0.151009
    15  H    0.150558
    16  H    0.151964
    17  H    0.151925
    18  H    0.155772
    19  H    0.156043
    20  H    0.160907
    21  C   -0.170305
    22  C   -0.218117
    23  C   -0.172059
    24  C    0.158387
    25  C   -0.170680
    26  C   -0.218959
    27  H    0.226880
    28  H    0.224894
    29  H    0.275679
    30  H    0.275610
    31  H    0.223398
    32  N    0.488104
    33  O   -0.460497
    34  O   -0.460408
 Sum of Mulliken charges =  -0.00000

 Dipole moment (field-independent basis, Debye):
    X=              2.7951    Y=              4.4192    Z=              0.3713  Tot=              5.2421
 Quadrupole moment (field-independent basis, Debye-Ang):
   XX=           -114.5348   YY=            -97.9208   ZZ=            -90.1433
   XY=            -17.2533   XZ=             -3.7465   YZ=              1.1888

 Normal termination of Gaussian 16 at Thu May  6 12:13:38 2021.
