 Gaussian 16, Revision A.03,
 Gaussian 16:  EM64L-G16RevA.03 25-Dec-2016

 -------------
 #p 6-31g* mp2
 -------------

 ------------------------------------------------------
 Input file generated by CHIRIPA (05-May-2021 14:57:26)
 ------------------------------------------------------
 Symbolic Z-matrix:
 Charge =  0 Multiplicity = 1

                         Standard orientation:
 ---------------------------------------------------------------------
 Center     Atomic      Atomic             Coordinates (Angstroms)
 Number     Number       Type             X           Y           Z
 ---------------------------------------------------------------------
      1          6           0        3.163752    2.301441    0.807105
      2          6           0        4.461228    2.260596    0.286136
      3          6           0        4.994065    1.062657   -0.199225
      4          6           0        4.198058   -0.080604   -0.148070
      5          6           0        2.901906   -0.072013    0.364965
      6          6           0        2.389597    1.137059    0.844790
      7          1           0        2.757804    3.236353    1.181995
      8          1           0        5.064731    3.163312    0.255611
      9          1           0        5.995488    1.002709   -0.607852
     10          1           0        2.324373   -0.988298    0.382133
     11          1           0        1.381641    1.165811    1.248825
     12          7           0        4.751284   -1.354701   -0.658970
     13          8           0        4.029680   -2.348059   -0.602707
     14          8           0        5.896030   -1.335855   -1.106003
     15          6           0       -2.181193   -1.108609    1.367236
     16          6           0       -2.056118    0.152229    0.774646
     17          6           0       -3.116579    0.704606    0.050180
     18          6           0       -4.293049   -0.034714   -0.062137
     19          6           0       -4.448317   -1.293324    0.516728
     20          6           0       -3.374789   -1.826097    1.236616
     21          1           0       -1.352326   -1.530095    1.928240
     22          1           0       -1.130334    0.711703    0.874438
     23          1           0       -3.046798    1.678583   -0.418773
     24          1           0       -5.383601   -1.827186    0.399881
     25          1           0       -3.474759   -2.805502    1.695762
     26          7           0       -5.422628    0.539685   -0.826673
     27          8           0       -6.448617   -0.131791   -0.910960
     28          8           0       -5.260614    1.650500   -1.327153
 ---------------------------------------------------------------------

 SCF Done:  E(RHF) =  -868.336581223     A.U. after   16 cycles
 E2 =    -0.2599471160D+01 EUMP2 =    -0.87093605238301D+03

 The electronic state is 1-A.
 Alpha  occ. eigenvalues --  -20.61326 -20.61313 -20.61115 -20.61106 -15.86384
 Alpha  occ. eigenvalues --  -15.86173 -11.31856 -11.31636 -11.28529 -11.28410
 Alpha  occ. eigenvalues --  -11.28278 -11.28224 -11.28193 -11.28038 -11.27624
 Alpha  occ. eigenvalues --  -11.27418 -11.27407 -11.27214  -1.60396  -1.60187
 Alpha  occ. eigenvalues --   -1.39947  -1.39738  -1.20055  -1.19836  -1.09425
 Alpha  occ. eigenvalues --   -1.09221  -1.05495  -1.05264  -0.96237  -0.96031
 Alpha  occ. eigenvalues --   -0.86892  -0.86665  -0.83086  -0.82866  -0.78124
 Alpha  occ. eigenvalues --   -0.77886  -0.72599  -0.72390  -0.71720  -0.71510
 Alpha  occ. eigenvalues --   -0.71153  -0.70956  -0.65716  -0.65654  -0.65497
 Alpha  occ. eigenvalues --   -0.65213  -0.62903  -0.62558  -0.55973  -0.55782
 Alpha  occ. eigenvalues --   -0.53792  -0.53690  -0.53572  -0.53288  -0.49368
 Alpha  occ. eigenvalues --   -0.49347  -0.49157  -0.49137  -0.45329  -0.45121
 Alpha  occ. eigenvalues --   -0.38023  -0.37826  -0.37095  -0.36858
 Alpha virt. eigenvalues --    0.04453   0.04666   0.10537   0.10784   0.15874
 Alpha virt. eigenvalues --    0.16125   0.17620   0.22041   0.24455   0.26914
 Alpha virt. eigenvalues --    0.27915   0.29039   0.29308   0.31384   0.31990

 Mulliken charges:
               1
     1  C   -0.170684
     2  C   -0.218215
     3  C   -0.169357
     4  C    0.159096
     5  C   -0.170777
     6  C   -0.221860
     7  H    0.227669
     8  H    0.226396
     9  H    0.278144
    10  H    0.272692
    11  H    0.217590
    12  N    0.488249
    13  O   -0.460651
    14  O   -0.457911
    15  C   -0.171435
    16  C   -0.221309
    17  C   -0.170820
    18  C    0.159290
    19  C   -0.169733
    20  C   -0.217893
    21  H    0.224340
    22  H    0.217322
    23  H    0.276215
    24  H    0.277779
    25  H    0.226473
    26  N    0.488041
    27  O   -0.458591
    28  O   -0.460063
 Sum of Mulliken charges =  -0.00000

 Dipole moment (field-independent basis, Debye):
    X=              2.0806    Y=              2.4298    Z=              4.4205  Tot=              5.4565
 Quadrupole moment (field-independent basis, Debye-Ang):
   XX=           -148.8647   YY=           -101.3361   ZZ=           -106.8872
   XY=             33.1472   XZ=             -5.8503   YZ=             -2.4118

 Normal termination of Gaussian 16 at Wed May  5 19:34:09 2021.
