 Gaussian 16, Revision A.03,
 Gaussian 16:  EM64L-G16RevA.03 25-Dec-2016

 -------------
 #p 6-31g* mp2
 -------------

 ------------------------------------------------------
 Input file generated by CHIRIPA (05-May-2021 14:55:20)
 ------------------------------------------------------
 Symbolic Z-matrix:
 Charge =  0 Multiplicity = 1

                         Standard orientation:
 ---------------------------------------------------------------------
 Center     Atomic      Atomic             Coordinates (Angstroms)
 Number     Number       Type             X           Y           Z
 ---------------------------------------------------------------------
      1          6           0       -1.536754   -1.693006    1.858731
      2          6           0       -1.110417   -0.382363    1.620039
      3          6           0       -1.728608    0.397666    0.638233
      4          6           0       -2.774816   -0.167263   -0.089499
      5          6           0       -3.222351   -1.469974    0.124847
      6          6           0       -2.589504   -2.231679    1.111690
      7          1           0       -1.050836   -2.291834    2.623378
      8          1           0       -0.293085    0.038588    2.198669
      9          1           0       -1.418640    1.415070    0.432738
     10          1           0       -4.039714   -1.862082   -0.468101
     11          1           0       -2.922709   -3.249253    1.294891
     12          7           0       -3.437024    0.648820   -1.131559
     13          8           0       -4.356535    0.127885   -1.759064
     14          8           0       -3.024013    1.793948   -1.301089
     15          6           0        4.037831   -0.051612   -0.116232
     16          6           0        3.967726   -1.183900   -1.141412
     17          6           0        5.226941   -2.051121   -1.151394
     18          1           0        4.914504    0.574822   -0.330637
     19          1           0        4.196837   -0.480328    0.882925
     20          1           0        3.807517   -0.753255   -2.138154
     21          1           0        3.091010   -1.807601   -0.924657
     22          1           0        5.388000   -2.507767   -0.169490
     23          1           0        6.108578   -1.447432   -1.389882
     24          1           0        5.155414   -2.854278   -1.891449
     25          6           0        2.786298    0.824125   -0.094316
     26          6           0        2.856404    1.956413    0.930865
     27          6           0        1.597188    2.823634    0.940846
     28          1           0        2.627293    1.252840   -1.093473
     29          1           0        1.909626    0.197691    0.120089
     30          1           0        3.733119    2.580113    0.714109
     31          1           0        3.016613    1.525769    1.927607
     32          1           0        0.715551    2.219944    1.179335
     33          1           0        1.436130    3.280280   -0.041058
     34          1           0        1.668715    3.626791    1.680901
 ---------------------------------------------------------------------

 SCF Done:  E(RHF) =  -669.535180804     A.U. after   15 cycles
 E2 =    -0.2092300169D+01 EUMP2 =    -0.67162748097337D+03

 The electronic state is 1-A.
 Alpha  occ. eigenvalues --  -20.60752 -20.60746 -15.85805 -11.31180 -11.27772
 Alpha  occ. eigenvalues --  -11.27740 -11.27526 -11.26787 -11.26777 -11.22208
 Alpha  occ. eigenvalues --  -11.21925 -11.21854 -11.21813 -11.21774 -11.21363
 Alpha  occ. eigenvalues --   -1.59826  -1.39379  -1.19369  -1.08901  -1.08760
 Alpha  occ. eigenvalues --   -1.04785  -1.04016  -0.96471  -0.95591  -0.87490
 Alpha  occ. eigenvalues --   -0.86171  -0.82434  -0.80079  -0.78692  -0.77465
 Alpha  occ. eigenvalues --   -0.72025  -0.71149  -0.70487  -0.65569  -0.65023
 Alpha  occ. eigenvalues --   -0.64775  -0.62257  -0.61329  -0.59822  -0.58059
 Alpha  occ. eigenvalues --   -0.55788  -0.55264  -0.53165  -0.53096  -0.52977
 Alpha  occ. eigenvalues --   -0.52772  -0.50427  -0.48785  -0.48777  -0.48378
 Alpha  occ. eigenvalues --   -0.47110  -0.46229  -0.46149  -0.44781  -0.44248
 Alpha  occ. eigenvalues --   -0.37351  -0.36361
 Alpha virt. eigenvalues --    0.05051   0.11247   0.16421   0.19620   0.22694
 Alpha virt. eigenvalues --    0.23778   0.25623   0.26274   0.27229   0.28125
 Alpha virt. eigenvalues --    0.29222   0.30071   0.31229   0.31487   0.32425

 Mulliken charges:
               1
     1  C   -0.171217
     2  C   -0.221429
     3  C   -0.175467
     4  C    0.159581
     5  C   -0.170354
     6  C   -0.218931
     7  H    0.225633
     8  H    0.225281
     9  H    0.281106
    10  H    0.275709
    11  H    0.223553
    12  N    0.488505
    13  O   -0.460610
    14  O   -0.460181
    15  C   -0.298172
    16  C   -0.300012
    17  C   -0.475900
    18  H    0.151483
    19  H    0.147004
    20  H    0.154666
    21  H    0.151328
    22  H    0.153914
    23  H    0.156256
    24  H    0.161475
    25  C   -0.301911
    26  C   -0.300638
    27  C   -0.479661
    28  H    0.154554
    29  H    0.147517
    30  H    0.156339
    31  H    0.148138
    32  H    0.143388
    33  H    0.164673
    34  H    0.164381
 Sum of Mulliken charges =  -0.00000

 Dipole moment (field-independent basis, Debye):
    X=              2.4248    Y=             -2.8164    Z=              3.5700  Tot=              5.1533
 Quadrupole moment (field-independent basis, Debye-Ang):
   XX=           -106.5428   YY=            -90.9071   ZZ=            -95.4673
   XY=             11.4777   XZ=            -10.1348   YZ=             -0.1322

 Normal termination of Gaussian 16 at Thu May  6 02:55:43 2021.
