 Gaussian 16, Revision A.03,
 Gaussian 16:  EM64L-G16RevA.03 25-Dec-2016

 -------------
 #p 6-31g* mp2
 -------------

 ------------------------------------------------------
 Input file generated by CHIRIPA (05-May-2021 14:53:15)
 ------------------------------------------------------
 Symbolic Z-matrix:
 Charge =  0 Multiplicity = 1

                         Standard orientation:
 ---------------------------------------------------------------------
 Center     Atomic      Atomic             Coordinates (Angstroms)
 Number     Number       Type             X           Y           Z
 ---------------------------------------------------------------------
      1          6           0       -4.982395    0.011080   -0.277145
      2          6           0       -5.436526    1.428113    0.074661
      3          6           0       -6.944491    1.622724   -0.086462
      4          1           0       -5.274122   -0.214287   -1.312061
      5          1           0       -5.515949   -0.706588    0.361343
      6          1           0       -4.901254    2.142985   -0.563350
      7          1           0       -5.143515    1.650203    1.108797
      8          1           0       -7.493488    0.932321    0.562034
      9          1           0       -7.249850    1.427903   -1.119614
     10          1           0       -7.247353    2.642647    0.170231
     11          6           0       -3.477337   -0.199043   -0.121015
     12          6           0       -3.023207   -1.616076   -0.472821
     13          6           0       -1.515241   -1.810687   -0.311698
     14          1           0       -2.943783    0.518626   -0.759503
     15          1           0       -3.185611    0.026324    0.913901
     16          1           0       -3.316218   -1.838165   -1.506957
     17          1           0       -3.558479   -2.330948    0.165189
     18          1           0       -1.209883   -1.615866    0.721453
     19          1           0       -0.966245   -1.120283   -0.960194
     20          1           0       -1.212380   -2.830610   -0.568392
     21          6           0        5.091919    1.568092   -0.812620
     22          6           0        4.404537    1.956358    0.342056
     23          6           0        3.412303    1.136140    0.887275
     24          6           0        3.131790   -0.071076    0.249129
     25          6           0        3.799110   -0.485663   -0.902432
     26          6           0        4.787548    0.350467   -1.430091
     27          1           0        5.861236    2.211437   -1.229339
     28          1           0        4.638813    2.901433    0.823713
     29          1           0        2.864682    1.412239    1.780190
     30          1           0        3.543411   -1.433542   -1.360211
     31          1           0        5.319755    0.046368   -2.326931
     32          7           0        2.083365   -0.947827    0.817033
     33          8           0        1.854943   -2.006505    0.235946
     34          8           0        1.509885   -0.559744    1.832487
 ---------------------------------------------------------------------

 SCF Done:  E(RHF) =  -669.536138058     A.U. after   15 cycles
 E2 =    -0.2091602717D+01 EUMP2 =    -0.67162774077447D+03

 The electronic state is 1-A.
 Alpha  occ. eigenvalues --  -20.60906 -20.60886 -15.85905 -11.31262 -11.27824
 Alpha  occ. eigenvalues --  -11.27821 -11.27566 -11.26836 -11.26827 -11.21060
 Alpha  occ. eigenvalues --  -11.20689 -11.20635 -11.20479 -11.20401 -11.19367
 Alpha  occ. eigenvalues --   -1.59937  -1.39495  -1.19429  -1.08828  -1.07603
 Alpha  occ. eigenvalues --   -1.04828  -1.02608  -0.95670  -0.95017  -0.86228
 Alpha  occ. eigenvalues --   -0.86025  -0.82499  -0.78704  -0.77550  -0.77379
 Alpha  occ. eigenvalues --   -0.72125  -0.71240  -0.70537  -0.65083  -0.64831
 Alpha  occ. eigenvalues --   -0.64246  -0.62175  -0.60015  -0.58467  -0.56632
 Alpha  occ. eigenvalues --   -0.55335  -0.54316  -0.53163  -0.52921  -0.51693
 Alpha  occ. eigenvalues --   -0.51459  -0.49104  -0.48884  -0.48758  -0.46969
 Alpha  occ. eigenvalues --   -0.45771  -0.45000  -0.44839  -0.44758  -0.42833
 Alpha  occ. eigenvalues --   -0.37407  -0.36430
 Alpha virt. eigenvalues --    0.04958   0.11224   0.16449   0.21359   0.23621
 Alpha virt. eigenvalues --    0.25260   0.27273   0.27433   0.28178   0.28282
 Alpha virt. eigenvalues --    0.29010   0.30932   0.32246   0.32516   0.32538

 Mulliken charges:
               1
     1  C   -0.297295
     2  C   -0.298895
     3  C   -0.475175
     4  H    0.147485
     5  H    0.148903
     6  H    0.149915
     7  H    0.151862
     8  H    0.154910
     9  H    0.154064
    10  H    0.158180
    11  C   -0.297381
    12  C   -0.302274
    13  C   -0.471055
    14  H    0.145521
    15  H    0.152048
    16  H    0.145658
    17  H    0.149341
    18  H    0.172339
    19  H    0.143794
    20  H    0.162283
    21  C   -0.170669
    22  C   -0.218590
    23  C   -0.170812
    24  C    0.159380
    25  C   -0.170923
    26  C   -0.218601
    27  H    0.225850
    28  H    0.223703
    29  H    0.275775
    30  H    0.275893
    31  H    0.223700
    32  N    0.488786
    33  O   -0.456931
    34  O   -0.460790
 Sum of Mulliken charges =  -0.00000

 Dipole moment (field-independent basis, Debye):
    X=              4.0199    Y=              3.0095    Z=             -1.8849  Tot=              5.3637
 Quadrupole moment (field-independent basis, Debye-Ang):
   XX=            -74.4238   YY=            -93.3542   ZZ=            -92.5934
   XY=              9.4820   XZ=             -6.7301   YZ=              3.3416

 Normal termination of Gaussian 16 at Thu May  6 18:50:10 2021.
