 Gaussian 16, Revision A.03,
 Gaussian 16:  EM64L-G16RevA.03 25-Dec-2016

 -------------
 #p 6-31g* mp2
 -------------

 ------------------------------------------------------
 Input file generated by CHIRIPA (05-May-2021 14:51:09)
 ------------------------------------------------------
 Symbolic Z-matrix:
 Charge =  0 Multiplicity = 1

                         Standard orientation:
 ---------------------------------------------------------------------
 Center     Atomic      Atomic             Coordinates (Angstroms)
 Number     Number       Type             X           Y           Z
 ---------------------------------------------------------------------
      1          6           0       -3.309000   -0.170938   -0.379101
      2          6           0       -2.301065    0.911822    0.007787
      3          6           0       -0.920865    0.682096   -0.608710
      4          1           0       -2.923873   -1.150629   -0.064731
      5          1           0       -3.396642   -0.206173   -1.473849
      6          1           0       -2.216383    0.945944    1.101533
      7          1           0       -2.688725    1.889069   -0.307370
      8          1           0       -0.984413    0.669178   -1.701595
      9          1           0       -0.509388   -0.279306   -0.284686
     10          1           0       -0.216013    1.467707   -0.319125
     11          6           0       -4.693466    0.044872    0.229511
     12          6           0       -5.701401   -1.037888   -0.157377
     13          6           0       -7.081601   -0.808163    0.459120
     14          1           0       -4.605824    0.080106    1.324259
     15          1           0       -5.078593    1.024562   -0.084859
     16          1           0       -5.313742   -2.015136    0.157780
     17          1           0       -5.786083   -1.072010   -1.251123
     18          1           0       -7.493079    0.153240    0.135096
     19          1           0       -7.018053   -0.795244    1.552004
     20          1           0       -7.786453   -1.593773    0.169535
     21          6           0        4.141470   -0.597634   -0.281974
     22          6           0        4.940380   -1.587366    0.566647
     23          6           0        5.212995   -2.904303   -0.160781
     24          1           0        3.189069   -1.060560   -0.574509
     25          1           0        4.690234   -0.396811   -1.212524
     26          1           0        4.390930   -1.785197    1.495940
     27          1           0        5.890906   -1.121960    0.857356
     28          1           0        5.781825   -2.726533   -1.079167
     29          1           0        4.273327   -3.393539   -0.436955
     30          1           0        5.785313   -3.597062    0.464036
     31          6           0        3.860996    0.723701    0.431565
     32          6           0        3.062087    1.713433   -0.417057
     33          6           0        2.789471    3.030370    0.310372
     34          1           0        3.312233    0.522877    1.362115
     35          1           0        4.813397    1.186627    0.724100
     36          1           0        2.111561    1.248026   -0.707766
     37          1           0        3.611536    1.911264   -1.346350
     38          1           0        3.729139    3.519606    0.586545
     39          1           0        2.220641    2.852599    1.228758
     40          1           0        2.217153    3.723129   -0.314446
 ---------------------------------------------------------------------

 SCF Done:  E(RHF) =  -470.733129669     A.U. after   11 cycles
 E2 =    -0.1582659003D+01 EUMP2 =    -0.47231578867271D+03

 The electronic state is 1-A.
 Alpha  occ. eigenvalues --  -11.21642 -11.21621 -11.21570 -11.21480 -11.21433
 Alpha  occ. eigenvalues --  -11.21373 -11.21351 -11.21291 -11.21119 -11.21086
 Alpha  occ. eigenvalues --  -11.21051 -11.21048  -1.08461  -1.08377  -1.03575
 Alpha  occ. eigenvalues --   -1.03477  -0.96029  -0.95934  -0.87045  -0.86955
 Alpha  occ. eigenvalues --   -0.79673  -0.79509  -0.78277  -0.78181  -0.65094
 Alpha  occ. eigenvalues --   -0.65019  -0.60984  -0.60930  -0.59442  -0.59228
 Alpha  occ. eigenvalues --   -0.57661  -0.57509  -0.55302  -0.55239  -0.52739
 Alpha  occ. eigenvalues --   -0.52621  -0.52436  -0.52364  -0.49961  -0.49878
 Alpha  occ. eigenvalues --   -0.47951  -0.47854  -0.46665  -0.46572  -0.45832
 Alpha  occ. eigenvalues --   -0.45742  -0.45721  -0.45652  -0.43782  -0.43705
 Alpha virt. eigenvalues --    0.21571   0.23015   0.23654   0.24946   0.25996
 Alpha virt. eigenvalues --    0.26655   0.27045   0.27404   0.27802   0.28897
 Alpha virt. eigenvalues --    0.30878   0.31402   0.31711   0.31929   0.32050

 Mulliken charges:
               1
     1  C   -0.298621
     2  C   -0.299866
     3  C   -0.480485
     4  H    0.149530
     5  H    0.149630
     6  H    0.151937
     7  H    0.152293
     8  H    0.155717
     9  H    0.154360
    10  H    0.165945
    11  C   -0.298298
    12  C   -0.299633
    13  C   -0.475717
    14  H    0.149541
    15  H    0.149751
    16  H    0.151928
    17  H    0.151979
    18  H    0.155229
    19  H    0.155200
    20  H    0.160318
    21  C   -0.298503
    22  C   -0.299603
    23  C   -0.475655
    24  H    0.150018
    25  H    0.149454
    26  H    0.151701
    27  H    0.151865
    28  H    0.155176
    29  H    0.155079
    30  H    0.160092
    31  C   -0.297542
    32  C   -0.308089
    33  C   -0.476340
    34  H    0.149089
    35  H    0.149219
    36  H    0.161872
    37  H    0.151480
    38  H    0.155345
    39  H    0.154739
    40  H    0.159865
 Sum of Mulliken charges =  -0.00000

 Dipole moment (field-independent basis, Debye):
    X=             -0.0341    Y=              0.0030    Z=             -0.0136  Tot=              0.0368
 Quadrupole moment (field-independent basis, Debye-Ang):
   XX=            -85.2405   YY=            -85.4046   ZZ=            -84.2718
   XY=              0.4617   XZ=              0.3817   YZ=             -1.0283

 Normal termination of Gaussian 16 at Wed May  5 19:41:43 2021.
