 Gaussian 16, Revision A.03,
 Gaussian 16:  EM64L-G16RevA.03 25-Dec-2016

 -------------
 #p 6-31g* mp2
 -------------

 ------------------------------------------------------
 Input file generated by CHIRIPA (05-May-2021 14:51:07)
 ------------------------------------------------------
 Symbolic Z-matrix:
 Charge =  0 Multiplicity = 1

                         Standard orientation:
 ---------------------------------------------------------------------
 Center     Atomic      Atomic             Coordinates (Angstroms)
 Number     Number       Type             X           Y           Z
 ---------------------------------------------------------------------
      1          6           0       -2.701265   -1.176479   -0.078962
      2          6           0       -1.254166   -0.690851    0.010783
      3          6           0       -0.239986   -1.827701   -0.118852
      4          1           0       -2.880810   -1.921470    0.708246
      5          1           0       -2.848580   -1.692972   -1.037570
      6          1           0       -1.109995   -0.174217    0.968342
      7          1           0       -1.078100    0.053212   -0.776610
      8          1           0       -0.354972   -2.338774   -1.080196
      9          1           0       -0.387048   -2.567495    0.674671
     10          1           0        0.788038   -1.458181   -0.051900
     11          6           0       -3.726842   -0.051505    0.048916
     12          6           0       -5.173942   -0.537133   -0.040829
     13          6           0       -6.188122    0.599717    0.088806
     14          1           0       -3.579527    0.464988    1.007524
     15          1           0       -3.547297    0.693487   -0.738292
     16          1           0       -5.350007   -1.281196    0.746564
     17          1           0       -5.318113   -1.053766   -0.998388
     18          1           0       -6.041059    1.339512   -0.704716
     19          1           0       -6.073135    1.110790    1.050151
     20          1           0       -7.216145    0.230198    0.021854
     21          6           0        2.858486    1.177143   -0.358960
     22          6           0        1.917790    1.994205    0.527318
     23          6           0        1.213818    3.117072   -0.235169
     24          1           0        3.607844    1.846867   -0.802667
     25          1           0        2.286008    0.751313   -1.194623
     26          1           0        2.491605    2.417228    1.361826
     27          1           0        1.170700    1.322427    0.969118
     28          1           0        0.617191    2.709171   -1.057516
     29          1           0        1.945601    3.810193   -0.662576
     30          1           0        0.546288    3.688378    0.417420
     31          6           0        3.569622    0.050840    0.389006
     32          6           0        4.510317   -0.766221   -0.497273
     33          6           0        5.214290   -1.889088    0.265214
     34          1           0        4.142100    0.476670    1.224669
     35          1           0        2.820264   -0.618884    0.832712
     36          1           0        5.257408   -0.094443   -0.939071
     37          1           0        3.936503   -1.189244   -1.331781
     38          1           0        4.482506   -2.582209    0.692621
     39          1           0        5.810917   -1.481188    1.087562
     40          1           0        5.881820   -2.460395   -0.387374
 ---------------------------------------------------------------------

 SCF Done:  E(RHF) =  -470.733001483     A.U. after   11 cycles
 E2 =    -0.1584022146D+01 EUMP2 =    -0.47231702362949D+03

 The electronic state is 1-A.
 Alpha  occ. eigenvalues --  -11.21683 -11.21625 -11.21592 -11.21547 -11.21448
 Alpha  occ. eigenvalues --  -11.21391 -11.21385 -11.21332 -11.21136 -11.21086
 Alpha  occ. eigenvalues --  -11.21053 -11.21040  -1.08493  -1.08406  -1.03591
 Alpha  occ. eigenvalues --   -1.03496  -0.96042  -0.95950  -0.87050  -0.86973
 Alpha  occ. eigenvalues --   -0.79681  -0.79537  -0.78300  -0.78225  -0.65132
 Alpha  occ. eigenvalues --   -0.65106  -0.60979  -0.60914  -0.59390  -0.59313
 Alpha  occ. eigenvalues --   -0.57641  -0.57561  -0.55312  -0.55277  -0.52738
 Alpha  occ. eigenvalues --   -0.52647  -0.52465  -0.52345  -0.49992  -0.49882
 Alpha  occ. eigenvalues --   -0.48054  -0.47806  -0.46775  -0.46518  -0.45865
 Alpha  occ. eigenvalues --   -0.45794  -0.45723  -0.45608  -0.43814  -0.43752
 Alpha virt. eigenvalues --    0.19685   0.22979   0.23513   0.24862   0.25718
 Alpha virt. eigenvalues --    0.26345   0.26969   0.27392   0.28398   0.29262
 Alpha virt. eigenvalues --    0.30402   0.30651   0.31783   0.31869   0.32650

 Mulliken charges:
               1
     1  C   -0.298492
     2  C   -0.301304
     3  C   -0.485201
     4  H    0.149874
     5  H    0.149687
     6  H    0.152966
     7  H    0.152977
     8  H    0.155546
     9  H    0.155468
    10  H    0.168672
    11  C   -0.298326
    12  C   -0.299695
    13  C   -0.475736
    14  H    0.149675
    15  H    0.149842
    16  H    0.151976
    17  H    0.151959
    18  H    0.155296
    19  H    0.155253
    20  H    0.160327
    21  C   -0.299663
    22  C   -0.304171
    23  C   -0.475833
    24  H    0.150015
    25  H    0.150166
    26  H    0.151527
    27  H    0.157680
    28  H    0.155394
    29  H    0.154827
    30  H    0.160208
    31  C   -0.303317
    32  C   -0.300074
    33  C   -0.475748
    34  H    0.150288
    35  H    0.152674
    36  H    0.152099
    37  H    0.152283
    38  H    0.155535
    39  H    0.155085
    40  H    0.160260
 Sum of Mulliken charges =  -0.00000

 Dipole moment (field-independent basis, Debye):
    X=             -0.0215    Y=             -0.0073    Z=              0.0055  Tot=              0.0234
 Quadrupole moment (field-independent basis, Debye-Ang):
   XX=            -85.2554   YY=            -85.6357   ZZ=            -83.8597
   XY=              1.5680   XZ=             -0.0241   YZ=              0.3053

 Normal termination of Gaussian 16 at Wed May  5 15:01:20 2021.
