 Gaussian 16, Revision A.03,
 Gaussian 16:  EM64L-G16RevA.03 25-Dec-2016

 -------------
 #p 6-31g* mp2
 -------------

 ------------------------------------------------------
 Input file generated by CHIRIPA (05-May-2021 14:57:23)
 ------------------------------------------------------
 Symbolic Z-matrix:
 Charge =  0 Multiplicity = 1

                         Standard orientation:
 ---------------------------------------------------------------------
 Center     Atomic      Atomic             Coordinates (Angstroms)
 Number     Number       Type             X           Y           Z
 ---------------------------------------------------------------------
      1          6           0        2.265560    1.222441   -0.032940
      2          6           0        2.396391   -0.077336    0.467044
      3          6           0        3.643675   -0.708582    0.485982
      4          6           0        4.743986   -0.007568   -0.005125
      5          6           0        4.645838    1.288225   -0.509682
      6          6           0        3.388721    1.899879   -0.518851
      7          1           0        1.292821    1.705199   -0.043858
      8          1           0        1.525861   -0.605853    0.845054
      9          1           0        3.773375   -1.714126    0.867396
     10          1           0        5.531872    1.789674   -0.879697
     11          1           0        3.290094    2.909376   -0.907738
     12          7           0        6.069634   -0.665470    0.009753
     13          8           0        7.023604   -0.026428   -0.428658
     14          8           0        6.129606   -1.807717    0.459543
     15          6           0       -2.010086   -0.057954    0.199309
     16          6           0       -2.654703   -1.194028   -0.301018
     17          6           0       -4.047930   -1.228942   -0.411684
     18          6           0       -4.768684   -0.105010   -0.010960
     19          6           0       -4.155500    1.041676    0.491443
     20          6           0       -2.761218    1.054310    0.593247
     21          1           0       -0.927384   -0.039486    0.281835
     22          1           0       -2.073918   -2.059285   -0.607718
     23          1           0       -4.572617   -2.095404   -0.795567
     24          1           0       -4.761371    1.888853    0.789151
     25          1           0       -2.263288    1.937968    0.982169
     26          7           0       -6.244190   -0.130179   -0.123426
     27          8           0       -6.856451    0.872969    0.236388
     28          8           0       -6.760491   -1.152579   -0.569262
 ---------------------------------------------------------------------

 SCF Done:  E(RHF) =  -868.335992317     A.U. after   16 cycles
 E2 =    -0.2600087876D+01 EUMP2 =    -0.87093608019271D+03

 The electronic state is 1-A.
 Alpha  occ. eigenvalues --  -20.61406 -20.61399 -20.61340 -20.61334 -15.86467
 Alpha  occ. eigenvalues --  -15.86398 -11.32005 -11.31932 -11.28636 -11.28567
 Alpha  occ. eigenvalues --  -11.28515 -11.28493 -11.28488 -11.28448 -11.27797
 Alpha  occ. eigenvalues --  -11.27652 -11.27632 -11.27594  -1.60477  -1.60410
 Alpha  occ. eigenvalues --   -1.40025  -1.39959  -1.20217  -1.20133  -1.09610
 Alpha  occ. eigenvalues --   -1.09527  -1.05648  -1.05551  -0.96412  -0.96323
 Alpha  occ. eigenvalues --   -0.87064  -0.86962  -0.83225  -0.83151  -0.78226
 Alpha  occ. eigenvalues --   -0.78136  -0.72685  -0.72615  -0.71802  -0.71734
 Alpha  occ. eigenvalues --   -0.71549  -0.71189  -0.65889  -0.65801  -0.65728
 Alpha  occ. eigenvalues --   -0.65535  -0.62995  -0.62886  -0.56270  -0.56137
 Alpha  occ. eigenvalues --   -0.53960  -0.53879  -0.53748  -0.53658  -0.49458
 Alpha  occ. eigenvalues --   -0.49424  -0.49387  -0.49357  -0.45392  -0.45326
 Alpha  occ. eigenvalues --   -0.38243  -0.38163  -0.37237  -0.37137
 Alpha virt. eigenvalues --    0.04316   0.04387   0.10369   0.10496   0.15740
 Alpha virt. eigenvalues --    0.15816   0.17041   0.22184   0.24630   0.25227
 Alpha virt. eigenvalues --    0.27421   0.29208   0.29807   0.30609   0.32574

 Mulliken charges:
               1
     1  C   -0.170885
     2  C   -0.221765
     3  C   -0.169180
     4  C    0.159382
     5  C   -0.169505
     6  C   -0.217770
     7  H    0.218846
     8  H    0.217099
     9  H    0.277794
    10  H    0.278653
    11  H    0.226319
    12  N    0.487866
    13  O   -0.457855
    14  O   -0.458729
    15  C   -0.175223
    16  C   -0.219271
    17  C   -0.169634
    18  C    0.159479
    19  C   -0.169626
    20  C   -0.219593
    21  H    0.219958
    22  H    0.225277
    23  H    0.278462
    24  H    0.277774
    25  H    0.221035
    26  N    0.487824
    27  O   -0.458656
    28  O   -0.458077
 Sum of Mulliken charges =  -0.00000

 Dipole moment (field-independent basis, Debye):
    X=              0.5568    Y=              2.3867    Z=              0.2735  Tot=              2.4660
 Quadrupole moment (field-independent basis, Debye-Ang):
   XX=           -196.3605   YY=            -97.2567   ZZ=           -104.8176
   XY=             12.0480   XZ=             -3.2913   YZ=             -0.0166

 Normal termination of Gaussian 16 at Fri May  7 03:20:30 2021.
