 Gaussian 16, Revision A.03,
 Gaussian 16:  EM64L-G16RevA.03 25-Dec-2016

 -------------
 #p 6-31g* mp2
 -------------

 ------------------------------------------------------
 Input file generated by CHIRIPA (05-May-2021 14:57:26)
 ------------------------------------------------------
 Symbolic Z-matrix:
 Charge =  0 Multiplicity = 1

                         Standard orientation:
 ---------------------------------------------------------------------
 Center     Atomic      Atomic             Coordinates (Angstroms)
 Number     Number       Type             X           Y           Z
 ---------------------------------------------------------------------
      1          6           0       -5.429243    0.804621   -0.286741
      2          6           0       -4.330801    1.636574   -0.527160
      3          6           0       -3.027607    1.149234   -0.390288
      4          6           0       -2.858678   -0.181158   -0.009745
      5          6           0       -3.932762   -1.034869    0.236854
      6          6           0       -5.227074   -0.526099    0.093828
      7          1           0       -6.438145    1.191522   -0.395457
      8          1           0       -4.484803    2.670450   -0.822842
      9          1           0       -2.159299    1.771406   -0.570180
     10          1           0       -3.747575   -2.061043    0.530267
     11          1           0       -6.078259   -1.174499    0.281194
     12          7           0       -1.483747   -0.708426    0.138413
     13          8           0       -1.361658   -1.884256    0.474800
     14          8           0       -0.554198    0.064114   -0.084654
     15          6           0        3.133015    2.584726    0.435677
     16          6           0        3.608605    2.060983   -0.770984
     17          6           0        3.587001    0.682708   -1.004310
     18          6           0        3.080669   -0.146512   -0.004653
     19          6           0        2.599649    0.344974    1.207927
     20          6           0        2.630940    1.726563    1.419546
     21          1           0        3.153560    3.656690    0.608499
     22          1           0        3.999087    2.725058   -1.536864
     23          1           0        3.948853    0.250480   -1.929328
     24          1           0        2.216344   -0.342141    1.952485
     25          1           0        2.260927    2.130503    2.357612
     26          7           0        3.052671   -1.607384   -0.240175
     27          8           0        2.601570   -2.316708    0.656487
     28          8           0        3.482356   -2.015427   -1.316979
 ---------------------------------------------------------------------

 SCF Done:  E(RHF) =  -868.336983698     A.U. after   16 cycles
 E2 =    -0.2600744133D+01 EUMP2 =    -0.87093772783078D+03

 The electronic state is 1-A.
 Alpha  occ. eigenvalues --  -20.60805 -20.60755 -20.59274 -20.59191 -15.85817
 Alpha  occ. eigenvalues --  -15.84289 -11.31243 -11.29700 -11.27843 -11.27792
 Alpha  occ. eigenvalues --  -11.27572 -11.26862 -11.26824 -11.26421 -11.26317
 Alpha  occ. eigenvalues --  -11.26257 -11.25493 -11.25423  -1.59852  -1.58292
 Alpha  occ. eigenvalues --   -1.39403  -1.37850  -1.19422  -1.17938  -1.08807
 Alpha  occ. eigenvalues --   -1.07350  -1.04833  -1.03398  -0.95631  -0.94172
 Alpha  occ. eigenvalues --   -0.86228  -0.84810  -0.82460  -0.81029  -0.77501
 Alpha  occ. eigenvalues --   -0.76027  -0.72040  -0.71181  -0.70541  -0.70528
 Alpha  occ. eigenvalues --   -0.69572  -0.69157  -0.65073  -0.64836  -0.63645
 Alpha  occ. eigenvalues --   -0.63476  -0.62179  -0.60777  -0.55332  -0.53996
 Alpha  occ. eigenvalues --   -0.53161  -0.52927  -0.51692  -0.51551  -0.48804
 Alpha  occ. eigenvalues --   -0.48756  -0.47306  -0.47267  -0.44799  -0.43241
 Alpha  occ. eigenvalues --   -0.37408  -0.36440  -0.35932  -0.34934
 Alpha virt. eigenvalues --    0.05007   0.06587   0.11213   0.12698   0.16509
 Alpha virt. eigenvalues --    0.17998   0.21350   0.22515   0.27249   0.28251
 Alpha virt. eigenvalues --    0.28399   0.29441   0.30899   0.31984   0.32480

 Mulliken charges:
               1
     1  C   -0.170912
     2  C   -0.218535
     3  C   -0.171750
     4  C    0.158169
     5  C   -0.170636
     6  C   -0.218548
     7  H    0.225566
     8  H    0.222351
     9  H    0.273780
    10  H    0.277759
    11  H    0.224187
    12  N    0.488275
    13  O   -0.450674
    14  O   -0.467309
    15  C   -0.172025
    16  C   -0.220076
    17  C   -0.171064
    18  C    0.167505
    19  C   -0.150062
    20  C   -0.219575
    21  H    0.217950
    22  H    0.216466
    23  H    0.271224
    24  H    0.275399
    25  H    0.216447
    26  N    0.489532
    27  O   -0.454540
    28  O   -0.468901
 Sum of Mulliken charges =  -0.00000

 Dipole moment (field-independent basis, Debye):
    X=             -5.0798    Y=              6.6481    Z=              0.4244  Tot=              8.3775
 Quadrupole moment (field-independent basis, Debye-Ang):
   XX=            -77.4318   YY=           -104.2238   ZZ=           -101.6152
   XY=             13.2274   XZ=              1.7477   YZ=             -2.3664

 Normal termination of Gaussian 16 at Fri May  7 05:06:09 2021.
