 Gaussian 16, Revision A.03,
 Gaussian 16:  EM64L-G16RevA.03 25-Dec-2016

 -------------
 #p 6-31g* mp2
 -------------

 ------------------------------------------------------
 Input file generated by CHIRIPA (05-May-2021 14:51:09)
 ------------------------------------------------------
 Symbolic Z-matrix:
 Charge =  0 Multiplicity = 1

                         Standard orientation:
 ---------------------------------------------------------------------
 Center     Atomic      Atomic             Coordinates (Angstroms)
 Number     Number       Type             X           Y           Z
 ---------------------------------------------------------------------
      1          6           0       -2.044540   -0.744276    0.330782
      2          6           0       -1.876971   -2.018606    1.159026
      3          6           0       -0.413612   -2.331605    1.472726
      4          1           0       -1.480979   -0.847094   -0.606647
      5          1           0       -1.596470    0.099292    0.873940
      6          1           0       -2.326449   -2.859273    0.615092
      7          1           0       -2.441153   -1.912818    2.094506
      8          1           0        0.043328   -1.511966    2.036639
      9          1           0        0.158683   -2.463798    0.548819
     10          1           0       -0.316918   -3.246525    2.065542
     11          6           0       -3.501883   -0.418079    0.009105
     12          6           0       -3.669453    0.856251   -0.819139
     13          6           0       -5.132811    1.169250   -1.132839
     14          1           0       -3.949953   -1.261647   -0.534054
     15          1           0       -4.065444   -0.315261    0.946533
     16          1           0       -3.105270    0.750464   -1.754620
     17          1           0       -3.219974    1.696918   -0.275205
     18          1           0       -5.705106    1.301443   -0.208932
     19          1           0       -5.589751    0.349611   -1.696753
     20          1           0       -5.229505    2.084171   -1.725656
     21          6           0        2.979580    0.125898   -0.747493
     22          6           0        3.271110   -1.310763   -0.312748
     23          6           0        3.682680   -2.209418   -1.479291
     24          1           0        2.184007    0.118703   -1.505093
     25          1           0        3.871877    0.542233   -1.235207
     26          1           0        2.378984   -1.723797    0.175237
     27          1           0        4.065949   -1.300131    0.444044
     28          1           0        4.586140   -1.823709   -1.962601
     29          1           0        2.889591   -2.249782   -2.232935
     30          1           0        3.886343   -3.231822   -1.146018
     31          6           0        2.566843    1.036457    0.407607
     32          6           0        2.275314    2.473118   -0.027138
     33          6           0        1.863743    3.371773    1.139405
     34          1           0        1.674546    0.620122    0.895321
     35          1           0        3.362417    1.043652    1.165207
     36          1           0        1.480475    2.462486   -0.783930
     37          1           0        3.167439    2.886152   -0.515123
     38          1           0        2.656832    3.412136    1.893049
     39          1           0        0.960282    2.986064    1.622715
     40          1           0        1.660081    4.394177    0.806132
 ---------------------------------------------------------------------

 SCF Done:  E(RHF) =  -470.733167429     A.U. after   11 cycles
 E2 =    -0.1583478493D+01 EUMP2 =    -0.47231664592230D+03

 The electronic state is 1-A.
 Alpha  occ. eigenvalues --  -11.21687 -11.21656 -11.21558 -11.21494 -11.21467
 Alpha  occ. eigenvalues --  -11.21426 -11.21337 -11.21278 -11.21162 -11.21111
 Alpha  occ. eigenvalues --  -11.21059 -11.21022  -1.08511  -1.08363  -1.03608
 Alpha  occ. eigenvalues --   -1.03471  -0.96059  -0.95930  -0.87083  -0.86942
 Alpha  occ. eigenvalues --   -0.79702  -0.79512  -0.78348  -0.78148  -0.65141
 Alpha  occ. eigenvalues --   -0.65005  -0.61071  -0.60825  -0.59422  -0.59299
 Alpha  occ. eigenvalues --   -0.57666  -0.57540  -0.55387  -0.55183  -0.52748
 Alpha  occ. eigenvalues --   -0.52647  -0.52495  -0.52345  -0.50061  -0.49824
 Alpha  occ. eigenvalues --   -0.48113  -0.47801  -0.46784  -0.46446  -0.46042
 Alpha  occ. eigenvalues --   -0.45774  -0.45693  -0.45371  -0.43860  -0.43724
 Alpha virt. eigenvalues --    0.20440   0.23047   0.23540   0.24307   0.25715
 Alpha virt. eigenvalues --    0.26456   0.27077   0.27753   0.28033   0.29907
 Alpha virt. eigenvalues --    0.30236   0.31645   0.31780   0.31828   0.32002

 Mulliken charges:
               1
     1  C   -0.298952
     2  C   -0.299892
     3  C   -0.481471
     4  H    0.149275
     5  H    0.149478
     6  H    0.152354
     7  H    0.152367
     8  H    0.157504
     9  H    0.158914
    10  H    0.161205
    11  C   -0.298345
    12  C   -0.299755
    13  C   -0.475761
    14  H    0.149858
    15  H    0.149978
    16  H    0.151847
    17  H    0.152055
    18  H    0.155332
    19  H    0.155280
    20  H    0.160485
    21  C   -0.297410
    22  C   -0.308614
    23  C   -0.475425
    24  H    0.148905
    25  H    0.149159
    26  H    0.161835
    27  H    0.151489
    28  H    0.155077
    29  H    0.154032
    30  H    0.160042
    31  C   -0.301646
    32  C   -0.299589
    33  C   -0.475494
    34  H    0.152954
    35  H    0.149261
    36  H    0.152316
    37  H    0.151788
    38  H    0.155134
    39  H    0.154249
    40  H    0.160182
 Sum of Mulliken charges =  -0.00000

 Dipole moment (field-independent basis, Debye):
    X=             -0.0545    Y=             -0.0296    Z=              0.0257  Tot=              0.0672
 Quadrupole moment (field-independent basis, Debye-Ang):
   XX=            -84.9909   YY=            -85.1336   ZZ=            -84.6669
   XY=              0.8327   XZ=              0.0699   YZ=             -0.0199

 Normal termination of Gaussian 16 at Thu May  6 00:34:01 2021.
