 Gaussian 16, Revision A.03,
 Gaussian 16:  EM64L-G16RevA.03 25-Dec-2016

 -------------
 #p 6-31g* mp2
 -------------

 ------------------------------------------------------
 Input file generated by CHIRIPA (05-May-2021 14:51:10)
 ------------------------------------------------------
 Symbolic Z-matrix:
 Charge =  0 Multiplicity = 1

                         Standard orientation:
 ---------------------------------------------------------------------
 Center     Atomic      Atomic             Coordinates (Angstroms)
 Number     Number       Type             X           Y           Z
 ---------------------------------------------------------------------
      1          6           0       -2.853565   -0.532987   -0.093902
      2          6           0       -1.720079    0.036597    0.759778
      3          6           0       -0.350269   -0.521024    0.371868
      4          1           0       -2.861301   -1.627445    0.001208
      5          1           0       -2.653036   -0.312559   -1.151538
      6          1           0       -1.923384   -0.183634    1.815610
      7          1           0       -1.715162    1.129841    0.662775
      8          1           0       -0.121694   -0.288751   -0.673313
      9          1           0       -0.331100   -1.609689    0.486071
     10          1           0        0.445409   -0.100503    0.994699
     11          6           0       -4.229166    0.014934    0.281910
     12          6           0       -5.362652   -0.554650   -0.571769
     13          6           0       -6.732462    0.002971   -0.183860
     14          1           0       -4.429696   -0.205494    1.339546
     15          1           0       -4.221431    1.109392    0.186800
     16          1           0       -5.367569   -1.647894   -0.474767
     17          1           0       -5.159347   -0.334419   -1.627601
     18          1           0       -6.751632    1.091636   -0.298063
     19          1           0       -6.961037   -0.229302    0.861321
     20          1           0       -7.528140   -0.417550   -0.806691
     21          6           0        3.331416    0.889633   -0.470419
     22          6           0        2.868810    2.019532    0.450075
     23          6           0        2.452050    3.274371   -0.317706
     24          1           0        4.173117    1.244077   -1.081037
     25          1           0        2.521104    0.640639   -1.169555
     26          1           0        3.679262    2.265379    1.148174
     27          1           0        2.028235    1.662296    1.058709
     28          1           0        1.627302    3.051046   -1.002191
     29          1           0        3.287709    3.657556   -0.912216
     30          1           0        2.124949    4.069367    0.359675
     31          6           0        3.751316   -0.371580    0.282411
     32          6           0        4.213922   -1.501479   -0.638083
     33          6           0        4.630681   -2.756317    0.129698
     34          1           0        4.561627   -0.122586    0.981546
     35          1           0        2.909614   -0.726025    0.893029
     36          1           0        5.054496   -1.144243   -1.246716
     37          1           0        3.403469   -1.747327   -1.336182
     38          1           0        3.795022   -3.139502    0.724209
     39          1           0        5.455429   -2.532993    0.814182
     40          1           0        4.957782   -3.551314   -0.547684
 ---------------------------------------------------------------------

 SCF Done:  E(RHF) =  -470.732706094     A.U. after   11 cycles
 E2 =    -0.1583661824D+01 EUMP2 =    -0.47231636791759D+03

 The electronic state is 1-A.
 Alpha  occ. eigenvalues --  -11.21675 -11.21632 -11.21548 -11.21531 -11.21454
 Alpha  occ. eigenvalues --  -11.21392 -11.21318 -11.21257 -11.21158 -11.21094
 Alpha  occ. eigenvalues --  -11.21049 -11.21017  -1.08487  -1.08360  -1.03593
 Alpha  occ. eigenvalues --   -1.03471  -0.96053  -0.95915  -0.87071  -0.86936
 Alpha  occ. eigenvalues --   -0.79657  -0.79543  -0.78292  -0.78184  -0.65151
 Alpha  occ. eigenvalues --   -0.65006  -0.61050  -0.60841  -0.59420  -0.59263
 Alpha  occ. eigenvalues --   -0.57655  -0.57533  -0.55337  -0.55210  -0.52783
 Alpha  occ. eigenvalues --   -0.52596  -0.52473  -0.52341  -0.50044  -0.49805
 Alpha  occ. eigenvalues --   -0.48013  -0.47845  -0.46689  -0.46566  -0.45847
 Alpha  occ. eigenvalues --   -0.45772  -0.45722  -0.45581  -0.43777  -0.43699
 Alpha virt. eigenvalues --    0.20654   0.23011   0.23830   0.24971   0.25740
 Alpha virt. eigenvalues --    0.26043   0.26795   0.27587   0.27910   0.29534
 Alpha virt. eigenvalues --    0.30661   0.31087   0.31821   0.32083   0.32141

 Mulliken charges:
               1
     1  C   -0.298675
     2  C   -0.300087
     3  C   -0.482975
     4  H    0.149801
     5  H    0.149520
     6  H    0.152181
     7  H    0.152473
     8  H    0.155785
     9  H    0.155190
    10  H    0.167161
    11  C   -0.298313
    12  C   -0.299676
    13  C   -0.475738
    14  H    0.149636
    15  H    0.149818
    16  H    0.151985
    17  H    0.151978
    18  H    0.155263
    19  H    0.155234
    20  H    0.160360
    21  C   -0.299566
    22  C   -0.303436
    23  C   -0.475464
    24  H    0.149392
    25  H    0.151959
    26  H    0.151723
    27  H    0.155069
    28  H    0.154775
    29  H    0.155179
    30  H    0.159906
    31  C   -0.301787
    32  C   -0.299462
    33  C   -0.475724
    34  H    0.148823
    35  H    0.153768
    36  H    0.151506
    37  H    0.152312
    38  H    0.155236
    39  H    0.154915
    40  H    0.159955
 Sum of Mulliken charges =  -0.00000

 Dipole moment (field-independent basis, Debye):
    X=             -0.0417    Y=             -0.0096    Z=              0.0055  Tot=              0.0432
 Quadrupole moment (field-independent basis, Debye-Ang):
   XX=            -85.2131   YY=            -85.1992   ZZ=            -84.5308
   XY=              1.0699   XZ=             -0.0078   YZ=             -0.1606

 Normal termination of Gaussian 16 at Thu May  6 02:13:30 2021.
