 Gaussian 16, Revision A.03,
 Gaussian 16:  EM64L-G16RevA.03 25-Dec-2016

 -------------
 #p 6-31g* mp2
 -------------

 ------------------------------------------------------
 Input file generated by CHIRIPA (05-May-2021 14:51:10)
 ------------------------------------------------------
 Symbolic Z-matrix:
 Charge =  0 Multiplicity = 1

                         Standard orientation:
 ---------------------------------------------------------------------
 Center     Atomic      Atomic             Coordinates (Angstroms)
 Number     Number       Type             X           Y           Z
 ---------------------------------------------------------------------
      1          6           0        3.979765    0.210655   -0.373424
      2          6           0        5.175005    1.017239    0.135308
      3          6           0        5.986388    1.649158   -0.996121
      4          1           0        4.338067   -0.574954   -1.052675
      5          1           0        3.330407    0.866850   -0.969358
      6          1           0        5.821199    0.360052    0.731257
      7          1           0        4.813834    1.800899    0.813577
      8          1           0        5.361277    2.326873   -1.586493
      9          1           0        6.374365    0.877840   -1.669280
     10          1           0        6.835927    2.221051   -0.610010
     11          6           0        3.158825   -0.427252    0.745889
     12          6           0        1.963585   -1.233836    0.237157
     13          6           0        1.152202   -1.865754    1.368586
     14          1           0        3.808184   -1.083447    1.341822
     15          1           0        2.800524    0.358358    1.425140
     16          1           0        2.324756   -2.017496   -0.441112
     17          1           0        1.317392   -0.576649   -0.358792
     18          1           0        0.764225   -1.094437    2.041745
     19          1           0        1.777313   -2.543470    1.958957
     20          1           0        0.302664   -2.437648    0.982475
     21          6           0       -3.141599   -0.500408   -0.013072
     22          6           0       -3.344449   -1.675935   -0.969614
     23          6           0       -2.481984   -2.886196   -0.610149
     24          1           0       -2.081711   -0.211327   -0.017108
     25          1           0       -3.372987   -0.825625    1.010690
     26          1           0       -3.114079   -1.348219   -1.991450
     27          1           0       -4.404011   -1.962127   -0.963446
     28          1           0       -2.716798   -3.240559    0.398756
     29          1           0       -1.419537   -2.623164   -0.635088
     30          1           0       -2.642770   -3.714878   -1.306778
     31          6           0       -3.996991    0.717005   -0.359392
     32          6           0       -3.794141    1.892532    0.597149
     33          6           0       -4.656607    3.102793    0.237684
     34          1           0       -3.765603    1.042221   -1.383155
     35          1           0       -5.056878    0.427924   -0.355357
     36          1           0       -2.734579    2.178724    0.590981
     37          1           0       -4.024511    1.564816    1.618985
     38          1           0       -5.719053    2.839760    0.262623
     39          1           0       -4.421792    3.457156   -0.771221
     40          1           0       -4.495820    3.931475    0.934313
 ---------------------------------------------------------------------

 SCF Done:  E(RHF) =  -470.733262901     A.U. after   11 cycles
 E2 =    -0.1582671654D+01 EUMP2 =    -0.47231593455547D+03

 The electronic state is 1-A.
 Alpha  occ. eigenvalues --  -11.21618 -11.21616 -11.21614 -11.21609 -11.21413
 Alpha  occ. eigenvalues --  -11.21412 -11.21354 -11.21352 -11.21084 -11.21080
 Alpha  occ. eigenvalues --  -11.21078 -11.20996  -1.08447  -1.08429  -1.03562
 Alpha  occ. eigenvalues --   -1.03512  -0.96021  -0.95948  -0.87049  -0.86953
 Alpha  occ. eigenvalues --   -0.79635  -0.79566  -0.78255  -0.78246  -0.65098
 Alpha  occ. eigenvalues --   -0.65042  -0.60983  -0.60904  -0.59472  -0.59265
 Alpha  occ. eigenvalues --   -0.57753  -0.57450  -0.55280  -0.55256  -0.52802
 Alpha  occ. eigenvalues --   -0.52687  -0.52480  -0.52209  -0.49924  -0.49911
 Alpha  occ. eigenvalues --   -0.48019  -0.47794  -0.46643  -0.46616  -0.45803
 Alpha  occ. eigenvalues --   -0.45780  -0.45741  -0.45683  -0.43800  -0.43755
 Alpha virt. eigenvalues --    0.20914   0.23159   0.23421   0.24963   0.26227
 Alpha virt. eigenvalues --    0.26638   0.26896   0.27482   0.27732   0.29139
 Alpha virt. eigenvalues --    0.30847   0.31266   0.31528   0.31760   0.32114

 Mulliken charges:
               1
     1  C   -0.298267
     2  C   -0.299672
     3  C   -0.475705
     4  H    0.149688
     5  H    0.149243
     6  H    0.152009
     7  H    0.151950
     8  H    0.155113
     9  H    0.155201
    10  H    0.160297
    11  C   -0.298111
    12  C   -0.300576
    13  C   -0.482125
    14  H    0.149826
    15  H    0.149723
    16  H    0.151982
    17  H    0.150964
    18  H    0.155287
    19  H    0.154924
    20  H    0.167250
    21  C   -0.299411
    22  C   -0.299464
    23  C   -0.481154
    24  H    0.150803
    25  H    0.149811
    26  H    0.151883
    27  H    0.152029
    28  H    0.155462
    29  H    0.160672
    30  H    0.160482
    31  C   -0.298337
    32  C   -0.299568
    33  C   -0.475709
    34  H    0.149437
    35  H    0.149764
    36  H    0.151587
    37  H    0.152054
    38  H    0.155268
    39  H    0.155155
    40  H    0.160234
 Sum of Mulliken charges =  -0.00000

 Dipole moment (field-independent basis, Debye):
    X=             -0.0161    Y=             -0.0148    Z=              0.0028  Tot=              0.0220
 Quadrupole moment (field-independent basis, Debye-Ang):
   XX=            -84.6310   YY=            -85.1078   ZZ=            -84.9594
   XY=             -0.0362   XZ=             -0.0866   YZ=              0.3180

 Normal termination of Gaussian 16 at Thu May  6 05:24:21 2021.
