 Gaussian 16, Revision A.03,
 Gaussian 16:  EM64L-G16RevA.03 25-Dec-2016

 -------------
 #p 6-31g* mp2
 -------------

 ------------------------------------------------------
 Input file generated by CHIRIPA (05-May-2021 14:53:15)
 ------------------------------------------------------
 Symbolic Z-matrix:
 Charge =  0 Multiplicity = 1

                         Standard orientation:
 ---------------------------------------------------------------------
 Center     Atomic      Atomic             Coordinates (Angstroms)
 Number     Number       Type             X           Y           Z
 ---------------------------------------------------------------------
      1          6           0        4.140329    0.844546   -0.380862
      2          6           0        2.781715    1.390296   -0.821670
      3          6           0        2.827684    2.877843   -1.172218
      4          1           0        4.493828    1.416680    0.487842
      5          1           0        4.872280    1.010637   -1.183393
      6          1           0        2.052223    1.221980   -0.019095
      7          1           0        2.431320    0.816671   -1.689308
      8          1           0        3.534214    3.059607   -1.988537
      9          1           0        3.152963    3.467219   -0.308835
     10          1           0        1.845947    3.247196   -1.484679
     11          6           0        4.110500   -0.641276   -0.027069
     12          6           0        5.469113   -1.187026    0.413739
     13          6           0        5.423145   -2.674573    0.764287
     14          1           0        3.378548   -0.807367    0.775462
     15          1           0        3.757000   -1.213410   -0.895773
     16          1           0        5.819508   -0.613401    1.281377
     17          1           0        6.198606   -1.018710   -0.388836
     18          1           0        5.097865   -3.263949   -0.099096
     19          1           0        4.716614   -2.856337    1.580606
     20          1           0        6.404881   -3.043926    1.076748
     21          6           0       -1.582914    1.553417    1.164339
     22          6           0       -1.119606    0.390374    0.540483
     23          6           0       -2.019242   -0.521383   -0.019786
     24          6           0       -3.381536   -0.237257    0.062189
     25          6           0       -3.874094    0.912761    0.677116
     26          6           0       -2.956258    1.810446    1.230547
     27          1           0       -0.876986    2.256227    1.596913
     28          1           0       -0.053605    0.188169    0.487585
     29          1           0       -1.687877   -1.429495   -0.508609
     30          1           0       -4.942589    1.087000    0.714245
     31          1           0       -3.318932    2.712872    1.714427
     32          7           0       -4.343573   -1.195045   -0.527323
     33          8           0       -5.538815   -0.921657   -0.441931
     34          8           0       -3.884161   -2.201012   -1.063614
 ---------------------------------------------------------------------

 SCF Done:  E(RHF) =  -669.535517655     A.U. after   15 cycles
 E2 =    -0.2091112523D+01 EUMP2 =    -0.67162663017709D+03

 The electronic state is 1-A.
 Alpha  occ. eigenvalues --  -20.60727 -20.60722 -15.85780 -11.31138 -11.27707
 Alpha  occ. eigenvalues --  -11.27692 -11.27445 -11.26727 -11.26673 -11.22642
 Alpha  occ. eigenvalues --  -11.22199 -11.22172 -11.22104 -11.21922 -11.21529
 Alpha  occ. eigenvalues --   -1.59803  -1.39357  -1.19308  -1.09210  -1.08706
 Alpha  occ. eigenvalues --   -1.04708  -1.04270  -0.96689  -0.95542  -0.87707
 Alpha  occ. eigenvalues --   -0.86111  -0.82374  -0.80366  -0.79024  -0.77418
 Alpha  occ. eigenvalues --   -0.71999  -0.71126  -0.70420  -0.65863  -0.64959
 Alpha  occ. eigenvalues --   -0.64715  -0.62098  -0.61632  -0.60067  -0.58304
 Alpha  occ. eigenvalues --   -0.55966  -0.55215  -0.53391  -0.53116  -0.53040
 Alpha  occ. eigenvalues --   -0.52806  -0.50631  -0.48791  -0.48754  -0.48618
 Alpha  occ. eigenvalues --   -0.47397  -0.46542  -0.46467  -0.44764  -0.44523
 Alpha  occ. eigenvalues --   -0.37291  -0.36308
 Alpha virt. eigenvalues --    0.05110   0.11311   0.16603   0.19609   0.22560
 Alpha virt. eigenvalues --    0.23760   0.24726   0.26199   0.27137   0.28266
 Alpha virt. eigenvalues --    0.28749   0.30683   0.30985   0.31253   0.31823

 Mulliken charges:
               1
     1  C   -0.298022
     2  C   -0.303331
     3  C   -0.476578
     4  H    0.150534
     5  H    0.153545
     6  H    0.141734
     7  H    0.155582
     8  H    0.159972
     9  H    0.155072
    10  H    0.161415
    11  C   -0.299088
    12  C   -0.300079
    13  C   -0.476318
    14  H    0.144730
    15  H    0.151286
    16  H    0.152602
    17  H    0.153985
    18  H    0.156616
    19  H    0.155159
    20  H    0.162416
    21  C   -0.172720
    22  C   -0.223252
    23  C   -0.172297
    24  C    0.158885
    25  C   -0.171387
    26  C   -0.218556
    27  H    0.225076
    28  H    0.231645
    29  H    0.275938
    30  H    0.275395
    31  H    0.223170
    32  N    0.487971
    33  O   -0.460617
    34  O   -0.460480
 Sum of Mulliken charges =  -0.00000

 Dipole moment (field-independent basis, Debye):
    X=              3.6122    Y=              3.3858    Z=              2.0024  Tot=              5.3406
 Quadrupole moment (field-independent basis, Debye-Ang):
   XX=           -114.1822   YY=            -95.9870   ZZ=            -93.8990
   XY=            -14.8013   XZ=             -8.5963   YZ=              1.1604

 Normal termination of Gaussian 16 at Thu May  6 15:30:07 2021.
