 Gaussian 16, Revision A.03,
 Gaussian 16:  EM64L-G16RevA.03 25-Dec-2016

 -------------
 #p 6-31g* mp2
 -------------

 ------------------------------------------------------
 Input file generated by CHIRIPA (05-May-2021 14:51:11)
 ------------------------------------------------------
 Symbolic Z-matrix:
 Charge =  0 Multiplicity = 1

                         Standard orientation:
 ---------------------------------------------------------------------
 Center     Atomic      Atomic             Coordinates (Angstroms)
 Number     Number       Type             X           Y           Z
 ---------------------------------------------------------------------
      1          6           0        2.903687   -0.522994    0.707332
      2          6           0        2.003846   -1.594668    0.091066
      3          6           0        1.334788   -2.480800    1.142220
      4          1           0        3.673090   -1.008880    1.322864
      5          1           0        2.306812    0.100275    1.387532
      6          1           0        2.601939   -2.214868   -0.588826
      7          1           0        1.236613   -1.106184   -0.523224
      8          1           0        0.714599   -1.879440    1.814777
      9          1           0        2.087682   -2.994424    1.748802
     10          1           0        0.696176   -3.239878    0.679797
     11          6           0        3.579623    0.370842   -0.330886
     12          6           0        4.479464    1.442516    0.285381
     13          6           0        5.148522    2.328648   -0.765773
     14          1           0        4.176498   -0.252427   -1.011085
     15          1           0        2.810220    0.856728   -0.946417
     16          1           0        5.246697    0.954031    0.899671
     17          1           0        3.881371    2.062716    0.965273
     18          1           0        4.395628    2.842272   -1.372355
     19          1           0        5.768711    1.727288   -1.438330
     20          1           0        5.787134    3.087726   -0.303351
     21          6           0       -2.785697   -0.354558   -0.624214
     22          6           0       -2.703416   -1.810028   -0.162889
     23          6           0       -1.787469   -2.658901   -1.045074
     24          1           0       -3.144006   -0.325314   -1.662339
     25          1           0       -1.775909    0.078678   -0.629759
     26          1           0       -3.713229   -2.239979   -0.156891
     27          1           0       -2.345443   -1.835800    0.874323
     28          1           0       -0.769299   -2.256503   -1.042824
     29          1           0       -2.144856   -2.662978   -2.079897
     30          1           0       -1.743267   -3.695714   -0.697330
     31          6           0       -3.697613    0.506710    0.247767
     32          6           0       -3.779894    1.962180   -0.213558
     33          6           0       -4.695840    2.811053    0.668627
     34          1           0       -4.707401    0.073475    0.253312
     35          1           0       -3.339304    0.477467    1.285894
     36          1           0       -4.137867    1.987953   -1.250769
     37          1           0       -2.770081    2.392131   -0.219555
     38          1           0       -4.338455    2.815130    1.703451
     39          1           0       -5.714012    2.408655    0.666377
     40          1           0       -4.740042    3.847866    0.320883
 ---------------------------------------------------------------------

 SCF Done:  E(RHF) =  -470.732428126     A.U. after   11 cycles
 E2 =    -0.1583739206D+01 EUMP2 =    -0.47231616733161D+03

 The electronic state is 1-A.
 Alpha  occ. eigenvalues --  -11.21654 -11.21627 -11.21622 -11.21577 -11.21443
 Alpha  occ. eigenvalues --  -11.21421 -11.21382 -11.21362 -11.21089 -11.21088
 Alpha  occ. eigenvalues --  -11.21042 -11.20981  -1.08481  -1.08425  -1.03618
 Alpha  occ. eigenvalues --   -1.03476  -0.96088  -0.95899  -0.87074  -0.86943
 Alpha  occ. eigenvalues --   -0.79656  -0.79571  -0.78312  -0.78223  -0.65219
 Alpha  occ. eigenvalues --   -0.64980  -0.61248  -0.60737  -0.59422  -0.59288
 Alpha  occ. eigenvalues --   -0.57703  -0.57552  -0.55439  -0.55054  -0.52804
 Alpha  occ. eigenvalues --   -0.52582  -0.52437  -0.52349  -0.49955  -0.49861
 Alpha  occ. eigenvalues --   -0.48021  -0.47841  -0.46846  -0.46466  -0.45908
 Alpha  occ. eigenvalues --   -0.45789  -0.45754  -0.45537  -0.43862  -0.43732
 Alpha virt. eigenvalues --    0.20489   0.23249   0.23519   0.25488   0.25667
 Alpha virt. eigenvalues --    0.26497   0.26883   0.27387   0.28204   0.29125
 Alpha virt. eigenvalues --    0.30038   0.30993   0.31154   0.32129   0.32692

 Mulliken charges:
               1
     1  C   -0.297669
     2  C   -0.304582
     3  C   -0.480101
     4  H    0.150047
     5  H    0.149213
     6  H    0.152740
     7  H    0.153738
     8  H    0.154614
     9  H    0.155426
    10  H    0.166318
    11  C   -0.298456
    12  C   -0.299667
    13  C   -0.475738
    14  H    0.149770
    15  H    0.149580
    16  H    0.152051
    17  H    0.151844
    18  H    0.155229
    19  H    0.155282
    20  H    0.160337
    21  C   -0.299170
    22  C   -0.300170
    23  C   -0.483487
    24  H    0.149838
    25  H    0.148931
    26  H    0.151847
    27  H    0.153169
    28  H    0.165350
    29  H    0.154573
    30  H    0.159127
    31  C   -0.298260
    32  C   -0.299601
    33  C   -0.475707
    34  H    0.149803
    35  H    0.149481
    36  H    0.152042
    37  H    0.151542
    38  H    0.155144
    39  H    0.155301
    40  H    0.160274
 Sum of Mulliken charges =  -0.00000

 Dipole moment (field-independent basis, Debye):
    X=              0.0220    Y=             -0.0154    Z=             -0.0012  Tot=              0.0269
 Quadrupole moment (field-independent basis, Debye-Ang):
   XX=            -84.2002   YY=            -85.3626   ZZ=            -85.1758
   XY=             -0.3287   XZ=              1.1032   YZ=              0.2115

 Normal termination of Gaussian 16 at Thu May  6 00:41:35 2021.
