 Gaussian 16, Revision A.03,
 Gaussian 16:  EM64L-G16RevA.03 25-Dec-2016

 -------------
 #p 6-31g* mp2
 -------------

 ------------------------------------------------------
 Input file generated by CHIRIPA (05-May-2021 14:51:13)
 ------------------------------------------------------
 Symbolic Z-matrix:
 Charge =  0 Multiplicity = 1

                         Standard orientation:
 ---------------------------------------------------------------------
 Center     Atomic      Atomic             Coordinates (Angstroms)
 Number     Number       Type             X           Y           Z
 ---------------------------------------------------------------------
      1          6           0        2.246127   -1.441365   -0.217452
      2          6           0        1.023832   -1.733665    0.653489
      3          6           0        0.176158   -2.886503    0.114780
      4          1           0        1.913734   -1.208131   -1.238266
      5          1           0        2.862142   -2.348457   -0.288897
      6          1           0        0.411020   -0.825893    0.724404
      7          1           0        1.359162   -1.966042    1.672396
      8          1           0        0.767118   -3.806502    0.060297
      9          1           0       -0.186412   -2.659876   -0.893081
     10          1           0       -0.692314   -3.078413    0.752579
     11          6           0        3.103476   -0.291391    0.308135
     12          6           0        4.325772    0.000909   -0.562806
     13          6           0        5.173446    1.153747   -0.024097
     14          1           0        2.487462    0.615702    0.379580
     15          1           0        3.435870   -0.524624    1.328949
     16          1           0        3.990441    0.233286   -1.581713
     17          1           0        4.938584   -0.906862   -0.633721
     18          1           0        5.536015    0.927120    0.983764
     19          1           0        4.582486    2.073747    0.030386
     20          1           0        6.041917    1.345658   -0.661896
     21          6           0       -1.998863    1.220632   -0.077623
     22          6           0       -2.093952    2.730008    0.147602
     23          6           0       -0.733547    3.424650    0.080036
     24          1           0       -1.325826    0.785853    0.673998
     25          1           0       -1.537728    1.031394   -1.056878
     26          1           0       -2.556034    2.916351    1.125545
     27          1           0       -2.766991    3.161218   -0.604523
     28          1           0       -0.269291    3.268157   -0.899033
     29          1           0       -0.057135    3.021899    0.840866
     30          1           0       -0.824794    4.502946    0.243781
     31          6           0       -3.350741    0.512123   -0.013060
     32          6           0       -3.255652   -0.997253   -0.238285
     33          6           0       -4.616057   -1.691894   -0.170720
     34          1           0       -3.811875    0.701361    0.966195
     35          1           0       -4.023778    0.946903   -0.764681
     36          1           0       -2.582613   -1.428462    0.513840
     37          1           0       -2.793571   -1.183596   -1.216228
     38          1           0       -5.292468   -1.289144   -0.931548
     39          1           0       -5.080312   -1.535402    0.808351
     40          1           0       -4.524811   -2.770190   -0.334463
 ---------------------------------------------------------------------

 SCF Done:  E(RHF) =  -470.732632806     A.U. after   11 cycles
 E2 =    -0.1584332044D+01 EUMP2 =    -0.47231696485018D+03

 The electronic state is 1-A.
 Alpha  occ. eigenvalues --  -11.21656 -11.21570 -11.21564 -11.21514 -11.21445
 Alpha  occ. eigenvalues --  -11.21377 -11.21362 -11.21302 -11.21142 -11.21062
 Alpha  occ. eigenvalues --  -11.21039 -11.20991  -1.08481  -1.08371  -1.03566
 Alpha  occ. eigenvalues --   -1.03473  -0.96014  -0.95933  -0.87052  -0.86927
 Alpha  occ. eigenvalues --   -0.79685  -0.79488  -0.78353  -0.78147  -0.65175
 Alpha  occ. eigenvalues --   -0.64952  -0.60970  -0.60887  -0.59447  -0.59243
 Alpha  occ. eigenvalues --   -0.57631  -0.57547  -0.55317  -0.55213  -0.52715
 Alpha  occ. eigenvalues --   -0.52627  -0.52474  -0.52336  -0.49995  -0.49848
 Alpha  occ. eigenvalues --   -0.48018  -0.47812  -0.46719  -0.46573  -0.46055
 Alpha  occ. eigenvalues --   -0.45787  -0.45685  -0.45232  -0.43817  -0.43719
 Alpha virt. eigenvalues --    0.20852   0.22725   0.23592   0.24223   0.25390
 Alpha virt. eigenvalues --    0.26176   0.27332   0.27535   0.27831   0.29877
 Alpha virt. eigenvalues --    0.30105   0.31473   0.31635   0.32014   0.32186

 Mulliken charges:
               1
     1  C   -0.297317
     2  C   -0.309206
     3  C   -0.475824
     4  H    0.149431
     5  H    0.149311
     6  H    0.160382
     7  H    0.150959
     8  H    0.154410
     9  H    0.156539
    10  H    0.160272
    11  C   -0.299092
    12  C   -0.299520
    13  C   -0.475823
    14  H    0.150203
    15  H    0.149315
    16  H    0.151850
    17  H    0.151810
    18  H    0.155003
    19  H    0.155557
    20  H    0.160104
    21  C   -0.304936
    22  C   -0.298856
    23  C   -0.476580
    24  H    0.155905
    25  H    0.148798
    26  H    0.152186
    27  H    0.152271
    28  H    0.154927
    29  H    0.155253
    30  H    0.160844
    31  C   -0.297760
    32  C   -0.303895
    33  C   -0.475929
    34  H    0.149290
    35  H    0.149604
    36  H    0.158204
    37  H    0.151833
    38  H    0.155027
    39  H    0.154876
    40  H    0.160571
 Sum of Mulliken charges =  -0.00000

 Dipole moment (field-independent basis, Debye):
    X=             -0.0360    Y=              0.0158    Z=             -0.0000  Tot=              0.0393
 Quadrupole moment (field-independent basis, Debye-Ang):
   XX=            -85.8989   YY=            -85.4420   ZZ=            -83.5293
   XY=             -1.5076   XZ=              0.2300   YZ=             -0.6894

 Normal termination of Gaussian 16 at Thu May  6 07:09:16 2021.
