 Gaussian 16, Revision A.03,
 Gaussian 16:  EM64L-G16RevA.03 25-Dec-2016

 -------------
 #p 6-31g* mp2
 -------------

 ------------------------------------------------------
 Input file generated by CHIRIPA (05-May-2021 14:55:23)
 ------------------------------------------------------
 Symbolic Z-matrix:
 Charge =  0 Multiplicity = 1

                         Standard orientation:
 ---------------------------------------------------------------------
 Center     Atomic      Atomic             Coordinates (Angstroms)
 Number     Number       Type             X           Y           Z
 ---------------------------------------------------------------------
      1          6           0        5.422449    1.647806   -0.527826
      2          6           0        4.413602    2.050823    0.353268
      3          6           0        3.402433    1.161643    0.729360
      4          6           0        3.430992   -0.128828    0.202902
      5          6           0        4.422532   -0.560197   -0.676904
      6          6           0        5.423692    0.345877   -1.039198
      7          1           0        6.204061    2.345104   -0.814624
      8          1           0        4.410110    3.061301    0.751975
      9          1           0        2.609418    1.447322    1.409752
     10          1           0        4.399388   -1.573994   -1.057822
     11          1           0        6.205918    0.030129   -1.723647
     12          7           0        2.365811   -1.079105    0.593750
     13          8           0        2.413451   -2.210522    0.115981
     14          8           0        1.503452   -0.674522    1.370466
     15          6           0       -3.995474   -0.338098    0.148905
     16          6           0       -2.896696   -0.694166   -0.853038
     17          6           0       -1.661000   -1.298351   -0.185349
     18          1           0       -3.593902    0.368541    0.888055
     19          1           0       -4.282534   -1.241772    0.704212
     20          1           0       -2.612767    0.209629   -1.407255
     21          1           0       -3.300985   -1.399892   -1.590003
     22          1           0       -1.923266   -2.215041    0.352701
     23          1           0       -1.231136   -0.596375    0.536487
     24          1           0       -0.888157   -1.545413   -0.919879
     25          6           0       -5.237286    0.266958   -0.503428
     26          6           0       -6.336063    0.623025    0.498515
     27          6           0       -7.571760    1.227210   -0.169174
     28          1           0       -4.950226    1.170631   -1.058735
     29          1           0       -5.638858   -0.439682   -1.242579
     30          1           0       -5.931775    1.328751    1.235480
     31          1           0       -6.619993   -0.280770    1.052731
     32          1           0       -8.001623    0.525234   -0.891010
     33          1           0       -7.309494    2.143901   -0.707224
     34          1           0       -8.344603    1.474273    0.565355
 ---------------------------------------------------------------------

 SCF Done:  E(RHF) =  -669.535845097     A.U. after   15 cycles
 E2 =    -0.2091131825D+01 EUMP2 =    -0.67162697692188D+03

 The electronic state is 1-A.
 Alpha  occ. eigenvalues --  -20.60880 -20.60871 -15.85906 -11.31263 -11.27830
 Alpha  occ. eigenvalues --  -11.27825 -11.27570 -11.26843 -11.26833 -11.21092
 Alpha  occ. eigenvalues --  -11.20755 -11.20668 -11.20565 -11.20505 -11.19440
 Alpha  occ. eigenvalues --   -1.59930  -1.39489  -1.19433  -1.08830  -1.07670
 Alpha  occ. eigenvalues --   -1.04834  -1.02676  -0.95670  -0.95084  -0.86234
 Alpha  occ. eigenvalues --   -0.86087  -0.82502  -0.78761  -0.77552  -0.77449
 Alpha  occ. eigenvalues --   -0.72130  -0.71247  -0.70542  -0.65088  -0.64837
 Alpha  occ. eigenvalues --   -0.64313  -0.62182  -0.60081  -0.58531  -0.56701
 Alpha  occ. eigenvalues --   -0.55337  -0.54378  -0.53165  -0.52927  -0.51762
 Alpha  occ. eigenvalues --   -0.51506  -0.49125  -0.48881  -0.48785  -0.47053
 Alpha  occ. eigenvalues --   -0.45849  -0.45071  -0.44949  -0.44677  -0.42926
 Alpha  occ. eigenvalues --   -0.37411  -0.36437
 Alpha virt. eigenvalues --    0.04957   0.11218   0.16434   0.21347   0.23562
 Alpha virt. eigenvalues --    0.25198   0.27263   0.27376   0.28154   0.28232
 Alpha virt. eigenvalues --    0.29018   0.30914   0.32230   0.32417   0.32553

 Mulliken charges:
               1
     1  C   -0.170699
     2  C   -0.218526
     3  C   -0.170812
     4  C    0.158544
     5  C   -0.170856
     6  C   -0.218540
     7  H    0.225858
     8  H    0.223650
     9  H    0.275394
    10  H    0.275812
    11  H    0.223715
    12  N    0.489081
    13  O   -0.459520
    14  O   -0.459028
    15  C   -0.297170
    16  C   -0.301119
    17  C   -0.474643
    18  H    0.148896
    19  H    0.149495
    20  H    0.145692
    21  H    0.147647
    22  H    0.154773
    23  H    0.169171
    24  H    0.159061
    25  C   -0.297290
    26  C   -0.299022
    27  C   -0.475211
    28  H    0.147135
    29  H    0.148459
    30  H    0.151009
    31  H    0.151862
    32  H    0.154592
    33  H    0.153853
    34  H    0.158737
 Sum of Mulliken charges =  -0.00000

 Dipole moment (field-independent basis, Debye):
    X=              4.0543    Y=              3.2988    Z=             -1.2763  Tot=              5.3804
 Quadrupole moment (field-independent basis, Debye-Ang):
   XX=            -70.5483   YY=            -92.7748   ZZ=            -94.4907
   XY=             10.5033   XZ=             -6.0547   YZ=              3.4117

 Normal termination of Gaussian 16 at Wed May  5 22:21:03 2021.
