 Gaussian 16, Revision A.03,
 Gaussian 16:  EM64L-G16RevA.03 25-Dec-2016

 -------------
 #p 6-31g* mp2
 -------------

 ------------------------------------------------------
 Input file generated by CHIRIPA (05-May-2021 14:57:27)
 ------------------------------------------------------
 Symbolic Z-matrix:
 Charge =  0 Multiplicity = 1

                         Standard orientation:
 ---------------------------------------------------------------------
 Center     Atomic      Atomic             Coordinates (Angstroms)
 Number     Number       Type             X           Y           Z
 ---------------------------------------------------------------------
      1          6           0       -1.994945    2.262864    0.170008
      2          6           0       -2.294530    1.547195    1.333875
      3          6           0       -2.835768    0.260476    1.256650
      4          6           0       -3.065631   -0.282474   -0.006544
      5          6           0       -2.777757    0.405389   -1.184365
      6          6           0       -2.237088    1.690686   -1.083188
      7          1           0       -1.574719    3.261866    0.239301
      8          1           0       -2.107532    1.989048    2.308474
      9          1           0       -3.077059   -0.315785    2.141590
     10          1           0       -2.975266   -0.061506   -2.141661
     11          1           0       -2.005407    2.244156   -1.988749
     12          7           0       -3.638314   -1.643913   -0.100977
     13          8           0       -3.831452   -2.099936   -1.225867
     14          8           0       -3.883202   -2.229208    0.951685
     15          6           0        1.566486    2.150432   -0.130219
     16          6           0        2.049607    1.562697   -1.303966
     17          6           0        2.828889    0.403291   -1.248775
     18          6           0        3.107053   -0.144187    0.002697
     19          6           0        2.640265    0.417913    1.189897
     20          6           0        1.862834    1.577175    1.110778
     21          1           0        0.961840    3.051030   -0.182386
     22          1           0        1.821040    2.005706   -2.269131
     23          1           0        3.215752   -0.072429   -2.141774
     24          1           0        2.884774   -0.046771    2.137368
     25          1           0        1.488982    2.031446    2.023969
     26          7           0        3.931064   -1.371522    0.073791
     27          8           0        4.162060   -1.834373    1.188711
     28          8           0        4.330326   -1.847416   -0.986752
 ---------------------------------------------------------------------

 SCF Done:  E(RHF) =  -868.335163443     A.U. after   16 cycles
 E2 =    -0.2602139016D+01 EUMP2 =    -0.87093730245890D+03

 The electronic state is 1-A.
 Alpha  occ. eigenvalues --  -20.61154 -20.61149 -20.60998 -20.60993 -15.86216
 Alpha  occ. eigenvalues --  -15.86059 -11.31771 -11.31559 -11.28375 -11.28371
 Alpha  occ. eigenvalues --  -11.28294 -11.28171 -11.28165 -11.28059 -11.27494
 Alpha  occ. eigenvalues --  -11.27482 -11.27265 -11.27247  -1.60224  -1.60070
 Alpha  occ. eigenvalues --   -1.39773  -1.39620  -1.19990  -1.19772  -1.09403
 Alpha  occ. eigenvalues --   -1.09148  -1.05421  -1.05203  -0.96209  -0.95947
 Alpha  occ. eigenvalues --   -0.86842  -0.86607  -0.83025  -0.82784  -0.77983
 Alpha  occ. eigenvalues --   -0.77799  -0.72435  -0.72278  -0.71548  -0.71439
 Alpha  occ. eigenvalues --   -0.71393  -0.70748  -0.65664  -0.65489  -0.65444
 Alpha  occ. eigenvalues --   -0.65217  -0.62771  -0.62551  -0.56290  -0.55572
 Alpha  occ. eigenvalues --   -0.53966  -0.53546  -0.53323  -0.53264  -0.49209
 Alpha  occ. eigenvalues --   -0.49174  -0.49048  -0.49021  -0.45136  -0.44996
 Alpha  occ. eigenvalues --   -0.38516  -0.37285  -0.37089  -0.36651
 Alpha virt. eigenvalues --    0.04301   0.04976   0.10180   0.11240   0.15597
 Alpha virt. eigenvalues --    0.16545   0.18555   0.22251   0.25223   0.25485
 Alpha virt. eigenvalues --    0.27703   0.29052   0.29881   0.31391   0.32809

 Mulliken charges:
               1
     1  C   -0.171512
     2  C   -0.218256
     3  C   -0.168947
     4  C    0.160089
     5  C   -0.168767
     6  C   -0.216627
     7  H    0.217318
     8  H    0.221149
     9  H    0.278004
    10  H    0.277669
    11  H    0.220074
    12  N    0.488060
    13  O   -0.458399
    14  O   -0.458143
    15  C   -0.162747
    16  C   -0.219229
    17  C   -0.169371
    18  C    0.159205
    19  C   -0.169715
    20  C   -0.216375
    21  H    0.213447
    22  H    0.220462
    23  H    0.277311
    24  H    0.276919
    25  H    0.218109
    26  N    0.488167
    27  O   -0.459040
    28  O   -0.458855
 Sum of Mulliken charges =  -0.00000

 Dipole moment (field-independent basis, Debye):
    X=             -0.9326    Y=              8.8073    Z=              0.0710  Tot=              8.8569
 Quadrupole moment (field-independent basis, Debye-Ang):
   XX=           -136.1950   YY=           -110.8063   ZZ=            -94.7565
   XY=             -1.3255   XZ=             -2.4234   YZ=             -0.4092

 Normal termination of Gaussian 16 at Thu May  6 11:32:41 2021.
