 Gaussian 16, Revision A.03,
 Gaussian 16:  EM64L-G16RevA.03 25-Dec-2016

 -------------
 #p 6-31g* mp2
 -------------

 ------------------------------------------------------
 Input file generated by CHIRIPA (05-May-2021 14:53:18)
 ------------------------------------------------------
 Symbolic Z-matrix:
 Charge =  0 Multiplicity = 1

                         Standard orientation:
 ---------------------------------------------------------------------
 Center     Atomic      Atomic             Coordinates (Angstroms)
 Number     Number       Type             X           Y           Z
 ---------------------------------------------------------------------
      1          6           0       -4.979373    0.297167   -0.368441
      2          6           0       -6.388774    0.477320    0.196464
      3          6           0       -7.248279    1.418540   -0.648017
      4          1           0       -4.490888    1.278739   -0.438050
      5          1           0       -5.049799   -0.090367   -1.394235
      6          1           0       -6.315678    0.863093    1.221380
      7          1           0       -6.873891   -0.504816    0.264916
      8          1           0       -7.350876    1.035179   -1.668365
      9          1           0       -6.789492    2.410860   -0.706466
     10          1           0       -8.251652    1.532990   -0.226111
     11          6           0       -4.108068   -0.641030    0.464831
     12          6           0       -2.698667   -0.821183   -0.100075
     13          6           0       -1.839162   -1.762402    0.744407
     14          1           0       -4.037642   -0.253495    1.490624
     15          1           0       -4.596553   -1.622601    0.534440
     16          1           0       -2.213551    0.160954   -0.168526
     17          1           0       -2.771763   -1.206955   -1.124991
     18          1           0       -2.297949   -2.754722    0.802856
     19          1           0       -1.736565   -1.379041    1.764754
     20          1           0       -0.835789   -1.876852    0.322501
     21          6           0        4.109933    2.581927    0.210096
     22          6           0        5.101516    1.671996   -0.171100
     23          6           0        4.802510    0.313527   -0.311471
     24          6           0        3.495629   -0.102304   -0.061604
     25          6           0        2.485797    0.779841    0.319645
     26          6           0        2.807535    2.133735    0.453823
     27          1           0        4.351037    3.635442    0.316734
     28          1           0        6.113834    2.017227   -0.361032
     29          1           0        5.550844   -0.412476   -0.605298
     30          1           0        1.485703    0.405765    0.502122
     31          1           0        2.035433    2.838138    0.749999
     32          7           0        3.167052   -1.538033   -0.206929
     33          8           0        2.008060   -1.879111    0.018993
     34          8           0        4.074727   -2.295095   -0.544005
 ---------------------------------------------------------------------

 SCF Done:  E(RHF) =  -669.536072948     A.U. after   15 cycles
 E2 =    -0.2090836791D+01 EUMP2 =    -0.67162690973978D+03

 The electronic state is 1-A.
 Alpha  occ. eigenvalues --  -20.60887 -20.60876 -15.85934 -11.31252 -11.27819
 Alpha  occ. eigenvalues --  -11.27813 -11.27560 -11.26829 -11.26819 -11.21482
 Alpha  occ. eigenvalues --  -11.21227 -11.21214 -11.21089 -11.20998 -11.20260
 Alpha  occ. eigenvalues --   -1.59952  -1.39508  -1.19424  -1.08828  -1.08186
 Alpha  occ. eigenvalues --   -1.04821  -1.03222  -0.95689  -0.95622  -0.86650
 Alpha  occ. eigenvalues --   -0.86221  -0.82505  -0.79295  -0.78002  -0.77555
 Alpha  occ. eigenvalues --   -0.72162  -0.71268  -0.70533  -0.65082  -0.64838
 Alpha  occ. eigenvalues --   -0.64816  -0.62170  -0.60636  -0.59006  -0.57238
 Alpha  occ. eigenvalues --   -0.55327  -0.54948  -0.53153  -0.52914  -0.52271
 Alpha  occ. eigenvalues --   -0.52058  -0.49606  -0.48908  -0.48898  -0.47589
 Alpha  occ. eigenvalues --   -0.46362  -0.45537  -0.45477  -0.44921  -0.43441
 Alpha  occ. eigenvalues --   -0.37405  -0.36423
 Alpha virt. eigenvalues --    0.04977   0.11231   0.16474   0.20890   0.22970
 Alpha virt. eigenvalues --    0.24067   0.26639   0.27104   0.27608   0.27810
 Alpha virt. eigenvalues --    0.29070   0.30778   0.31624   0.31833   0.32109

 Mulliken charges:
               1
     1  C   -0.297533
     2  C   -0.299358
     3  C   -0.475445
     4  H    0.146632
     5  H    0.149937
     6  H    0.150984
     7  H    0.152594
     8  H    0.155409
     9  H    0.153819
    10  H    0.159858
    11  C   -0.297458
    12  C   -0.298370
    13  C   -0.488867
    14  H    0.147344
    15  H    0.150735
    16  H    0.142531
    17  H    0.153386
    18  H    0.155281
    19  H    0.148483
    20  H    0.187773
    21  C   -0.170561
    22  C   -0.218633
    23  C   -0.170840
    24  C    0.157658
    25  C   -0.171242
    26  C   -0.218891
    27  H    0.225839
    28  H    0.223669
    29  H    0.275728
    30  H    0.277575
    31  H    0.223761
    32  N    0.495729
    33  O   -0.468217
    34  O   -0.459310
 Sum of Mulliken charges =  -0.00000

 Dipole moment (field-independent basis, Debye):
    X=              1.3402    Y=              4.9641    Z=              0.4760  Tot=              5.1638
 Quadrupole moment (field-independent basis, Debye-Ang):
   XX=            -83.0335   YY=            -95.7856   ZZ=            -95.4130
   XY=             17.7203   XZ=              0.1960   YZ=              0.7969

 Normal termination of Gaussian 16 at Thu May  6 19:01:26 2021.
