 Gaussian 16, Revision A.03,
 Gaussian 16:  EM64L-G16RevA.03 25-Dec-2016

 -------------
 #p 6-31g* mp2
 -------------

 ------------------------------------------------------
 Input file generated by CHIRIPA (05-May-2021 14:55:20)
 ------------------------------------------------------
 Symbolic Z-matrix:
 Charge =  0 Multiplicity = 1

                         Standard orientation:
 ---------------------------------------------------------------------
 Center     Atomic      Atomic             Coordinates (Angstroms)
 Number     Number       Type             X           Y           Z
 ---------------------------------------------------------------------
      1          6           0       -4.056526    1.546608    0.907004
      2          6           0       -4.383312    0.916226   -0.298131
      3          6           0       -3.574493   -0.103776   -0.807992
      4          6           0       -2.441244   -0.469877   -0.083419
      5          6           0       -2.089074    0.139105    1.120079
      6          6           0       -2.912468    1.156723    1.611022
      7          1           0       -4.690497    2.338044    1.295728
      8          1           0       -5.271192    1.216948   -0.847021
      9          1           0       -3.804021   -0.608635   -1.738503
     10          1           0       -1.197555   -0.182452    1.644685
     11          1           0       -2.656223    1.644521    2.547204
     12          7           0       -1.577269   -1.548446   -0.613172
     13          8           0       -0.584309   -1.852592    0.044219
     14          8           0       -1.909405   -2.069258   -1.675752
     15          6           0        3.514262   -0.161052    0.499316
     16          6           0        3.311517   -1.587636   -0.012288
     17          6           0        3.730586   -2.646646    1.007847
     18          1           0        4.571248   -0.019786    0.763454
     19          1           0        2.939738   -0.026248    1.426217
     20          1           0        3.885151   -1.719283   -0.938694
     21          1           0        2.254928   -1.725463   -0.275419
     22          1           0        3.150086   -2.543893    1.930378
     23          1           0        4.789573   -2.537678    1.263334
     24          1           0        3.577238   -3.659113    0.621510
     25          6           0        3.099850    0.908870   -0.509276
     26          6           0        3.302594    2.335454    0.002328
     27          6           0        2.883526    3.394465   -1.017807
     28          1           0        3.674374    0.774066   -1.436176
     29          1           0        2.042864    0.767604   -0.773414
     30          1           0        4.359184    2.473281    0.265459
     31          1           0        2.728961    2.467102    0.928735
     32          1           0        1.824539    3.285496   -1.273293
     33          1           0        3.464025    3.291710   -1.940337
     34          1           0        3.036875    4.406931   -0.631470
 ---------------------------------------------------------------------

 SCF Done:  E(RHF) =  -669.536321372     A.U. after   15 cycles
 E2 =    -0.2091261734D+01 EUMP2 =    -0.67162758310607D+03

 The electronic state is 1-A.
 Alpha  occ. eigenvalues --  -20.61020 -20.61013 -15.86046 -11.31343 -11.27905
 Alpha  occ. eigenvalues --  -11.27897 -11.27633 -11.26903 -11.26894 -11.21280
 Alpha  occ. eigenvalues --  -11.20860 -11.20805 -11.20629 -11.20337 -11.20058
 Alpha  occ. eigenvalues --   -1.60075  -1.39632  -1.19508  -1.08916  -1.07750
 Alpha  occ. eigenvalues --   -1.04901  -1.02821  -0.95762  -0.95320  -0.86345
 Alpha  occ. eigenvalues --   -0.86301  -0.82598  -0.78926  -0.77663  -0.77489
 Alpha  occ. eigenvalues --   -0.72271  -0.71386  -0.70616  -0.65167  -0.64902
 Alpha  occ. eigenvalues --   -0.64378  -0.62248  -0.60205  -0.58722  -0.56899
 Alpha  occ. eigenvalues --   -0.55404  -0.54620  -0.53234  -0.52991  -0.52028
 Alpha  occ. eigenvalues --   -0.51740  -0.49299  -0.49035  -0.49019  -0.47234
 Alpha  occ. eigenvalues --   -0.45964  -0.45271  -0.45054  -0.44647  -0.43090
 Alpha  occ. eigenvalues --   -0.37484  -0.36501
 Alpha virt. eigenvalues --    0.04844   0.11149   0.16320   0.21190   0.23352
 Alpha virt. eigenvalues --    0.24973   0.26836   0.27387   0.28196   0.28347
 Alpha virt. eigenvalues --    0.28730   0.30945   0.31974   0.32335   0.32612

 Mulliken charges:
               1
     1  C   -0.170490
     2  C   -0.218537
     3  C   -0.170565
     4  C    0.157752
     5  C   -0.171021
     6  C   -0.218444
     7  H    0.226276
     8  H    0.224059
     9  H    0.276023
    10  H    0.275488
    11  H    0.224102
    12  N    0.490638
    13  O   -0.462777
    14  O   -0.458068
    15  C   -0.295639
    16  C   -0.312020
    17  C   -0.473455
    18  H    0.145561
    19  H    0.144174
    20  H    0.147199
    21  H    0.181604
    22  H    0.153076
    23  H    0.148647
    24  H    0.161947
    25  C   -0.298208
    26  C   -0.298349
    27  C   -0.475047
    28  H    0.149549
    29  H    0.151158
    30  H    0.151408
    31  H    0.147001
    32  H    0.153375
    33  H    0.156031
    34  H    0.157550
 Sum of Mulliken charges =  -0.00000

 Dipole moment (field-independent basis, Debye):
    X=             -3.3245    Y=              3.6787    Z=              1.7804  Tot=              5.2683
 Quadrupole moment (field-independent basis, Debye-Ang):
   XX=            -78.3912   YY=           -100.0295   ZZ=            -92.5926
   XY=             -7.6385   XZ=             -2.3956   YZ=              0.0421

 Normal termination of Gaussian 16 at Thu May  6 09:15:03 2021.
