 Gaussian 16, Revision A.03,
 Gaussian 16:  EM64L-G16RevA.03 25-Dec-2016

 -------------
 #p 6-31g* mp2
 -------------

 ------------------------------------------------------
 Input file generated by CHIRIPA (05-May-2021 14:51:13)
 ------------------------------------------------------
 Symbolic Z-matrix:
 Charge =  0 Multiplicity = 1

                         Standard orientation:
 ---------------------------------------------------------------------
 Center     Atomic      Atomic             Coordinates (Angstroms)
 Number     Number       Type             X           Y           Z
 ---------------------------------------------------------------------
      1          6           0       -2.452424   -1.086359    0.693080
      2          6           0       -1.133816   -1.822770    0.454422
      3          6           0       -0.618819   -2.533757    1.706248
      4          1           0       -2.315622   -0.355266    1.501617
      5          1           0       -3.206627   -1.803902    1.044796
      6          1           0       -0.382702   -1.104299    0.101938
      7          1           0       -1.273721   -2.552061   -0.353772
      8          1           0       -1.347296   -3.271786    2.057298
      9          1           0       -0.451214   -1.815798    2.515597
     10          1           0        0.324718   -3.053669    1.513142
     11          6           0       -2.980035   -0.370634   -0.549133
     12          6           0       -4.298643    0.365776   -0.310475
     13          6           0       -4.813640    1.076763   -1.562302
     14          1           0       -2.225831    0.346908   -0.900850
     15          1           0       -3.116837   -1.101728   -1.357671
     16          1           0       -4.158737    1.095067    0.497718
     17          1           0       -5.049756   -0.352695    0.042009
     18          1           0       -4.981245    0.358805   -2.371650
     19          1           0       -4.085163    1.814792   -1.913352
     20          1           0       -5.757176    1.596675   -1.369196
     21          6           0        2.102715    0.976782    0.309323
     22          6           0        2.056707    2.497730    0.459607
     23          6           0        0.823495    2.979135    1.224610
     24          1           0        1.193957    0.638040   -0.206775
     25          1           0        2.085857    0.516078    1.306751
     26          1           0        2.075042    2.955464   -0.537769
     27          1           0        2.965770    2.832910    0.975236
     28          1           0        0.802822    2.549713    2.231472
     29          1           0       -0.092967    2.672964    0.709870
     30          1           0        0.810750    4.069327    1.320420
     31          6           0        3.329744    0.480212   -0.453269
     32          6           0        3.375752   -1.040736   -0.603553
     33          6           0        4.608964   -1.522142   -1.368557
     34          1           0        3.346601    0.940915   -1.450697
     35          1           0        4.238502    0.818954    0.062828
     36          1           0        2.466688   -1.375917   -1.119183
     37          1           0        3.357416   -1.498471    0.393822
     38          1           0        5.525426   -1.215970   -0.853816
     39          1           0        4.629637   -1.092719   -2.375418
     40          1           0        4.621708   -2.612334   -1.464366
 ---------------------------------------------------------------------

 SCF Done:  E(RHF) =  -470.733326447     A.U. after   11 cycles
 E2 =    -0.1583578021D+01 EUMP2 =    -0.47231690446870D+03

 The electronic state is 1-A.
 Alpha  occ. eigenvalues --  -11.21666 -11.21626 -11.21598 -11.21505 -11.21457
 Alpha  occ. eigenvalues --  -11.21397 -11.21395 -11.21320 -11.21154 -11.21090
 Alpha  occ. eigenvalues --  -11.21073 -11.21014  -1.08493  -1.08398  -1.03578
 Alpha  occ. eigenvalues --   -1.03496  -0.96032  -0.95948  -0.87048  -0.86965
 Alpha  occ. eigenvalues --   -0.79644  -0.79568  -0.78382  -0.78144  -0.65192
 Alpha  occ. eigenvalues --   -0.64968  -0.60977  -0.60899  -0.59403  -0.59313
 Alpha  occ. eigenvalues --   -0.57648  -0.57553  -0.55331  -0.55230  -0.52725
 Alpha  occ. eigenvalues --   -0.52638  -0.52476  -0.52359  -0.50007  -0.49870
 Alpha  occ. eigenvalues --   -0.47997  -0.47876  -0.46784  -0.46645  -0.46100
 Alpha  occ. eigenvalues --   -0.45782  -0.45731  -0.45189  -0.43833  -0.43752
 Alpha virt. eigenvalues --    0.20253   0.22824   0.23951   0.24384   0.24794
 Alpha virt. eigenvalues --    0.26584   0.26893   0.27938   0.28568   0.29560
 Alpha virt. eigenvalues --    0.30551   0.31518   0.31607   0.31880   0.32147

 Mulliken charges:
               1
     1  C   -0.298024
     2  C   -0.308147
     3  C   -0.475429
     4  H    0.150133
     5  H    0.149365
     6  H    0.161009
     7  H    0.151006
     8  H    0.154690
     9  H    0.154845
    10  H    0.160581
    11  C   -0.298638
    12  C   -0.299710
    13  C   -0.475665
    14  H    0.148159
    15  H    0.149681
    16  H    0.152261
    17  H    0.152111
    18  H    0.155116
    19  H    0.154933
    20  H    0.160355
    21  C   -0.304778
    22  C   -0.299060
    23  C   -0.476149
    24  H    0.155082
    25  H    0.150237
    26  H    0.152029
    27  H    0.152376
    28  H    0.155217
    29  H    0.154496
    30  H    0.160805
    31  C   -0.297905
    32  C   -0.301459
    33  C   -0.475730
    34  H    0.149495
    35  H    0.149874
    36  H    0.153611
    37  H    0.152315
    38  H    0.155262
    39  H    0.155254
    40  H    0.160396
 Sum of Mulliken charges =  -0.00000

 Dipole moment (field-independent basis, Debye):
    X=              0.0390    Y=              0.0147    Z=              0.0019  Tot=              0.0417
 Quadrupole moment (field-independent basis, Debye-Ang):
   XX=            -85.1583   YY=            -84.6725   ZZ=            -84.8972
   XY=              1.1044   XZ=              0.6325   YZ=              0.3917

 Normal termination of Gaussian 16 at Wed May  5 23:13:01 2021.
