 Gaussian 16, Revision A.03,
 Gaussian 16:  EM64L-G16RevA.03 25-Dec-2016

 -------------
 #p 6-31g* mp2
 -------------

 ------------------------------------------------------
 Input file generated by CHIRIPA (05-May-2021 14:55:24)
 ------------------------------------------------------
 Symbolic Z-matrix:
 Charge =  0 Multiplicity = 1

                         Standard orientation:
 ---------------------------------------------------------------------
 Center     Atomic      Atomic             Coordinates (Angstroms)
 Number     Number       Type             X           Y           Z
 ---------------------------------------------------------------------
      1          6           0       -3.801697    1.669003    0.460205
      2          6           0       -4.439821    0.427627    0.551337
      3          6           0       -3.742675   -0.751340    0.271030
      4          6           0       -2.402409   -0.651642   -0.099157
      5          6           0       -1.738778    0.570218   -0.198861
      6          6           0       -2.455586    1.736219    0.086056
      7          1           0       -4.350894    2.579817    0.679745
      8          1           0       -5.485145    0.372400    0.841667
      9          1           0       -4.212112   -1.725566    0.333722
     10          1           0       -0.695871    0.593374   -0.490797
     11          1           0       -1.957435    2.698905    0.014458
     12          7           0       -1.653965   -1.892898   -0.398347
     13          8           0       -0.473929   -1.778134   -0.722354
     14          8           0       -2.261542   -2.957055   -0.303179
     15          6           0        3.037878    1.164861   -0.376851
     16          6           0        2.084414    2.143217    0.309961
     17          6           0        1.703292    3.323435   -0.584257
     18          1           0        3.945604    1.702045   -0.684116
     19          1           0        2.568625    0.791814   -1.297739
     20          1           0        2.554759    2.513250    1.229997
     21          1           0        1.178934    1.603601    0.615798
     22          1           0        1.210811    2.972111   -1.496745
     23          1           0        2.594453    3.886929   -0.879056
     24          1           0        1.021181    4.010250   -0.073504
     25          6           0        3.428073   -0.020367    0.504460
     26          6           0        4.381537   -0.998722   -0.182352
     27          6           0        4.762659   -2.178940    0.711867
     28          1           0        3.897326    0.352679    1.425348
     29          1           0        2.520348   -0.557551    0.811725
     30          1           0        5.287017   -0.459106   -0.488188
     31          1           0        3.911191   -1.368755   -1.102388
     32          1           0        3.871497   -2.742436    1.006666
     33          1           0        5.255140   -1.827616    1.624354
     34          1           0        5.444770   -2.865756    0.201113
 ---------------------------------------------------------------------

 SCF Done:  E(RHF) =  -669.535878113     A.U. after   15 cycles
 E2 =    -0.2092072311D+01 EUMP2 =    -0.67162795042334D+03

 The electronic state is 1-A.
 Alpha  occ. eigenvalues --  -20.60866 -20.60856 -15.85908 -11.31226 -11.27793
 Alpha  occ. eigenvalues --  -11.27764 -11.27524 -11.26805 -11.26779 -11.21962
 Alpha  occ. eigenvalues --  -11.21664 -11.21321 -11.21082 -11.20971 -11.20491
 Alpha  occ. eigenvalues --   -1.59932  -1.39487  -1.19396  -1.08799  -1.08308
 Alpha  occ. eigenvalues --   -1.04793  -1.03459  -0.95905  -0.95642  -0.86932
 Alpha  occ. eigenvalues --   -0.86191  -0.82474  -0.79575  -0.78021  -0.77525
 Alpha  occ. eigenvalues --   -0.72130  -0.71250  -0.70519  -0.65071  -0.65020
 Alpha  occ. eigenvalues --   -0.64717  -0.62187  -0.60791  -0.59356  -0.57486
 Alpha  occ. eigenvalues --   -0.55315  -0.55155  -0.53125  -0.52903  -0.52654
 Alpha  occ. eigenvalues --   -0.52312  -0.49850  -0.48886  -0.48880  -0.47861
 Alpha  occ. eigenvalues --   -0.46604  -0.45578  -0.45426  -0.44884  -0.43672
 Alpha  occ. eigenvalues --   -0.37376  -0.36384
 Alpha virt. eigenvalues --    0.04963   0.11229   0.16459   0.19101   0.23043
 Alpha virt. eigenvalues --    0.24045   0.25964   0.26715   0.27568   0.28412
 Alpha virt. eigenvalues --    0.30041   0.30343   0.31467   0.31908   0.32358

 Mulliken charges:
               1
     1  C   -0.170690
     2  C   -0.218526
     3  C   -0.170633
     4  C    0.159017
     5  C   -0.177119
     6  C   -0.221534
     7  H    0.225893
     8  H    0.223614
     9  H    0.275594
    10  H    0.282706
    11  H    0.226450
    12  N    0.488137
    13  O   -0.462315
    14  O   -0.459562
    15  C   -0.299611
    16  C   -0.304659
    17  C   -0.478765
    18  H    0.149374
    19  H    0.154221
    20  H    0.155365
    21  H    0.146086
    22  H    0.153065
    23  H    0.160994
    24  H    0.154176
    25  C   -0.300677
    26  C   -0.299960
    27  C   -0.476895
    28  H    0.146095
    29  H    0.160378
    30  H    0.148156
    31  H    0.158610
    32  H    0.161750
    33  H    0.151754
    34  H    0.159511
 Sum of Mulliken charges =  -0.00000

 Dipole moment (field-independent basis, Debye):
    X=             -2.6135    Y=              4.2484    Z=              1.0306  Tot=              5.0932
 Quadrupole moment (field-independent basis, Debye-Ang):
   XX=            -78.2489   YY=           -100.0698   ZZ=            -95.8311
   XY=             -5.7508   XZ=             -3.3379   YZ=             -1.0433

 Normal termination of Gaussian 16 at Wed May  5 22:25:37 2021.
