 Gaussian 16, Revision A.03,
 Gaussian 16:  EM64L-G16RevA.03 25-Dec-2016

 -------------
 #p 6-31g* mp2
 -------------

 ------------------------------------------------------
 Input file generated by CHIRIPA (05-May-2021 14:51:10)
 ------------------------------------------------------
 Symbolic Z-matrix:
 Charge =  0 Multiplicity = 1

                         Standard orientation:
 ---------------------------------------------------------------------
 Center     Atomic      Atomic             Coordinates (Angstroms)
 Number     Number       Type             X           Y           Z
 ---------------------------------------------------------------------
      1          6           0       -2.550779   -1.008245    0.744912
      2          6           0       -1.478450   -0.485399    1.701325
      3          6           0       -0.859904   -1.591043    2.557332
      4          1           0       -3.338163   -1.508538    1.325153
      5          1           0       -2.108620   -1.774131    0.092754
      6          1           0       -1.922157    0.280261    2.350559
      7          1           0       -0.693623    0.013875    1.118754
      8          1           0       -0.391584   -2.351780    1.924437
      9          1           0       -1.627098   -2.083880    3.163241
     10          1           0       -0.095910   -1.195169    3.233687
     11          6           0       -3.178495    0.085258   -0.117615
     12          6           0       -4.250825   -0.437589   -1.074028
     13          6           0       -4.869370    0.668055   -1.930034
     14          1           0       -3.620654    0.851143    0.534544
     15          1           0       -2.391112    0.585550   -0.697856
     16          1           0       -5.035651   -0.936863   -0.491457
     17          1           0       -3.807117   -1.203249   -1.723262
     18          1           0       -4.102176    1.160892   -2.535943
     19          1           0       -5.337691    1.428792   -1.297140
     20          1           0       -5.633365    0.272181   -2.606390
     21          6           0        3.445026   -0.035074   -0.313854
     22          6           0        3.175224   -1.282790   -1.155517
     23          6           0        4.345536   -2.266697   -1.146033
     24          1           0        4.348766    0.464257   -0.689178
     25          1           0        3.661903   -0.338379    0.719764
     26          1           0        2.957560   -0.977135   -2.186930
     27          1           0        2.271912   -1.779104   -0.778267
     28          1           0        4.560290   -2.600076   -0.125571
     29          1           0        5.249833   -1.793550   -1.542239
     30          1           0        4.131294   -3.151261   -1.753904
     31          6           0        2.284248    0.958062   -0.313443
     32          6           0        2.554051    2.205778    0.528219
     33          6           0        1.383739    3.189684    0.518735
     34          1           0        2.067372    1.261367   -1.347061
     35          1           0        1.380508    0.458730    0.061881
     36          1           0        3.457362    2.702092    0.150969
     37          1           0        2.771714    1.900123    1.559633
     38          1           0        0.479442    2.716538    0.914941
     39          1           0        1.168985    3.523063   -0.501726
     40          1           0        1.597980    4.074249    1.126607
 ---------------------------------------------------------------------

 SCF Done:  E(RHF) =  -470.733374625     A.U. after   11 cycles
 E2 =    -0.1583287689D+01 EUMP2 =    -0.47231666231390D+03

 The electronic state is 1-A.
 Alpha  occ. eigenvalues --  -11.21654 -11.21633 -11.21610 -11.21605 -11.21429
 Alpha  occ. eigenvalues --  -11.21424 -11.21364 -11.21363 -11.21145 -11.21090
 Alpha  occ. eigenvalues --  -11.21067 -11.21059  -1.08474  -1.08437  -1.03571
 Alpha  occ. eigenvalues --   -1.03537  -0.96010  -0.95989  -0.87026  -0.87006
 Alpha  occ. eigenvalues --   -0.79667  -0.79576  -0.78347  -0.78194  -0.65234
 Alpha  occ. eigenvalues --   -0.64957  -0.61035  -0.60875  -0.59402  -0.59334
 Alpha  occ. eigenvalues --   -0.57625  -0.57597  -0.55327  -0.55246  -0.52706
 Alpha  occ. eigenvalues --   -0.52683  -0.52435  -0.52417  -0.50000  -0.49894
 Alpha  occ. eigenvalues --   -0.48056  -0.47871  -0.46870  -0.46552  -0.46058
 Alpha  occ. eigenvalues --   -0.45768  -0.45763  -0.45284  -0.43812  -0.43799
 Alpha virt. eigenvalues --    0.20199   0.23349   0.23608   0.24392   0.25825
 Alpha virt. eigenvalues --    0.26804   0.27050   0.27766   0.28336   0.29198
 Alpha virt. eigenvalues --    0.30610   0.31534   0.31753   0.31801   0.32220

 Mulliken charges:
               1
     1  C   -0.297519
     2  C   -0.311085
     3  C   -0.475449
     4  H    0.149883
     5  H    0.149495
     6  H    0.152410
     7  H    0.161165
     8  H    0.154835
     9  H    0.155892
    10  H    0.159991
    11  C   -0.298837
    12  C   -0.299691
    13  C   -0.475747
    14  H    0.149591
    15  H    0.150383
    16  H    0.151903
    17  H    0.152022
    18  H    0.155387
    19  H    0.155232
    20  H    0.160228
    21  C   -0.297504
    22  C   -0.299662
    23  C   -0.475752
    24  H    0.149810
    25  H    0.149803
    26  H    0.151839
    27  H    0.151301
    28  H    0.155448
    29  H    0.155297
    30  H    0.160228
    31  C   -0.307733
    32  C   -0.298882
    33  C   -0.478346
    34  H    0.149275
    35  H    0.157854
    36  H    0.152036
    37  H    0.151860
    38  H    0.157802
    39  H    0.154908
    40  H    0.160331
 Sum of Mulliken charges =  -0.00000

 Dipole moment (field-independent basis, Debye):
    X=             -0.0084    Y=             -0.0007    Z=              0.0033  Tot=              0.0090
 Quadrupole moment (field-independent basis, Debye-Ang):
   XX=            -84.9390   YY=            -85.6892   ZZ=            -84.0689
   XY=              1.0543   XZ=             -1.1522   YZ=              0.1204

 Normal termination of Gaussian 16 at Thu May  6 02:11:51 2021.
