 Gaussian 16, Revision A.03,
 Gaussian 16:  EM64L-G16RevA.03 25-Dec-2016

 -------------
 #p 6-31g* mp2
 -------------

 ------------------------------------------------------
 Input file generated by CHIRIPA (05-May-2021 14:51:11)
 ------------------------------------------------------
 Symbolic Z-matrix:
 Charge =  0 Multiplicity = 1

                         Standard orientation:
 ---------------------------------------------------------------------
 Center     Atomic      Atomic             Coordinates (Angstroms)
 Number     Number       Type             X           Y           Z
 ---------------------------------------------------------------------
      1          6           0       -4.464666   -0.245428   -0.118891
      2          6           0       -4.483962   -1.732259    0.237403
      3          6           0       -5.883619   -2.237993    0.588097
      4          1           0       -4.864056    0.332690    0.725628
      5          1           0       -5.141983   -0.069721   -0.966100
      6          1           0       -3.805754   -1.905335    1.082800
      7          1           0       -4.084301   -2.306889   -0.607989
      8          1           0       -6.567556   -2.094191   -0.254608
      9          1           0       -6.287427   -1.690355    1.445788
     10          1           0       -5.874311   -3.303148    0.839533
     11          6           0       -3.072411    0.274939   -0.471840
     12          6           0       -3.053116    1.761770   -0.828134
     13          6           0       -1.653458    2.267505   -1.178828
     14          1           0       -2.395094    0.099232    0.375369
     15          1           0       -2.673021   -0.303179   -1.316359
     16          1           0       -3.452777    2.336400    0.017258
     17          1           0       -3.731323    1.934846   -1.673531
     18          1           0       -1.249651    1.719866   -2.036519
     19          1           0       -0.969521    2.123702   -0.336123
     20          1           0       -1.662766    3.332659   -1.430264
     21          6           0        3.134216    0.089017    0.708038
     22          6           0        2.668939    1.544976    0.749074
     23          6           0        1.398815    1.736537    1.578461
     24          1           0        2.328818   -0.535206    0.297401
     25          1           0        3.309108   -0.261806    1.734553
     26          1           0        2.496307    1.893374   -0.277295
     27          1           0        3.475610    2.165832    1.159483
     28          1           0        1.561776    1.415464    2.612364
     29          1           0        0.576909    1.141457    1.167423
     30          1           0        1.083956    2.784617    1.594318
     31          6           0        4.402861   -0.118528   -0.117308
     32          6           0        4.868138   -1.574487   -0.158343
     33          6           0        6.138262   -1.766048   -0.987729
     34          1           0        4.227970    0.232294   -1.143822
     35          1           0        5.208259    0.505695    0.293330
     36          1           0        4.061468   -2.195344   -0.568752
     37          1           0        5.040771   -1.922886    0.868026
     38          1           0        6.960168   -1.170969   -0.576691
     39          1           0        5.975302   -1.444976   -2.021633
     40          1           0        6.453122   -2.814129   -1.003587
 ---------------------------------------------------------------------

 SCF Done:  E(RHF) =  -470.733129567     A.U. after   11 cycles
 E2 =    -0.1582612947D+01 EUMP2 =    -0.47231574251415D+03

 The electronic state is 1-A.
 Alpha  occ. eigenvalues --  -11.21603 -11.21599 -11.21596 -11.21575 -11.21406
 Alpha  occ. eigenvalues --  -11.21400 -11.21347 -11.21340 -11.21099 -11.21068
 Alpha  occ. eigenvalues --  -11.21066 -11.20981  -1.08433  -1.08417  -1.03552
 Alpha  occ. eigenvalues --   -1.03495  -0.96024  -0.95929  -0.87056  -0.86935
 Alpha  occ. eigenvalues --   -0.79640  -0.79536  -0.78254  -0.78223  -0.65107
 Alpha  occ. eigenvalues --   -0.65011  -0.61083  -0.60789  -0.59357  -0.59330
 Alpha  occ. eigenvalues --   -0.57602  -0.57575  -0.55490  -0.55065  -0.52709
 Alpha  occ. eigenvalues --   -0.52646  -0.52436  -0.52344  -0.50132  -0.49708
 Alpha  occ. eigenvalues --   -0.47975  -0.47826  -0.46753  -0.46467  -0.45833
 Alpha  occ. eigenvalues --   -0.45749  -0.45724  -0.45603  -0.43787  -0.43770
 Alpha virt. eigenvalues --    0.21411   0.23044   0.23565   0.24903   0.25971
 Alpha virt. eigenvalues --    0.26758   0.27261   0.27436   0.27897   0.29066
 Alpha virt. eigenvalues --    0.30724   0.31561   0.31800   0.31890   0.32081

 Mulliken charges:
               1
     1  C   -0.298254
     2  C   -0.299702
     3  C   -0.475711
     4  H    0.149841
     5  H    0.149638
     6  H    0.152031
     7  H    0.151795
     8  H    0.155161
     9  H    0.155247
    10  H    0.160241
    11  C   -0.299346
    12  C   -0.299012
    13  C   -0.484207
    14  H    0.149712
    15  H    0.149324
    16  H    0.151972
    17  H    0.151690
    18  H    0.153909
    19  H    0.165385
    20  H    0.159800
    21  C   -0.298659
    22  C   -0.300283
    23  C   -0.480092
    24  H    0.150208
    25  H    0.149364
    26  H    0.153437
    27  H    0.152126
    28  H    0.155545
    29  H    0.157867
    30  H    0.160896
    31  C   -0.298358
    32  C   -0.299673
    33  C   -0.475709
    34  H    0.149718
    35  H    0.149612
    36  H    0.152006
    37  H    0.151876
    38  H    0.155165
    39  H    0.155208
    40  H    0.160229
 Sum of Mulliken charges =  -0.00000

 Dipole moment (field-independent basis, Debye):
    X=              0.0222    Y=              0.0054    Z=              0.0163  Tot=              0.0280
 Quadrupole moment (field-independent basis, Debye-Ang):
   XX=            -86.1898   YY=            -85.0789   ZZ=            -83.5469
   XY=             -0.0408   XZ=              1.3695   YZ=              0.3913

 Normal termination of Gaussian 16 at Wed May  5 23:04:57 2021.
