 Gaussian 16, Revision A.03,
 Gaussian 16:  EM64L-G16RevA.03 25-Dec-2016

 -------------
 #p 6-31g* mp2
 -------------

 ------------------------------------------------------
 Input file generated by CHIRIPA (05-May-2021 14:57:26)
 ------------------------------------------------------
 Symbolic Z-matrix:
 Charge =  0 Multiplicity = 1

                         Standard orientation:
 ---------------------------------------------------------------------
 Center     Atomic      Atomic             Coordinates (Angstroms)
 Number     Number       Type             X           Y           Z
 ---------------------------------------------------------------------
      1          6           0        1.951913    1.306175   -0.603247
      2          6           0        1.890338    0.006254   -0.090476
      3          6           0        3.061643   -0.716961    0.153556
      4          6           0        4.283000   -0.106768   -0.127944
      5          6           0        4.377145    1.186662   -0.639279
      6          6           0        3.192932    1.891199   -0.875532
      7          1           0        1.037001    1.860732   -0.789795
      8          1           0        0.927943   -0.450610    0.121929
      9          1           0        3.042912   -1.724829    0.550130
     10          1           0        5.351226    1.615463   -0.841059
     11          1           0        3.243786    2.900577   -1.273798
     12          7           0        5.529841   -0.862517    0.126284
     13          8           0        6.593432   -0.302458   -0.130122
     14          8           0        5.419914   -2.000621    0.577141
     15          6           0       -2.232190    1.332773    1.236012
     16          6           0       -3.371446    1.974173    0.738795
     17          6           0       -4.400123    1.235915    0.146051
     18          6           0       -4.255904   -0.148356    0.066770
     19          6           0       -3.133105   -0.816417    0.552884
     20          6           0       -2.116859   -0.058022    1.141636
     21          1           0       -1.437916    1.914092    1.694920
     22          1           0       -3.463724    3.054152    0.810724
     23          1           0       -5.292923    1.706859   -0.247063
     24          1           0       -3.069684   -1.894372    0.466808
     25          1           0       -1.233233   -0.558825    1.526924
     26          7           0       -5.338339   -0.940576   -0.558629
     27          8           0       -5.187163   -2.158956   -0.616340
     28          8           0       -6.317430   -0.328134   -0.979263
 ---------------------------------------------------------------------

 SCF Done:  E(RHF) =  -868.337022727     A.U. after   16 cycles
 E2 =    -0.2599998959D+01 EUMP2 =    -0.87093702168577D+03

 The electronic state is 1-A.
 Alpha  occ. eigenvalues --  -20.61431 -20.61426 -20.61220 -20.61214 -15.86493
 Alpha  occ. eigenvalues --  -15.86279 -11.32048 -11.31758 -11.28678 -11.28629
 Alpha  occ. eigenvalues --  -11.28476 -11.28372 -11.28328 -11.28140 -11.27785
 Alpha  occ. eigenvalues --  -11.27673 -11.27442 -11.27363  -1.60503  -1.60293
 Alpha  occ. eigenvalues --   -1.40051  -1.39844  -1.20259  -1.19952  -1.09627
 Alpha  occ. eigenvalues --   -1.09330  -1.05693  -1.05378  -0.96418  -0.96141
 Alpha  occ. eigenvalues --   -0.87099  -0.86762  -0.83250  -0.82973  -0.78264
 Alpha  occ. eigenvalues --   -0.77993  -0.72706  -0.72494  -0.71830  -0.71619
 Alpha  occ. eigenvalues --   -0.71371  -0.71055  -0.65918  -0.65842  -0.65606
 Alpha  occ. eigenvalues --   -0.65292  -0.63070  -0.62668  -0.56219  -0.55864
 Alpha  occ. eigenvalues --   -0.54029  -0.53848  -0.53694  -0.53388  -0.49482
 Alpha  occ. eigenvalues --   -0.49449  -0.49261  -0.49242  -0.45414  -0.45224
 Alpha  occ. eigenvalues --   -0.38275  -0.37945  -0.37295  -0.36983
 Alpha virt. eigenvalues --    0.04272   0.04547   0.10181   0.10640   0.15627
 Alpha virt. eigenvalues --    0.15992   0.18921   0.21826   0.24748   0.26607
 Alpha virt. eigenvalues --    0.27771   0.28835   0.29165   0.31371   0.31711

 Mulliken charges:
               1
     1  C   -0.173953
     2  C   -0.223287
     3  C   -0.170744
     4  C    0.159245
     5  C   -0.170022
     6  C   -0.218192
     7  H    0.225152
     8  H    0.220441
     9  H    0.276336
    10  H    0.277496
    11  H    0.224751
    12  N    0.488022
    13  O   -0.458786
    14  O   -0.459359
    15  C   -0.175749
    16  C   -0.218897
    17  C   -0.169159
    18  C    0.159241
    19  C   -0.169878
    20  C   -0.224746
    21  H    0.226700
    22  H    0.225709
    23  H    0.278590
    24  H    0.278172
    25  H    0.221144
    26  N    0.487991
    27  O   -0.458163
    28  O   -0.458054
 Sum of Mulliken charges =  -0.00000

 Dipole moment (field-independent basis, Debye):
    X=             -0.7030    Y=              5.4813    Z=              1.2493  Tot=              5.6657
 Quadrupole moment (field-independent basis, Debye-Ang):
   XX=           -171.2292   YY=            -99.8503   ZZ=           -105.1878
   XY=             -0.6629   XZ=            -13.0189   YZ=             -2.6878

 Normal termination of Gaussian 16 at Thu May  6 01:59:41 2021.
