 Gaussian 16, Revision A.03,
 Gaussian 16:  EM64L-G16RevA.03 25-Dec-2016

 -------------
 #p 6-31g* mp2
 -------------

 ------------------------------------------------------
 Input file generated by CHIRIPA (05-May-2021 14:53:16)
 ------------------------------------------------------
 Symbolic Z-matrix:
 Charge =  0 Multiplicity = 1

                         Standard orientation:
 ---------------------------------------------------------------------
 Center     Atomic      Atomic             Coordinates (Angstroms)
 Number     Number       Type             X           Y           Z
 ---------------------------------------------------------------------
      1          6           0        4.500532   -0.536082   -0.412511
      2          6           0        5.639383   -1.062460    0.461520
      3          6           0        6.338894   -2.277891   -0.147745
      4          1           0        3.768817   -1.339610   -0.573381
      5          1           0        4.898724   -0.273168   -1.402316
      6          1           0        5.239416   -1.323004    1.449832
      7          1           0        6.368376   -0.257529    0.620488
      8          1           0        6.764641   -2.027682   -1.124851
      9          1           0        5.629267   -3.099211   -0.290794
     10          1           0        7.149575   -2.637776    0.493457
     11          6           0        3.791514    0.678881    0.183212
     12          6           0        2.652664    1.205260   -0.690819
     13          6           0        1.953152    2.420691   -0.081553
     14          1           0        3.393323    0.415967    1.173018
     15          1           0        4.523229    1.482410    0.344083
     16          1           0        1.923670    0.400329   -0.849786
     17          1           0        3.052630    1.465804   -1.679130
     18          1           0        2.662779    3.242011    0.061496
     19          1           0        1.527405    2.170482    0.895553
     20          1           0        1.142471    2.780576   -0.722755
     21          6           0       -1.561635    1.771295    0.552055
     22          6           0       -1.927576    0.883223    1.568881
     23          6           0       -2.856038   -0.132909    1.323973
     24          6           0       -3.401250   -0.232416    0.044858
     25          6           0       -3.056904    0.636984   -0.988998
     26          6           0       -2.126471    1.645563   -0.721394
     27          1           0       -0.839618    2.557717    0.751120
     28          1           0       -1.490540    0.978484    2.558816
     29          1           0       -3.157206   -0.834021    2.092841
     30          1           0       -3.509667    0.516914   -1.965731
     31          1           0       -1.844150    2.333827   -1.512996
     32          7           0       -4.385214   -1.304152   -0.226429
     33          8           0       -4.851108   -1.370618   -1.361842
     34          8           0       -4.671921   -2.057418    0.701487
 ---------------------------------------------------------------------

 SCF Done:  E(RHF) =  -669.534569611     A.U. after   15 cycles
 E2 =    -0.2091873921D+01 EUMP2 =    -0.67162644353239D+03

 The electronic state is 1-A.
 Alpha  occ. eigenvalues --  -20.60732 -20.60727 -15.85788 -11.31134 -11.27726
 Alpha  occ. eigenvalues --  -11.27722 -11.27361 -11.26712 -11.26700 -11.22396
 Alpha  occ. eigenvalues --  -11.22252 -11.22023 -11.21986 -11.21837 -11.21364
 Alpha  occ. eigenvalues --   -1.59810  -1.39363  -1.19315  -1.09027  -1.08701
 Alpha  occ. eigenvalues --   -1.04721  -1.04175  -0.96672  -0.95532  -0.87693
 Alpha  occ. eigenvalues --   -0.86116  -0.82381  -0.80251  -0.78791  -0.77433
 Alpha  occ. eigenvalues --   -0.72005  -0.71134  -0.70441  -0.65647  -0.64965
 Alpha  occ. eigenvalues --   -0.64735  -0.62077  -0.61571  -0.60071  -0.58234
 Alpha  occ. eigenvalues --   -0.56125  -0.55094  -0.53340  -0.53079  -0.52987
 Alpha  occ. eigenvalues --   -0.52809  -0.50546  -0.48763  -0.48761  -0.48557
 Alpha  occ. eigenvalues --   -0.47239  -0.46346  -0.46238  -0.44773  -0.44415
 Alpha  occ. eigenvalues --   -0.37249  -0.36336
 Alpha virt. eigenvalues --    0.05099   0.11259   0.16547   0.20518   0.22515
 Alpha virt. eigenvalues --    0.24041   0.25627   0.26224   0.26647   0.27371
 Alpha virt. eigenvalues --    0.29151   0.29820   0.30875   0.31231   0.31973

 Mulliken charges:
               1
     1  C   -0.299151
     2  C   -0.300041
     3  C   -0.476129
     4  H    0.151718
     5  H    0.150570
     6  H    0.152066
     7  H    0.152115
     8  H    0.155753
     9  H    0.156461
    10  H    0.161346
    11  C   -0.299021
    12  C   -0.300376
    13  C   -0.477470
    14  H    0.149069
    15  H    0.150437
    16  H    0.156781
    17  H    0.154540
    18  H    0.159412
    19  H    0.149687
    20  H    0.152898
    21  C   -0.168234
    22  C   -0.221814
    23  C   -0.170632
    24  C    0.157788
    25  C   -0.170785
    26  C   -0.221659
    27  H    0.231805
    28  H    0.222657
    29  H    0.275292
    30  H    0.275394
    31  H    0.222776
    32  N    0.488150
    33  O   -0.460663
    34  O   -0.460740
 Sum of Mulliken charges =  -0.00000

 Dipole moment (field-independent basis, Debye):
    X=              3.6657    Y=              3.7282    Z=              0.9242  Tot=              5.3095
 Quadrupole moment (field-independent basis, Debye-Ang):
   XX=           -118.6192   YY=            -97.1698   ZZ=            -90.1746
   XY=            -13.0525   XZ=             -2.8833   YZ=             -2.3553

 Normal termination of Gaussian 16 at Wed May  5 20:21:26 2021.
