 Gaussian 16, Revision A.03,
 Gaussian 16:  EM64L-G16RevA.03 25-Dec-2016

 -------------
 #p 6-31g* mp2
 -------------

 ------------------------------------------------------
 Input file generated by CHIRIPA (05-May-2021 14:51:13)
 ------------------------------------------------------
 Symbolic Z-matrix:
 Charge =  0 Multiplicity = 1

                         Standard orientation:
 ---------------------------------------------------------------------
 Center     Atomic      Atomic             Coordinates (Angstroms)
 Number     Number       Type             X           Y           Z
 ---------------------------------------------------------------------
      1          6           0        1.918581   -0.310258    1.093513
      2          6           0        1.159489   -1.606214    1.380326
      3          6           0        0.505358   -1.614691    2.762294
      4          1           0        2.686732   -0.164260    1.865247
      5          1           0        1.225830    0.538527    1.177512
      6          1           0        1.853158   -2.452420    1.294453
      7          1           0        0.393183   -1.749242    0.607711
      8          1           0       -0.208122   -0.789588    2.855860
      9          1           0        1.260148   -1.496762    3.546503
     10          1           0       -0.031876   -2.550282    2.946438
     11          6           0        2.578026   -0.286671   -0.284277
     12          6           0        3.337118    1.009286   -0.571091
     13          6           0        3.991249    1.017762   -1.953058
     14          1           0        3.270777   -1.135455   -0.368277
     15          1           0        1.809875   -0.432669   -1.056012
     16          1           0        4.103423    1.152314    0.201525
     17          1           0        2.643449    1.855492   -0.485217
     18          1           0        3.236459    0.899834   -2.737268
     19          1           0        4.704729    0.192660   -2.046624
     20          1           0        4.528483    1.953354   -2.137203
     21          6           0       -2.563040    0.989023   -0.318008
     22          6           0       -1.738270    1.924703    0.566436
     23          6           0       -2.380892    3.302387    0.730203
     24          1           0       -2.697780    1.452029   -1.305134
     25          1           0       -3.566962    0.877291    0.114486
     26          1           0       -0.735758    2.033541    0.133145
     27          1           0       -1.605316    1.459331    1.551508
     28          1           0       -3.373300    3.213100    1.183808
     29          1           0       -2.498802    3.790573   -0.242614
     30          1           0       -1.774706    3.955110    1.366088
     31          6           0       -1.933567   -0.392095   -0.491227
     32          6           0       -2.758337   -1.327775   -1.375671
     33          6           0       -2.115715   -2.705458   -1.539439
     34          1           0       -0.929644   -0.280362   -0.923722
     35          1           0       -1.798827   -0.855100    0.495897
     36          1           0       -2.891291   -0.862403   -2.360743
     37          1           0       -3.760848   -1.436613   -0.942381
     38          1           0       -1.997806   -3.193644   -0.566622
     39          1           0       -1.123307   -2.616171   -1.993043
     40          1           0       -2.721902   -3.358182   -2.175324
 ---------------------------------------------------------------------

 SCF Done:  E(RHF) =  -470.731913464     A.U. after   11 cycles
 E2 =    -0.1586177154D+01 EUMP2 =    -0.47231809061752D+03

 The electronic state is 1-A.
 Alpha  occ. eigenvalues --  -11.21727 -11.21682 -11.21596 -11.21493 -11.21429
 Alpha  occ. eigenvalues --  -11.21372 -11.21351 -11.21226 -11.21155 -11.21146
 Alpha  occ. eigenvalues --  -11.21076 -11.21019  -1.08578  -1.08325  -1.03635
 Alpha  occ. eigenvalues --   -1.03465  -0.96073  -0.95934  -0.87093  -0.86948
 Alpha  occ. eigenvalues --   -0.79769  -0.79493  -0.78435  -0.78120  -0.65198
 Alpha  occ. eigenvalues --   -0.64984  -0.61031  -0.60897  -0.59494  -0.59253
 Alpha  occ. eigenvalues --   -0.57685  -0.57535  -0.55434  -0.55165  -0.52763
 Alpha  occ. eigenvalues --   -0.52632  -0.52514  -0.52349  -0.50016  -0.49890
 Alpha  occ. eigenvalues --   -0.48160  -0.47885  -0.46782  -0.46566  -0.46243
 Alpha  occ. eigenvalues --   -0.45769  -0.45533  -0.45113  -0.43878  -0.43712
 Alpha virt. eigenvalues --    0.19789   0.22169   0.22681   0.23805   0.25191
 Alpha virt. eigenvalues --    0.26196   0.27114   0.27462   0.29114   0.29822
 Alpha virt. eigenvalues --    0.30868   0.31387   0.31474   0.31787   0.32254

 Mulliken charges:
               1
     1  C   -0.303561
     2  C   -0.306979
     3  C   -0.478668
     4  H    0.149069
     5  H    0.155872
     6  H    0.150736
     7  H    0.162658
     8  H    0.155669
     9  H    0.155297
    10  H    0.159083
    11  C   -0.300831
    12  C   -0.299927
    13  C   -0.475585
    14  H    0.149764
    15  H    0.150023
    16  H    0.152327
    17  H    0.151346
    18  H    0.154575
    19  H    0.155386
    20  H    0.160236
    21  C   -0.297184
    22  C   -0.304897
    23  C   -0.475594
    24  H    0.149771
    25  H    0.149977
    26  H    0.153844
    27  H    0.153845
    28  H    0.155626
    29  H    0.155519
    30  H    0.160777
    31  C   -0.308541
    32  C   -0.299001
    33  C   -0.477697
    34  H    0.153724
    35  H    0.156270
    36  H    0.151967
    37  H    0.152242
    38  H    0.156255
    39  H    0.155646
    40  H    0.160962
 Sum of Mulliken charges =  -0.00000

 Dipole moment (field-independent basis, Debye):
    X=             -0.0784    Y=              0.0132    Z=             -0.0262  Tot=              0.0837
 Quadrupole moment (field-independent basis, Debye-Ang):
   XX=            -84.1738   YY=            -85.5974   ZZ=            -85.0288
   XY=              0.1393   XZ=              0.4906   YZ=             -0.4102

 Normal termination of Gaussian 16 at Wed May  5 19:57:31 2021.
