 Gaussian 16, Revision A.03,
 Gaussian 16:  EM64L-G16RevA.03 25-Dec-2016

 -------------
 #p 6-31g* mp2
 -------------

 ------------------------------------------------------
 Input file generated by CHIRIPA (05-May-2021 14:57:26)
 ------------------------------------------------------
 Symbolic Z-matrix:
 Charge =  0 Multiplicity = 1

                         Standard orientation:
 ---------------------------------------------------------------------
 Center     Atomic      Atomic             Coordinates (Angstroms)
 Number     Number       Type             X           Y           Z
 ---------------------------------------------------------------------
      1          6           0        1.796276   -1.699008    0.704123
      2          6           0        3.080233   -1.898797    1.221868
      3          6           0        4.142090   -1.082068    0.821917
      4          6           0        3.883135   -0.070492   -0.101635
      5          6           0        2.615066    0.153605   -0.635557
      6          6           0        1.568193   -0.675249   -0.221305
      7          1           0        0.977220   -2.338172    1.020369
      8          1           0        3.260298   -2.693083    1.940709
      9          1           0        5.145942   -1.214642    1.206784
     10          1           0        2.466472    0.953594   -1.350647
     11          1           0        0.572088   -0.517774   -0.625065
     12          7           0        4.999344    0.800561   -0.532615
     13          8           0        4.745114    1.684832   -1.347519
     14          8           0        6.107324    0.582527   -0.047352
     15          6           0       -2.942255    2.470496    0.868139
     16          6           0       -4.251936    2.297776    0.408329
     17          6           0       -4.682228    1.052007   -0.057990
     18          6           0       -3.772346   -0.004092   -0.050366
     19          6           0       -2.461068    0.136410    0.401407
     20          6           0       -2.052569    1.391165    0.863218
     21          1           0       -2.616458    3.441729    1.228636
     22          1           0       -4.945048    3.134217    0.410992
     23          1           0       -5.690483    0.890427   -0.419558
     24          1           0       -1.793010   -0.716170    0.386545
     25          1           0       -1.034861    1.522380    1.219725
     26          7           0       -4.216341   -1.327688   -0.541651
     27          8           0       -3.395425   -2.242262   -0.524628
     28          8           0       -5.376853   -1.425488   -0.934442
 ---------------------------------------------------------------------

 SCF Done:  E(RHF) =  -868.337776654     A.U. after   16 cycles
 E2 =    -0.2599909222D+01 EUMP2 =    -0.87093768587616D+03

 The electronic state is 1-A.
 Alpha  occ. eigenvalues --  -20.61511 -20.61480 -20.61093 -20.61085 -15.86552
 Alpha  occ. eigenvalues --  -15.86149 -11.31947 -11.31569 -11.28600 -11.28435
 Alpha  occ. eigenvalues --  -11.28188 -11.28158 -11.28135 -11.27899 -11.27517
 Alpha  occ. eigenvalues --  -11.27442 -11.27219 -11.27126  -1.60570  -1.60167
 Alpha  occ. eigenvalues --   -1.40126  -1.39718  -1.20095  -1.19758  -1.09465
 Alpha  occ. eigenvalues --   -1.09139  -1.05514  -1.05169  -0.96311  -0.95959
 Alpha  occ. eigenvalues --   -0.86895  -0.86569  -0.83151  -0.82788  -0.78228
 Alpha  occ. eigenvalues --   -0.77821  -0.72769  -0.72364  -0.71892  -0.71493
 Alpha  occ. eigenvalues --   -0.71201  -0.70837  -0.65755  -0.65523  -0.65399
 Alpha  occ. eigenvalues --   -0.65172  -0.62936  -0.62422  -0.55954  -0.55646
 Alpha  occ. eigenvalues --   -0.53829  -0.53613  -0.53487  -0.53222  -0.49538
 Alpha  occ. eigenvalues --   -0.49513  -0.49127  -0.49116  -0.45526  -0.45111
 Alpha  occ. eigenvalues --   -0.38033  -0.37739  -0.37120  -0.36778
 Alpha virt. eigenvalues --    0.04297   0.04711   0.10518   0.10780   0.15767
 Alpha virt. eigenvalues --    0.16172   0.18841   0.21883   0.25048   0.26992
 Alpha virt. eigenvalues --    0.27483   0.29134   0.30442   0.30874   0.31422

 Mulliken charges:
               1
     1  C   -0.173077
     2  C   -0.218566
     3  C   -0.170202
     4  C    0.158627
     5  C   -0.172058
     6  C   -0.227664
     7  H    0.230303
     8  H    0.226107
     9  H    0.277123
    10  H    0.276349
    11  H    0.224292
    12  N    0.487990
    13  O   -0.460338
    14  O   -0.459091
    15  C   -0.170321
    16  C   -0.217497
    17  C   -0.170194
    18  C    0.161095
    19  C   -0.177761
    20  C   -0.220192
    21  H    0.229537
    22  H    0.226801
    23  H    0.277911
    24  H    0.266744
    25  H    0.226518
    26  N    0.488265
    27  O   -0.464298
    28  O   -0.456403
 Sum of Mulliken charges =  -0.00000

 Dipole moment (field-independent basis, Debye):
    X=             -2.4589    Y=              1.6868    Z=              3.2919  Tot=              4.4416
 Quadrupole moment (field-independent basis, Debye-Ang):
   XX=           -140.0450   YY=           -102.9866   ZZ=           -104.6215
   XY=            -33.9004   XZ=              2.8940   YZ=             -2.1585

 Normal termination of Gaussian 16 at Thu May  6 11:30:37 2021.
