 Gaussian 16, Revision A.03,
 Gaussian 16:  EM64L-G16RevA.03 25-Dec-2016

 -------------
 #p 6-31g* mp2
 -------------

 ------------------------------------------------------
 Input file generated by CHIRIPA (05-May-2021 14:57:27)
 ------------------------------------------------------
 Symbolic Z-matrix:
 Charge =  0 Multiplicity = 1

                         Standard orientation:
 ---------------------------------------------------------------------
 Center     Atomic      Atomic             Coordinates (Angstroms)
 Number     Number       Type             X           Y           Z
 ---------------------------------------------------------------------
      1          6           0        2.785172    2.720568   -0.010431
      2          6           0        4.074798    2.196347   -0.146734
      3          6           0        4.274803    0.815079   -0.228252
      4          6           0        3.157588   -0.016615   -0.169894
      5          6           0        1.860289    0.475273   -0.034427
      6          6           0        1.683974    1.859875    0.045190
      7          1           0        2.639005    3.794865    0.052156
      8          1           0        4.931858    2.862383   -0.190201
      9          1           0        5.262235    0.382416   -0.334068
     10          1           0        1.025483   -0.213843    0.006037
     11          1           0        0.681286    2.264179    0.151014
     12          7           0        3.356784   -1.480666   -0.255187
     13          8           0        2.356007   -2.192132   -0.201353
     14          8           0        4.509919   -1.889001   -0.374258
     15          6           0       -1.169942   -1.210777    1.409722
     16          6           0       -1.947660   -0.209700    2.000925
     17          6           0       -3.033127    0.343890    1.315472
     18          6           0       -3.313742   -0.129347    0.034615
     19          6           0       -2.557710   -1.125516   -0.581299
     20          6           0       -1.476907   -1.664689    0.122766
     21          1           0       -0.328537   -1.635220    1.949427
     22          1           0       -1.711600    0.144755    3.000266
     23          1           0       -3.651823    1.119973    1.749440
     24          1           0       -2.817607   -1.458396   -1.578827
     25          1           0       -0.874662   -2.442025   -0.338857
     26          7           0       -4.460408    0.449084   -0.700895
     27          8           0       -4.686878    0.014889   -1.828202
     28          8           0       -5.110983    1.325700   -0.136154
 ---------------------------------------------------------------------

 SCF Done:  E(RHF) =  -868.339515827     A.U. after   16 cycles
 E2 =    -0.2601556341D+01 EUMP2 =    -0.87094107216776D+03

 The electronic state is 1-A.
 Alpha  occ. eigenvalues --  -20.61596 -20.61524 -20.61054 -20.61041 -15.86596
 Alpha  occ. eigenvalues --  -15.86101 -11.31669 -11.31510 -11.28219 -11.28103
 Alpha  occ. eigenvalues --  -11.28098 -11.27995 -11.27909 -11.27674 -11.27179
 Alpha  occ. eigenvalues --  -11.27139 -11.27103 -11.26866  -1.60622  -1.60126
 Alpha  occ. eigenvalues --   -1.40191  -1.39677  -1.19830  -1.19677  -1.09276
 Alpha  occ. eigenvalues --   -1.09051  -1.05184  -1.05046  -0.96166  -0.95862
 Alpha  occ. eigenvalues --   -0.86618  -0.86399  -0.83002  -0.82674  -0.78098
 Alpha  occ. eigenvalues --   -0.77723  -0.72838  -0.72309  -0.71933  -0.71456
 Alpha  occ. eigenvalues --   -0.70986  -0.70647  -0.65485  -0.65313  -0.65177
 Alpha  occ. eigenvalues --   -0.64927  -0.62573  -0.62325  -0.55729  -0.55446
 Alpha  occ. eigenvalues --   -0.53648  -0.53533  -0.53060  -0.53008  -0.49598
 Alpha  occ. eigenvalues --   -0.49535  -0.49070  -0.49068  -0.45656  -0.45072
 Alpha  occ. eigenvalues --   -0.37812  -0.37665  -0.36806  -0.36629
 Alpha virt. eigenvalues --    0.04334   0.04808   0.10775   0.10907   0.15960
 Alpha virt. eigenvalues --    0.16251   0.20972   0.21618   0.27014   0.27141
 Alpha virt. eigenvalues --    0.28009   0.28578   0.30887   0.31100   0.32085

 Mulliken charges:
               1
     1  C   -0.169737
     2  C   -0.219261
     3  C   -0.169615
     4  C    0.155768
     5  C   -0.180143
     6  C   -0.225384
     7  H    0.227845
     8  H    0.225047
     9  H    0.276084
    10  H    0.285992
    11  H    0.227247
    12  N    0.489548
    13  O   -0.473953
    14  O   -0.455277
    15  C   -0.186663
    16  C   -0.220375
    17  C   -0.174740
    18  C    0.157751
    19  C   -0.172053
    20  C   -0.229934
    21  H    0.239079
    22  H    0.224471
    23  H    0.275421
    24  H    0.278440
    25  H    0.245888
    26  N    0.487907
    27  O   -0.458421
    28  O   -0.460934
 Sum of Mulliken charges =  -0.00000

 Dipole moment (field-independent basis, Debye):
    X=              3.3732    Y=              3.0583    Z=              2.8557  Tot=              5.3746
 Quadrupole moment (field-independent basis, Debye-Ang):
   XX=           -131.3110   YY=           -103.0642   ZZ=           -102.7320
   XY=             23.2934   XZ=             -8.6893   YZ=              1.2616

 Normal termination of Gaussian 16 at Wed May  5 18:05:10 2021.
