 Gaussian 16, Revision A.03,
 Gaussian 16:  EM64L-G16RevA.03 25-Dec-2016

 -------------
 #p 6-31g* mp2
 -------------

 ------------------------------------------------------
 Input file generated by CHIRIPA (05-May-2021 14:53:13)
 ------------------------------------------------------
 Symbolic Z-matrix:
 Charge =  0 Multiplicity = 1

                         Standard orientation:
 ---------------------------------------------------------------------
 Center     Atomic      Atomic             Coordinates (Angstroms)
 Number     Number       Type             X           Y           Z
 ---------------------------------------------------------------------
      1          6           0        3.497436   -0.526752    0.166433
      2          6           0        3.350717   -1.952880   -0.365186
      3          6           0        4.172979   -2.967627    0.429778
      4          1           0        4.557880   -0.240673    0.142707
      5          1           0        3.190742   -0.502743    1.221306
      6          1           0        3.656285   -1.973911   -1.419132
      7          1           0        2.290477   -2.235528   -0.340372
      8          1           0        3.863618   -2.976062    1.479933
      9          1           0        5.237187   -2.712958    0.395043
     10          1           0        4.053389   -3.980499    0.032728
     11          6           0        2.681372    0.499143   -0.617981
     12          6           0        2.828091    1.925271   -0.086362
     13          6           0        2.005829    2.940017   -0.881327
     14          1           0        2.988066    0.475134   -1.672854
     15          1           0        1.620928    0.213064   -0.594256
     16          1           0        3.888331    2.207919   -0.111177
     17          1           0        2.522523    1.946301    0.967584
     18          1           0        0.941621    2.685349   -0.846592
     19          1           0        2.315190    2.948453   -1.931482
     20          1           0        2.125419    3.952889   -0.484277
     21          6           0       -1.219825    1.995776    1.176706
     22          6           0       -1.681922    2.048707   -0.142455
     23          6           0       -2.344671    0.954835   -0.707039
     24          6           0       -2.529006   -0.181117    0.079679
     25          6           0       -2.080279   -0.264418    1.396871
     26          6           0       -1.420124    0.841418    1.940811
     27          1           0       -0.705993    2.850170    1.607270
     28          1           0       -1.527774    2.943887   -0.738221
     29          1           0       -2.712710    0.968842   -1.725749
     30          1           0       -2.248782   -1.170582    1.965985
     31          1           0       -1.062333    0.797484    2.965556
     32          7           0       -3.229256   -1.345483   -0.507094
     33          8           0       -3.379126   -2.334603    0.206922
     34          8           0       -3.614981   -1.246946   -1.669910
 ---------------------------------------------------------------------

 SCF Done:  E(RHF) =  -669.534957621     A.U. after   15 cycles
 E2 =    -0.2093158307D+01 EUMP2 =    -0.67162811592789D+03

 The electronic state is 1-A.
 Alpha  occ. eigenvalues --  -20.60845 -20.60839 -15.85900 -11.31302 -11.27877
 Alpha  occ. eigenvalues --  -11.27868 -11.27617 -11.26892 -11.26872 -11.22139
 Alpha  occ. eigenvalues --  -11.21734 -11.21690 -11.21681 -11.21616 -11.21173
 Alpha  occ. eigenvalues --   -1.59920  -1.39472  -1.19486  -1.08885  -1.08732
 Alpha  occ. eigenvalues --   -1.04895  -1.03871  -0.96335  -0.95692  -0.87365
 Alpha  occ. eigenvalues --   -0.86283  -0.82523  -0.79949  -0.78531  -0.77568
 Alpha  occ. eigenvalues --   -0.72118  -0.71244  -0.70577  -0.65413  -0.65130
 Alpha  occ. eigenvalues --   -0.64890  -0.62255  -0.61270  -0.59711  -0.57930
 Alpha  occ. eigenvalues --   -0.55649  -0.55370  -0.53255  -0.53063  -0.52981
 Alpha  occ. eigenvalues --   -0.52685  -0.50273  -0.48879  -0.48869  -0.48251
 Alpha  occ. eigenvalues --   -0.46970  -0.46078  -0.45980  -0.44870  -0.44114
 Alpha  occ. eigenvalues --   -0.37413  -0.36459
 Alpha virt. eigenvalues --    0.04953   0.11015   0.16387   0.20697   0.22720
 Alpha virt. eigenvalues --    0.24117   0.26294   0.26327   0.27127   0.27964
 Alpha virt. eigenvalues --    0.28880   0.30305   0.31220   0.31635   0.31825

 Mulliken charges:
               1
     1  C   -0.297931
     2  C   -0.300427
     3  C   -0.475757
     4  H    0.149616
     5  H    0.146932
     6  H    0.153079
     7  H    0.154443
     8  H    0.154085
     9  H    0.154788
    10  H    0.162551
    11  C   -0.300463
    12  C   -0.296769
    13  C   -0.484973
    14  H    0.150716
    15  H    0.154036
    16  H    0.153790
    17  H    0.145775
    18  H    0.155955
    19  H    0.158323
    20  H    0.156286
    21  C   -0.168446
    22  C   -0.220356
    23  C   -0.172256
    24  C    0.158145
    25  C   -0.170942
    26  C   -0.219292
    27  H    0.228179
    28  H    0.226295
    29  H    0.276500
    30  H    0.276073
    31  H    0.224004
    32  N    0.488099
    33  O   -0.460197
    34  O   -0.459858
 Sum of Mulliken charges =  -0.00000

 Dipole moment (field-independent basis, Debye):
    X=              2.4116    Y=              4.0082    Z=              2.0428  Tot=              5.1044
 Quadrupole moment (field-independent basis, Debye-Ang):
   XX=           -107.6426   YY=            -96.4083   ZZ=            -90.6854
   XY=            -10.9336   XZ=             -5.4065   YZ=             -2.1384

 Normal termination of Gaussian 16 at Thu May  6 18:45:45 2021.
