 Gaussian 16, Revision A.03,
 Gaussian 16:  EM64L-G16RevA.03 25-Dec-2016

 -------------
 #p 6-31g* mp2
 -------------

 ------------------------------------------------------
 Input file generated by CHIRIPA (05-May-2021 14:53:14)
 ------------------------------------------------------
 Symbolic Z-matrix:
 Charge =  0 Multiplicity = 1

                         Standard orientation:
 ---------------------------------------------------------------------
 Center     Atomic      Atomic             Coordinates (Angstroms)
 Number     Number       Type             X           Y           Z
 ---------------------------------------------------------------------
      1          6           0        3.924934    0.068734   -0.259089
      2          6           0        3.467899    1.440093   -0.757567
      3          6           0        1.966332    1.496001   -1.040348
      4          1           0        3.662598   -0.692238   -1.006783
      5          1           0        3.369193   -0.185642    0.654059
      6          1           0        4.025329    1.692417   -1.668731
      7          1           0        3.731525    2.197914   -0.008685
      8          1           0        1.395001    1.269713   -0.134271
      9          1           0        1.690475    0.761343   -1.803749
     10          1           0        1.661267    2.485248   -1.395573
     11          6           0        5.423663   -0.002908    0.027981
     12          6           0        5.880697   -1.374266    0.526459
     13          6           0        7.382264   -1.430175    0.809239
     14          1           0        5.979404    0.251469   -0.885168
     15          1           0        5.685998    0.758064    0.775674
     16          1           0        5.617072   -2.132088   -0.222423
     17          1           0        5.323267   -1.626591    1.437623
     18          1           0        7.658122   -0.695517    1.572640
     19          1           0        7.953596   -1.203886   -0.096837
     20          1           0        7.687329   -2.419422    1.164465
     21          6           0       -1.930686    1.793406    0.397698
     22          6           0       -1.723955    0.787407   -0.551907
     23          6           0       -2.670816   -0.225507   -0.730810
     24          6           0       -3.818186   -0.201579    0.060556
     25          6           0       -4.052844    0.787036    1.014949
     26          6           0       -3.092422    1.790015    1.176722
     27          1           0       -1.189874    2.576404    0.530020
     28          1           0       -0.822670    0.787515   -1.158314
     29          1           0       -2.536085   -1.016393   -1.458659
     30          1           0       -4.961129    0.760318    1.604627
     31          1           0       -3.255624    2.570022    1.914963
     32          7           0       -4.827764   -1.268647   -0.119773
     33          8           0       -5.830290   -1.225100    0.589932
     34          8           0       -4.597427   -2.128357   -0.967405
 ---------------------------------------------------------------------

 SCF Done:  E(RHF) =  -669.535328736     A.U. after   15 cycles
 E2 =    -0.2091436033D+01 EUMP2 =    -0.67162676476929D+03

 The electronic state is 1-A.
 Alpha  occ. eigenvalues --  -20.60692 -20.60687 -15.85743 -11.31088 -11.27653
 Alpha  occ. eigenvalues --  -11.27624 -11.27366 -11.26673 -11.26556 -11.22547
 Alpha  occ. eigenvalues --  -11.22410 -11.22100 -11.22035 -11.21921 -11.21424
 Alpha  occ. eigenvalues --   -1.59768  -1.39322  -1.19249  -1.09118  -1.08648
 Alpha  occ. eigenvalues --   -1.04650  -1.04269  -0.96763  -0.95488  -0.87813
 Alpha  occ. eigenvalues --   -0.86033  -0.82320  -0.80370  -0.78876  -0.77366
 Alpha  occ. eigenvalues --   -0.71962  -0.71090  -0.70360  -0.65743  -0.64898
 Alpha  occ. eigenvalues --   -0.64660  -0.62016  -0.61662  -0.60149  -0.58321
 Alpha  occ. eigenvalues --   -0.56054  -0.55141  -0.53537  -0.53285  -0.52968
 Alpha  occ. eigenvalues --   -0.52555  -0.50701  -0.48767  -0.48719  -0.48586
 Alpha  occ. eigenvalues --   -0.47359  -0.46427  -0.46317  -0.44732  -0.44501
 Alpha  occ. eigenvalues --   -0.37228  -0.36244
 Alpha virt. eigenvalues --    0.05147   0.11336   0.16649   0.20597   0.22284
 Alpha virt. eigenvalues --    0.23758   0.25605   0.25925   0.26969   0.27733
 Alpha virt. eigenvalues --    0.29202   0.29707   0.30827   0.31466   0.31987

 Mulliken charges:
               1
     1  C   -0.299437
     2  C   -0.299439
     3  C   -0.486968
     4  H    0.150909
     5  H    0.150674
     6  H    0.155745
     7  H    0.153910
     8  H    0.154809
     9  H    0.154816
    10  H    0.160777
    11  C   -0.298960
    12  C   -0.300246
    13  C   -0.476107
    14  H    0.150679
    15  H    0.150242
    16  H    0.153030
    17  H    0.152782
    18  H    0.155485
    19  H    0.155757
    20  H    0.161955
    21  C   -0.175366
    22  C   -0.224884
    23  C   -0.173175
    24  C    0.158914
    25  C   -0.171648
    26  C   -0.218405
    27  H    0.226105
    28  H    0.238213
    29  H    0.275370
    30  H    0.275103
    31  H    0.222798
    32  N    0.488004
    33  O   -0.460794
    34  O   -0.460647
 Sum of Mulliken charges =  -0.00000

 Dipole moment (field-independent basis, Debye):
    X=              3.8328    Y=              3.7440    Z=              0.6298  Tot=              5.3948
 Quadrupole moment (field-independent basis, Debye-Ang):
   XX=           -121.2246   YY=            -95.9956   ZZ=            -91.6803
   XY=            -16.3955   XZ=             -4.9968   YZ=              2.1843

 Normal termination of Gaussian 16 at Thu May  6 05:48:15 2021.
