 Gaussian 16, Revision A.03,
 Gaussian 16:  EM64L-G16RevA.03 25-Dec-2016

 -------------
 #p 6-31g* mp2
 -------------

 ------------------------------------------------------
 Input file generated by CHIRIPA (05-May-2021 14:55:19)
 ------------------------------------------------------
 Symbolic Z-matrix:
 Charge =  0 Multiplicity = 1

                         Standard orientation:
 ---------------------------------------------------------------------
 Center     Atomic      Atomic             Coordinates (Angstroms)
 Number     Number       Type             X           Y           Z
 ---------------------------------------------------------------------
      1          6           0       -1.162000    0.460758   -0.775189
      2          6           0       -1.873682    1.554648   -0.271767
      3          6           0       -3.222373    1.426260    0.073341
      4          6           0       -3.830686    0.183817   -0.098649
      5          6           0       -3.148540   -0.924709   -0.597784
      6          6           0       -1.800574   -0.773254   -0.936307
      7          1           0       -0.114586    0.569453   -1.040719
      8          1           0       -1.380339    2.514197   -0.145581
      9          1           0       -3.797087    2.256651    0.465223
     10          1           0       -3.667533   -1.868598   -0.712400
     11          1           0       -1.250362   -1.624508   -1.327045
     12          7           0       -5.258101    0.035689    0.263215
     13          8           0       -5.771058   -1.069573    0.102259
     14          8           0       -5.836922    1.027653    0.700949
     15          6           0        3.936337   -0.295526    0.575817
     16          6           0        2.991697   -1.375661    0.047664
     17          6           0        1.663880   -1.421258    0.804379
     18          1           0        4.126787   -0.473821    1.643002
     19          1           0        3.439704    0.682164    0.506016
     20          1           0        3.490487   -2.350852    0.117155
     21          1           0        2.803626   -1.194885   -1.018434
     22          1           0        1.141961   -0.462164    0.724742
     23          1           0        1.832725   -1.624700    1.866784
     24          1           0        1.003859   -2.200402    0.410467
     25          6           0        5.267966   -0.237546   -0.170597
     26          6           0        6.212607    0.842591    0.357556
     27          6           0        7.540423    0.888187   -0.399160
     28          1           0        5.764599   -1.215236   -0.100797
     29          1           0        5.077516   -0.059250   -1.237783
     30          1           0        6.400677    0.661813    1.423654
     31          1           0        5.713816    1.817780    0.288065
     32          1           0        7.371579    1.091628   -1.461564
     33          1           0        8.062343   -0.070906   -0.319524
     34          1           0        8.200444    1.667331   -0.005248
 ---------------------------------------------------------------------

 SCF Done:  E(RHF) =  -669.534593738     A.U. after   15 cycles
 E2 =    -0.2091969910D+01 EUMP2 =    -0.67162656364820D+03

 The electronic state is 1-A.
 Alpha  occ. eigenvalues --  -20.60741 -20.60735 -15.85795 -11.31159 -11.27738
 Alpha  occ. eigenvalues --  -11.27726 -11.27457 -11.26752 -11.26729 -11.22537
 Alpha  occ. eigenvalues --  -11.22208 -11.22180 -11.22047 -11.22013 -11.21559
 Alpha  occ. eigenvalues --   -1.59816  -1.39370  -1.19338  -1.09194  -1.08735
 Alpha  occ. eigenvalues --   -1.04741  -1.04287  -0.96738  -0.95566  -0.87747
 Alpha  occ. eigenvalues --   -0.86135  -0.82404  -0.80350  -0.78980  -0.77443
 Alpha  occ. eigenvalues --   -0.72013  -0.71140  -0.70490  -0.65834  -0.64990
 Alpha  occ. eigenvalues --   -0.64751  -0.62100  -0.61693  -0.60107  -0.58335
 Alpha  occ. eigenvalues --   -0.56160  -0.55148  -0.53486  -0.53184  -0.52973
 Alpha  occ. eigenvalues --   -0.52810  -0.50636  -0.48781  -0.48768  -0.48643
 Alpha  occ. eigenvalues --   -0.47392  -0.46520  -0.46444  -0.44776  -0.44533
 Alpha  occ. eigenvalues --   -0.37265  -0.36339
 Alpha virt. eigenvalues --    0.05059   0.11265   0.16441   0.19524   0.22569
 Alpha virt. eigenvalues --    0.23990   0.25486   0.26107   0.26903   0.27554
 Alpha virt. eigenvalues --    0.29297   0.29778   0.31233   0.31319   0.32230

 Mulliken charges:
               1
     1  C   -0.168992
     2  C   -0.220355
     3  C   -0.170608
     4  C    0.158594
     5  C   -0.171502
     6  C   -0.216909
     7  H    0.226769
     8  H    0.223127
     9  H    0.275527
    10  H    0.275502
    11  H    0.223852
    12  N    0.488095
    13  O   -0.460488
    14  O   -0.460548
    15  C   -0.297642
    16  C   -0.301973
    17  C   -0.478869
    18  H    0.153113
    19  H    0.145414
    20  H    0.156303
    21  H    0.146213
    22  H    0.152448
    23  H    0.161633
    24  H    0.157391
    25  C   -0.298590
    26  C   -0.300009
    27  C   -0.476067
    28  H    0.151577
    29  H    0.148850
    30  H    0.153429
    31  H    0.151256
    32  H    0.155273
    33  H    0.156307
    34  H    0.161878
 Sum of Mulliken charges =  -0.00000

 Dipole moment (field-independent basis, Debye):
    X=              5.1860    Y=              0.4904    Z=             -1.2090  Tot=              5.3476
 Quadrupole moment (field-independent basis, Debye-Ang):
   XX=           -134.1623   YY=            -89.5205   ZZ=            -94.6466
   XY=             -1.7438   XZ=              5.2825   YZ=              0.7852

 Normal termination of Gaussian 16 at Wed May  5 23:43:12 2021.
