 Gaussian 16, Revision A.03,
 Gaussian 16:  EM64L-G16RevA.03 25-Dec-2016

 -------------
 #p 6-31g* mp2
 -------------

 ------------------------------------------------------
 Input file generated by CHIRIPA (05-May-2021 14:53:12)
 ------------------------------------------------------
 Symbolic Z-matrix:
 Charge =  0 Multiplicity = 1

                         Standard orientation:
 ---------------------------------------------------------------------
 Center     Atomic      Atomic             Coordinates (Angstroms)
 Number     Number       Type             X           Y           Z
 ---------------------------------------------------------------------
      1          6           0       -3.186981   -0.544642   -0.522393
      2          6           0       -2.745858   -1.692563    0.386272
      3          6           0       -3.467520   -3.004001    0.074620
      4          1           0       -4.271446   -0.401132   -0.420969
      5          1           0       -3.005273   -0.824401   -1.569347
      6          1           0       -2.927064   -1.410168    1.431276
      7          1           0       -1.662287   -1.833231    0.282817
      8          1           0       -3.277236   -3.312341   -0.958491
      9          1           0       -4.549199   -2.886875    0.196493
     10          1           0       -3.137029   -3.811071    0.735888
     11          6           0       -2.474412    0.773075   -0.223067
     12          6           0       -2.915535    1.920996   -1.131732
     13          6           0       -2.193874    3.232435   -0.820080
     14          1           0       -2.656121    1.052834    0.823887
     15          1           0       -1.389948    0.629565   -0.324491
     16          1           0       -3.999106    2.061664   -1.028277
     17          1           0       -2.734330    1.638601   -2.176736
     18          1           0       -1.112195    3.115308   -0.941953
     19          1           0       -2.384157    3.540775    0.213031
     20          1           0       -2.524365    4.039504   -1.481348
     21          6           0        0.734705    0.728573    2.166362
     22          6           0        0.572710   -0.565761    1.661408
     23          6           0        1.385305   -1.029472    0.622558
     24          6           0        2.354251   -0.168294    0.109912
     25          6           0        2.540056    1.126570    0.591674
     26          6           0        1.716130    1.569125    1.630827
     27          1           0        0.099061    1.080578    2.973483
     28          1           0       -0.188657   -1.220739    2.075376
     29          1           0        1.281428   -2.026838    0.212814
     30          1           0        3.307671    1.756371    0.158623
     31          1           0        1.844195    2.574811    2.021008
     32          7           0        3.220506   -0.648006   -0.990033
     33          8           0        4.066849    0.130205   -1.424463
     34          8           0        3.036732   -1.793132   -1.396914
 ---------------------------------------------------------------------

 SCF Done:  E(RHF) =  -669.534126818     A.U. after   15 cycles
 E2 =    -0.2094495062D+01 EUMP2 =    -0.67162862188008D+03

 The electronic state is 1-A.
 Alpha  occ. eigenvalues --  -20.60805 -20.60800 -15.85858 -11.31235 -11.27778
 Alpha  occ. eigenvalues --  -11.27764 -11.27479 -11.26805 -11.26716 -11.22336
 Alpha  occ. eigenvalues --  -11.21926 -11.21866 -11.21715 -11.21618 -11.21435
 Alpha  occ. eigenvalues --   -1.59881  -1.39434  -1.19396  -1.08938  -1.08755
 Alpha  occ. eigenvalues --   -1.04801  -1.04024  -0.96441  -0.95616  -0.87465
 Alpha  occ. eigenvalues --   -0.86186  -0.82465  -0.80140  -0.78757  -0.77476
 Alpha  occ. eigenvalues --   -0.72073  -0.71205  -0.70483  -0.65562  -0.65029
 Alpha  occ. eigenvalues --   -0.64787  -0.62186  -0.61394  -0.59814  -0.58076
 Alpha  occ. eigenvalues --   -0.55718  -0.55274  -0.53326  -0.53114  -0.52905
 Alpha  occ. eigenvalues --   -0.52749  -0.50383  -0.48843  -0.48830  -0.48404
 Alpha  occ. eigenvalues --   -0.47167  -0.46249  -0.46133  -0.44836  -0.44254
 Alpha  occ. eigenvalues --   -0.37318  -0.36309
 Alpha virt. eigenvalues --    0.04982   0.11213   0.16369   0.20587   0.22760
 Alpha virt. eigenvalues --    0.23669   0.25464   0.26154   0.27516   0.28303
 Alpha virt. eigenvalues --    0.28852   0.29842   0.30997   0.31510   0.32076

 Mulliken charges:
               1
     1  C   -0.297737
     2  C   -0.304234
     3  C   -0.475597
     4  H    0.150614
     5  H    0.153708
     6  H    0.145139
     7  H    0.149312
     8  H    0.159699
     9  H    0.157365
    10  H    0.158835
    11  C   -0.302589
    12  C   -0.299862
    13  C   -0.475911
    14  H    0.140989
    15  H    0.160029
    16  H    0.151673
    17  H    0.154926
    18  H    0.156488
    19  H    0.150819
    20  H    0.162033
    21  C   -0.170065
    22  C   -0.215983
    23  C   -0.174770
    24  C    0.158443
    25  C   -0.172299
    26  C   -0.218374
    27  H    0.225742
    28  H    0.229205
    29  H    0.275368
    30  H    0.275690
    31  H    0.223947
    32  N    0.488107
    33  O   -0.460238
    34  O   -0.460474
 Sum of Mulliken charges =  -0.00000

 Dipole moment (field-independent basis, Debye):
    X=             -3.0657    Y=              1.6950    Z=              3.8053  Tot=              5.1722
 Quadrupole moment (field-independent basis, Debye-Ang):
   XX=           -108.3599   YY=            -92.6238   ZZ=            -94.0705
   XY=              6.4769   XZ=              8.5926   YZ=             -0.3824

 Normal termination of Gaussian 16 at Wed May  5 20:09:53 2021.
