 Gaussian 16, Revision A.03,
 Gaussian 16:  EM64L-G16RevA.03 25-Dec-2016

 -------------
 #p 6-31g* mp2
 -------------

 ------------------------------------------------------
 Input file generated by CHIRIPA (05-May-2021 14:55:21)
 ------------------------------------------------------
 Symbolic Z-matrix:
 Charge =  0 Multiplicity = 1

                         Standard orientation:
 ---------------------------------------------------------------------
 Center     Atomic      Atomic             Coordinates (Angstroms)
 Number     Number       Type             X           Y           Z
 ---------------------------------------------------------------------
      1          6           0        0.422323    0.388658    1.757851
      2          6           0        1.348400    1.411008    1.526112
      3          6           0        2.455785    1.192345    0.701229
      4          6           0        2.606798   -0.066441    0.121623
      5          6           0        1.701495   -1.105161    0.333225
      6          6           0        0.601510   -0.863955    1.161719
      7          1           0       -0.435046    0.567276    2.400042
      8          1           0        1.211785    2.384800    1.987750
      9          1           0        3.188050    1.966055    0.504808
     10          1           0        1.864494   -2.065383   -0.140929
     11          1           0       -0.116087   -1.659787    1.339906
     12          7           0        3.775220   -0.309861   -0.753555
     13          8           0        3.885623   -1.427720   -1.252393
     14          8           0        4.558503    0.621813   -0.924108
     15          6           0       -2.772087   -0.636625   -0.158911
     16          6           0       -3.738342   -1.816391   -0.270655
     17          6           0       -3.087243   -3.150499    0.095434
     18          1           0       -1.907452   -0.815864   -0.812535
     19          1           0       -2.382931   -0.586344    0.867454
     20          1           0       -4.126620   -1.863596   -1.296145
     21          1           0       -4.600870   -1.634235    0.383165
     22          1           0       -2.715379   -3.128028    1.124906
     23          1           0       -2.238434   -3.358692   -0.563945
     24          1           0       -3.795729   -3.980186    0.008671
     25          6           0       -3.408337    0.704009   -0.521698
     26          6           0       -2.442082    1.883775   -0.409954
     27          6           0       -3.093181    3.217883   -0.776043
     28          1           0       -3.797492    0.653728   -1.548063
     29          1           0       -4.272973    0.883248    0.131925
     30          1           0       -1.579555    1.701618   -1.063774
     31          1           0       -2.053805    1.930980    0.615535
     32          1           0       -3.941990    3.426076   -0.116663
     33          1           0       -3.465045    3.195412   -1.805515
     34          1           0       -2.384696    4.047570   -0.689281
 ---------------------------------------------------------------------

 SCF Done:  E(RHF) =  -669.534001831     A.U. after   15 cycles
 E2 =    -0.2094287784D+01 EUMP2 =    -0.67162828961525D+03

 The electronic state is 1-A.
 Alpha  occ. eigenvalues --  -20.60732 -20.60727 -15.85785 -11.31135 -11.27695
 Alpha  occ. eigenvalues --  -11.27676 -11.27424 -11.26724 -11.26655 -11.22363
 Alpha  occ. eigenvalues --  -11.22230 -11.22202 -11.22052 -11.21976 -11.21616
 Alpha  occ. eigenvalues --   -1.59809  -1.39362  -1.19305  -1.09200  -1.08691
 Alpha  occ. eigenvalues --   -1.04706  -1.04254  -0.96718  -0.95546  -0.87735
 Alpha  occ. eigenvalues --   -0.86111  -0.82377  -0.80318  -0.79040  -0.77404
 Alpha  occ. eigenvalues --   -0.72004  -0.71132  -0.70439  -0.65831  -0.64955
 Alpha  occ. eigenvalues --   -0.64694  -0.62071  -0.61645  -0.60077  -0.58333
 Alpha  occ. eigenvalues --   -0.56016  -0.55223  -0.53448  -0.53183  -0.52982
 Alpha  occ. eigenvalues --   -0.52797  -0.50664  -0.48790  -0.48760  -0.48607
 Alpha  occ. eigenvalues --   -0.47356  -0.46524  -0.46440  -0.44772  -0.44509
 Alpha  occ. eigenvalues --   -0.37187  -0.36269
 Alpha virt. eigenvalues --    0.05065   0.11288   0.16437   0.19429   0.22482
 Alpha virt. eigenvalues --    0.23053   0.25206   0.26171   0.26554   0.28341
 Alpha virt. eigenvalues --    0.29790   0.30225   0.31188   0.31469   0.31621

 Mulliken charges:
               1
     1  C   -0.167663
     2  C   -0.218365
     3  C   -0.171728
     4  C    0.158591
     5  C   -0.174965
     6  C   -0.216436
     7  H    0.224011
     8  H    0.223050
     9  H    0.275239
    10  H    0.275220
    11  H    0.228300
    12  N    0.488056
    13  O   -0.460685
    14  O   -0.460659
    15  C   -0.298356
    16  C   -0.299635
    17  C   -0.478501
    18  H    0.155225
    19  H    0.137310
    20  H    0.156229
    21  H    0.153121
    22  H    0.148683
    23  H    0.155804
    24  H    0.165920
    25  C   -0.299374
    26  C   -0.298619
    27  C   -0.476263
    28  H    0.153140
    29  H    0.149397
    30  H    0.157958
    31  H    0.142765
    32  H    0.154739
    33  H    0.158090
    34  H    0.160400
 Sum of Mulliken charges =  -0.00000

 Dipole moment (field-independent basis, Debye):
    X=             -4.2415    Y=              0.8529    Z=              2.9462  Tot=              5.2343
 Quadrupole moment (field-independent basis, Debye-Ang):
   XX=           -116.3037   YY=            -91.4883   ZZ=            -93.7198
   XY=              4.6665   XZ=              7.9041   YZ=              1.1296

 Normal termination of Gaussian 16 at Thu May  6 20:47:14 2021.
