 Gaussian 16, Revision A.03,
 Gaussian 16:  EM64L-G16RevA.03 25-Dec-2016

 -------------
 #p 6-31g* mp2
 -------------

 ------------------------------------------------------
 Input file generated by CHIRIPA (05-May-2021 14:55:23)
 ------------------------------------------------------
 Symbolic Z-matrix:
 Charge =  0 Multiplicity = 1

                         Standard orientation:
 ---------------------------------------------------------------------
 Center     Atomic      Atomic             Coordinates (Angstroms)
 Number     Number       Type             X           Y           Z
 ---------------------------------------------------------------------
      1          6           0       -2.624235   -2.320165    0.260211
      2          6           0       -3.522799   -1.927271   -0.737154
      3          6           0       -3.924961   -0.592648   -0.844837
      4          6           0       -3.406473    0.326824    0.065675
      5          6           0       -2.509729   -0.033672    1.070256
      6          6           0       -2.121454   -1.373780    1.159148
      7          1           0       -2.317220   -3.359062    0.336563
      8          1           0       -3.914889   -2.660079   -1.436656
      9          1           0       -4.619292   -0.261170   -1.607362
     10          1           0       -2.135983    0.719665    1.753055
     11          1           0       -1.423480   -1.676044    1.934722
     12          7           0       -3.824873    1.742632   -0.038377
     13          8           0       -3.353641    2.533406    0.776027
     14          8           0       -4.616124    2.034761   -0.932367
     15          6           0        3.677291   -0.432625    0.257000
     16          6           0        2.521946   -0.798489   -0.675366
     17          6           0        1.339556   -1.423554    0.065608
     18          1           0        4.011003   -1.334462    0.788291
     19          1           0        3.313541    0.265287    1.023811
     20          1           0        2.888095   -1.494425   -1.441018
     21          1           0        2.191072    0.104288   -1.204641
     22          1           0        0.946976   -0.731642    0.817764
     23          1           0        1.647959   -2.339439    0.580043
     24          1           0        0.524984   -1.677345   -0.619900
     25          6           0        4.866749    0.193313   -0.469031
     26          6           0        6.022094    0.559177    0.463336
     27          6           0        7.204484    1.184242   -0.277639
     28          1           0        5.230498   -0.504599   -1.235842
     29          1           0        4.533036    1.095150   -1.000322
     30          1           0        6.352968   -0.343600    0.992610
     31          1           0        5.655945    1.255114    1.228987
     32          1           0        6.896081    2.100128   -0.792074
     33          1           0        7.597064    0.492330   -1.029794
     34          1           0        8.019056    1.438033    0.407870
 ---------------------------------------------------------------------

 SCF Done:  E(RHF) =  -669.535168423     A.U. after   15 cycles
 E2 =    -0.2091781930D+01 EUMP2 =    -0.67162695035231D+03

 The electronic state is 1-A.
 Alpha  occ. eigenvalues --  -20.60763 -20.60758 -15.85815 -11.31181 -11.27728
 Alpha  occ. eigenvalues --  -11.27715 -11.27460 -11.26770 -11.26731 -11.21951
 Alpha  occ. eigenvalues --  -11.21769 -11.21685 -11.21593 -11.21572 -11.21191
 Alpha  occ. eigenvalues --   -1.59838  -1.39391  -1.19345  -1.08748  -1.08690
 Alpha  occ. eigenvalues --   -1.04749  -1.03814  -0.96283  -0.95576  -0.87318
 Alpha  occ. eigenvalues --   -0.86134  -0.82409  -0.79892  -0.78500  -0.77454
 Alpha  occ. eigenvalues --   -0.72033  -0.71160  -0.70446  -0.65326  -0.64996
 Alpha  occ. eigenvalues --   -0.64748  -0.62102  -0.61211  -0.59655  -0.57883
 Alpha  occ. eigenvalues --   -0.55595  -0.55237  -0.53379  -0.52910  -0.52680
 Alpha  occ. eigenvalues --   -0.52627  -0.50221  -0.48792  -0.48789  -0.48203
 Alpha  occ. eigenvalues --   -0.46911  -0.46047  -0.45958  -0.44797  -0.44070
 Alpha  occ. eigenvalues --   -0.37296  -0.36296
 Alpha virt. eigenvalues --    0.05048   0.11285   0.16485   0.21032   0.22637
 Alpha virt. eigenvalues --    0.24042   0.26085   0.26493   0.27375   0.28108
 Alpha virt. eigenvalues --    0.28519   0.30520   0.31117   0.31671   0.32105

 Mulliken charges:
               1
     1  C   -0.173101
     2  C   -0.218832
     3  C   -0.171559
     4  C    0.158788
     5  C   -0.172800
     6  C   -0.211217
     7  H    0.225991
     8  H    0.223392
     9  H    0.275422
    10  H    0.275003
    11  H    0.225227
    12  N    0.488040
    13  O   -0.460565
    14  O   -0.460427
    15  C   -0.298627
    16  C   -0.300290
    17  C   -0.477363
    18  H    0.148372
    19  H    0.149757
    20  H    0.152011
    21  H    0.155702
    22  H    0.150963
    23  H    0.149854
    24  H    0.163638
    25  C   -0.298660
    26  C   -0.299868
    27  C   -0.475921
    28  H    0.149518
    29  H    0.151529
    30  H    0.151314
    31  H    0.152589
    32  H    0.156266
    33  H    0.155100
    34  H    0.160751
 Sum of Mulliken charges =  -0.00000

 Dipole moment (field-independent basis, Debye):
    X=              1.5097    Y=             -4.9743    Z=              0.3372  Tot=              5.2093
 Quadrupole moment (field-independent basis, Debye-Ang):
   XX=           -104.2868   YY=            -97.7963   ZZ=            -92.1220
   XY=             17.8016   XZ=              1.6694   YZ=              1.1372

 Normal termination of Gaussian 16 at Thu May  6 17:38:26 2021.
