 Gaussian 16, Revision A.03,
 Gaussian 16:  EM64L-G16RevA.03 25-Dec-2016

 -------------
 #p 6-31g* mp2
 -------------

 ------------------------------------------------------
 Input file generated by CHIRIPA (05-May-2021 14:55:21)
 ------------------------------------------------------
 Symbolic Z-matrix:
 Charge =  0 Multiplicity = 1

                         Standard orientation:
 ---------------------------------------------------------------------
 Center     Atomic      Atomic             Coordinates (Angstroms)
 Number     Number       Type             X           Y           Z
 ---------------------------------------------------------------------
      1          6           0        2.252242    2.774951    0.438300
      2          6           0        1.351039    1.758607    0.772069
      3          6           0        1.678283    0.417890    0.548607
      4          6           0        2.920935    0.128127   -0.012771
      5          6           0        3.840235    1.118253   -0.356031
      6          6           0        3.491779    2.452099   -0.123693
      7          1           0        1.989792    3.813783    0.615338
      8          1           0        0.387690    2.006388    1.208655
      9          1           0        0.999494   -0.388767    0.797542
     10          1           0        4.793075    0.840162   -0.789828
     11          1           0        4.193645    3.239325   -0.383893
     12          7           0        3.278602   -1.287593   -0.254038
     13          8           0        4.379690   -1.516624   -0.749806
     14          8           0        2.451080   -2.141397    0.057193
     15          6           0       -3.907680    0.195100   -0.336345
     16          6           0       -5.355199    0.528099    0.026676
     17          6           0       -5.829527    1.846918   -0.584490
     18          1           0       -3.254809    1.012331   -0.000429
     19          1           0       -3.812686    0.148587   -1.430058
     20          1           0       -5.447737    0.572606    1.119411
     21          1           0       -6.004676   -0.290108   -0.309974
     22          1           0       -5.765900    1.810218   -1.676830
     23          1           0       -5.205797    2.677834   -0.239323
     24          1           0       -6.866818    2.065458   -0.312227
     25          6           0       -3.419007   -1.120425    0.267244
     26          6           0       -1.971487   -1.453424   -0.095776
     27          6           0       -1.497159   -2.772243    0.515389
     28          1           0       -3.513999   -1.073913    1.360957
     29          1           0       -4.071876   -1.937656   -0.068673
     30          1           0       -1.322010   -0.635218    0.240873
     31          1           0       -1.878949   -1.497932   -1.188512
     32          1           0       -2.120889   -3.603159    0.170221
     33          1           0       -1.560786   -2.735543    1.607729
     34          1           0       -0.459868   -2.990784    0.243125
 ---------------------------------------------------------------------

 SCF Done:  E(RHF) =  -669.535664892     A.U. after   15 cycles
 E2 =    -0.2092092429D+01 EUMP2 =    -0.67162775732134D+03

 The electronic state is 1-A.
 Alpha  occ. eigenvalues --  -20.60845 -20.60838 -15.85889 -11.31199 -11.27779
 Alpha  occ. eigenvalues --  -11.27738 -11.27520 -11.26786 -11.26776 -11.21854
 Alpha  occ. eigenvalues --  -11.21772 -11.21670 -11.21545 -11.21341 -11.20734
 Alpha  occ. eigenvalues --   -1.59910  -1.39466  -1.19377  -1.08783  -1.08636
 Alpha  occ. eigenvalues --   -1.04778  -1.03664  -0.96075  -0.95621  -0.87078
 Alpha  occ. eigenvalues --   -0.86177  -0.82463  -0.79739  -0.78472  -0.77508
 Alpha  occ. eigenvalues --   -0.72114  -0.71226  -0.70497  -0.65305  -0.65032
 Alpha  occ. eigenvalues --   -0.64781  -0.62188  -0.61036  -0.59420  -0.57670
 Alpha  occ. eigenvalues --   -0.55406  -0.55252  -0.53106  -0.52872  -0.52700
 Alpha  occ. eigenvalues --   -0.52475  -0.50030  -0.48872  -0.48860  -0.48014
 Alpha  occ. eigenvalues --   -0.46801  -0.46005  -0.45922  -0.44880  -0.43888
 Alpha  occ. eigenvalues --   -0.37360  -0.36366
 Alpha virt. eigenvalues --    0.04994   0.11265   0.16466   0.19983   0.22874
 Alpha virt. eigenvalues --    0.23821   0.25437   0.26797   0.26920   0.28226
 Alpha virt. eigenvalues --    0.29370   0.30992   0.31507   0.31745   0.32066

 Mulliken charges:
               1
     1  C   -0.170392
     2  C   -0.220666
     3  C   -0.175146
     4  C    0.157961
     5  C   -0.170459
     6  C   -0.218874
     7  H    0.225703
     8  H    0.223322
     9  H    0.284695
    10  H    0.275553
    11  H    0.223533
    12  N    0.490792
    13  O   -0.459629
    14  O   -0.464157
    15  C   -0.296738
    16  C   -0.299761
    17  C   -0.475453
    18  H    0.142654
    19  H    0.151286
    20  H    0.151479
    21  H    0.153835
    22  H    0.156055
    23  H    0.152683
    24  H    0.161162
    25  C   -0.297830
    26  C   -0.299996
    27  C   -0.487764
    28  H    0.148218
    29  H    0.152594
    30  H    0.136163
    31  H    0.156278
    32  H    0.156012
    33  H    0.151402
    34  H    0.185485
 Sum of Mulliken charges =  -0.00000

 Dipole moment (field-independent basis, Debye):
    X=             -1.2176    Y=              4.8507    Z=              0.7763  Tot=              5.0611
 Quadrupole moment (field-independent basis, Debye-Ang):
   XX=            -98.3477   YY=            -93.7854   ZZ=            -94.3550
   XY=             16.7967   XZ=              0.8616   YZ=              0.3219

 Normal termination of Gaussian 16 at Thu May  6 04:33:31 2021.
