 Gaussian 16, Revision A.03,
 Gaussian 16:  EM64L-G16RevA.03 25-Dec-2016

 -------------
 #p 6-31g* mp2
 -------------

 ------------------------------------------------------
 Input file generated by CHIRIPA (05-May-2021 14:55:25)
 ------------------------------------------------------
 Symbolic Z-matrix:
 Charge =  0 Multiplicity = 1

                         Standard orientation:
 ---------------------------------------------------------------------
 Center     Atomic      Atomic             Coordinates (Angstroms)
 Number     Number       Type             X           Y           Z
 ---------------------------------------------------------------------
      1          6           0       -1.624982    0.664926   -0.280308
      2          6           0       -1.942002   -0.688541   -0.435689
      3          6           0       -3.261787   -1.128914   -0.298620
      4          6           0       -4.243950   -0.184353   -0.004597
      5          6           0       -3.959695    1.170883    0.156104
      6          6           0       -2.633062    1.588690    0.014572
      7          1           0       -0.597081    0.998254   -0.388520
      8          1           0       -1.161168   -1.408186   -0.664718
      9          1           0       -3.535097   -2.170775   -0.413713
     10          1           0       -4.759717    1.864683    0.384191
     11          1           0       -2.389782    2.640435    0.135788
     12          7           0       -5.644772   -0.638611    0.142873
     13          8           0       -6.491782    0.213454    0.402093
     14          8           0       -5.869201   -1.838123   -0.003551
     15          6           0        5.657923   -0.267275    0.418848
     16          6           0        6.887113   -0.618072   -0.420210
     17          6           0        7.920738   -1.433246    0.357545
     18          1           0        5.976657    0.294412    1.307589
     19          1           0        5.195344   -1.194526    0.784390
     20          1           0        7.346439    0.309512   -0.785207
     21          1           0        6.565396   -1.178824   -1.307157
     22          1           0        7.484472   -2.373982    0.708674
     23          1           0        8.269951   -0.877190    1.233589
     24          1           0        8.791100   -1.673001   -0.261202
     25          6           0        4.615556    0.547558   -0.344857
     26          6           0        3.386366    0.898355    0.494201
     27          6           0        2.352742    1.713530   -0.283556
     28          1           0        5.078136    1.474809   -0.710399
     29          1           0        4.296823   -0.014128   -1.233599
     30          1           0        3.708083    1.459107    1.381147
     31          1           0        2.927041   -0.029229    0.859198
     32          1           0        2.003528    1.157473   -1.159598
     33          1           0        2.789007    2.654265   -0.634684
     34          1           0        1.482380    1.953284    0.335192
 ---------------------------------------------------------------------

 SCF Done:  E(RHF) =  -669.535473687     A.U. after   15 cycles
 E2 =    -0.2090923471D+01 EUMP2 =    -0.67162639715736D+03

 The electronic state is 1-A.
 Alpha  occ. eigenvalues --  -20.60704 -20.60699 -15.85758 -11.31104 -11.27680
 Alpha  occ. eigenvalues --  -11.27676 -11.27332 -11.26678 -11.26666 -11.22645
 Alpha  occ. eigenvalues --  -11.22461 -11.22213 -11.22148 -11.22028 -11.21522
 Alpha  occ. eigenvalues --   -1.59781  -1.39335  -1.19274  -1.09222  -1.08665
 Alpha  occ. eigenvalues --   -1.04680  -1.04368  -0.96846  -0.95503  -0.87870
 Alpha  occ. eigenvalues --   -0.86074  -0.82344  -0.80440  -0.78979  -0.77398
 Alpha  occ. eigenvalues --   -0.71976  -0.71104  -0.70389  -0.65849  -0.64923
 Alpha  occ. eigenvalues --   -0.64690  -0.62033  -0.61763  -0.60280  -0.58422
 Alpha  occ. eigenvalues --   -0.56183  -0.55170  -0.53471  -0.53250  -0.53002
 Alpha  occ. eigenvalues --   -0.52770  -0.50761  -0.48751  -0.48732  -0.48726
 Alpha  occ. eigenvalues --   -0.47449  -0.46534  -0.46427  -0.44745  -0.44603
 Alpha  occ. eigenvalues --   -0.37241  -0.36292
 Alpha virt. eigenvalues --    0.05135   0.11363   0.16605   0.20189   0.22419
 Alpha virt. eigenvalues --    0.23810   0.25833   0.26330   0.26707   0.27201
 Alpha virt. eigenvalues --    0.29371   0.30299   0.30700   0.31131   0.31953

 Mulliken charges:
               1
     1  C   -0.178996
     2  C   -0.221540
     3  C   -0.170674
     4  C    0.158023
     5  C   -0.170640
     6  C   -0.221629
     7  H    0.239657
     8  H    0.222789
     9  H    0.275147
    10  H    0.275248
    11  H    0.223203
    12  N    0.488049
    13  O   -0.460689
    14  O   -0.460744
    15  C   -0.298922
    16  C   -0.300200
    17  C   -0.476119
    18  H    0.151219
    19  H    0.149982
    20  H    0.152869
    21  H    0.152287
    22  H    0.155726
    23  H    0.156034
    24  H    0.161870
    25  C   -0.299324
    26  C   -0.299260
    27  C   -0.484073
    28  H    0.151648
    29  H    0.149707
    30  H    0.156269
    31  H    0.151719
    32  H    0.152922
    33  H    0.162637
    34  H    0.155803
 Sum of Mulliken charges =  -0.00000

 Dipole moment (field-independent basis, Debye):
    X=              5.2546    Y=              1.6276    Z=             -0.5056  Tot=              5.5241
 Quadrupole moment (field-independent basis, Debye-Ang):
   XX=           -136.3811   YY=            -90.4866   ZZ=            -95.5562
   XY=             -8.3121   XZ=              1.7230   YZ=              1.6319

 Normal termination of Gaussian 16 at Thu May  6 14:23:48 2021.
