 Gaussian 16, Revision A.03,
 Gaussian 16:  EM64L-G16RevA.03 25-Dec-2016

 -------------
 #p 6-31g* mp2
 -------------

 ------------------------------------------------------
 Input file generated by CHIRIPA (05-May-2021 14:55:21)
 ------------------------------------------------------
 Symbolic Z-matrix:
 Charge =  0 Multiplicity = 1

                         Standard orientation:
 ---------------------------------------------------------------------
 Center     Atomic      Atomic             Coordinates (Angstroms)
 Number     Number       Type             X           Y           Z
 ---------------------------------------------------------------------
      1          6           0        5.063105    1.809985    0.569232
      2          6           0        5.400564    0.453245    0.525651
      3          6           0        4.462245   -0.499000    0.116584
      4          6           0        3.190019   -0.057408   -0.243594
      5          6           0        2.823535    1.287174   -0.210724
      6          6           0        3.777933    2.221893    0.201554
      7          1           0        5.798258    2.542904    0.888253
      8          1           0        6.397884    0.130466    0.810626
      9          1           0        4.696790   -1.555671    0.073533
     10          1           0        1.821344    1.578531   -0.500794
     11          1           0        3.513059    3.274891    0.234425
     12          7           0        2.188152   -1.056230   -0.678354
     13          8           0        1.074085   -0.641517   -0.990612
     14          8           0        2.535926   -2.234906   -0.698631
     15          6           0       -3.553687   -0.300840    0.132076
     16          6           0       -3.110362   -1.541537    0.908039
     17          6           0       -1.625674   -1.855964    0.721936
     18          1           0       -3.339559   -0.447872   -0.935385
     19          1           0       -2.952261    0.559885    0.455854
     20          1           0       -3.713389   -2.399383    0.583885
     21          1           0       -3.325746   -1.391613    1.973754
     22          1           0       -1.008779   -1.018377    1.063243
     23          1           0       -1.398623   -2.031873   -0.334522
     24          1           0       -1.330227   -2.746576    1.285302
     25          6           0       -5.035468    0.026382    0.308090
     26          6           0       -5.478794    1.267079   -0.467872
     27          6           0       -6.963481    1.581504   -0.281770
     28          1           0       -5.636894   -0.834344   -0.015688
     29          1           0       -5.249598    0.173413    1.375552
     30          1           0       -5.263409    1.117155   -1.533588
     31          1           0       -4.875768    2.124925   -0.143719
     32          1           0       -7.190533    1.757414    0.774689
     33          1           0       -7.580377    0.743919   -0.623076
     34          1           0       -7.258928    2.472117   -0.845135
 ---------------------------------------------------------------------

 SCF Done:  E(RHF) =  -669.535511871     A.U. after   15 cycles
 E2 =    -0.2091337736D+01 EUMP2 =    -0.67162684960690D+03

 The electronic state is 1-A.
 Alpha  occ. eigenvalues --  -20.60880 -20.60850 -15.85891 -11.31253 -11.27820
 Alpha  occ. eigenvalues --  -11.27815 -11.27562 -11.26835 -11.26825 -11.21088
 Alpha  occ. eigenvalues --  -11.20712 -11.20664 -11.20502 -11.20442 -11.19397
 Alpha  occ. eigenvalues --   -1.59926  -1.39483  -1.19424  -1.08822  -1.07625
 Alpha  occ. eigenvalues --   -1.04825  -1.02640  -0.95665  -0.95051  -0.86226
 Alpha  occ. eigenvalues --   -0.86061  -0.82493  -0.78740  -0.77547  -0.77383
 Alpha  occ. eigenvalues --   -0.72119  -0.71239  -0.70533  -0.65079  -0.64829
 Alpha  occ. eigenvalues --   -0.64270  -0.62173  -0.60047  -0.58509  -0.56661
 Alpha  occ. eigenvalues --   -0.55329  -0.54341  -0.53158  -0.52918  -0.51759
 Alpha  occ. eigenvalues --   -0.51480  -0.49095  -0.48872  -0.48791  -0.47008
 Alpha  occ. eigenvalues --   -0.45795  -0.45099  -0.44838  -0.44609  -0.42912
 Alpha  occ. eigenvalues --   -0.37403  -0.36428
 Alpha virt. eigenvalues --    0.04979   0.11225   0.16460   0.21349   0.23590
 Alpha virt. eigenvalues --    0.25220   0.27226   0.27441   0.28079   0.28336
 Alpha virt. eigenvalues --    0.29087   0.30918   0.32171   0.32454   0.32644

 Mulliken charges:
               1
     1  C   -0.170730
     2  C   -0.218546
     3  C   -0.170795
     4  C    0.158321
     5  C   -0.171187
     6  C   -0.218514
     7  H    0.225817
     8  H    0.223676
     9  H    0.275826
    10  H    0.275673
    11  H    0.223653
    12  N    0.488524
    13  O   -0.457821
    14  O   -0.459557
    15  C   -0.296052
    16  C   -0.301445
    17  C   -0.471832
    18  H    0.152865
    19  H    0.146077
    20  H    0.148492
    21  H    0.145248
    22  H    0.151404
    23  H    0.174118
    24  H    0.153640
    25  C   -0.297562
    26  C   -0.298755
    27  C   -0.475165
    28  H    0.148687
    29  H    0.147164
    30  H    0.152175
    31  H    0.149502
    32  H    0.153934
    33  H    0.154968
    34  H    0.158198
 Sum of Mulliken charges =  -0.00000

 Dipole moment (field-independent basis, Debye):
    X=              3.8247    Y=              3.4709    Z=              1.3920  Tot=              5.3491
 Quadrupole moment (field-independent basis, Debye-Ang):
   XX=            -72.5240   YY=            -92.6460   ZZ=            -95.8421
   XY=              9.0039   XZ=              5.2656   YZ=             -0.7496

 Normal termination of Gaussian 16 at Thu May  6 09:21:42 2021.
