 Gaussian 16, Revision A.03,
 Gaussian 16:  EM64L-G16RevA.03 25-Dec-2016

 -------------
 #p 6-31g* mp2
 -------------

 ------------------------------------------------------
 Input file generated by CHIRIPA (05-May-2021 14:55:22)
 ------------------------------------------------------
 Symbolic Z-matrix:
 Charge =  0 Multiplicity = 1

                         Standard orientation:
 ---------------------------------------------------------------------
 Center     Atomic      Atomic             Coordinates (Angstroms)
 Number     Number       Type             X           Y           Z
 ---------------------------------------------------------------------
      1          6           0        3.232332   -2.344363    0.489549
      2          6           0        3.920987   -1.476067    1.342977
      3          6           0        3.905187   -0.096657    1.115982
      4          6           0        3.187330    0.382342    0.021208
      5          6           0        2.491235   -0.457174   -0.847098
      6          6           0        2.520909   -1.833046   -0.600842
      7          1           0        3.249995   -3.414548    0.673365
      8          1           0        4.474324   -1.870347    2.190565
      9          1           0        4.429521    0.598127    1.760782
     10          1           0        1.948458   -0.034472   -1.683838
     11          1           0        1.985169   -2.505010   -1.265291
     12          7           0        3.163260    1.840789   -0.229297
     13          8           0        2.523384    2.237744   -1.200699
     14          8           0        3.784726    2.559350    0.550503
     15          6           0       -3.334150   -0.065229   -0.159324
     16          6           0       -2.596756   -1.257318   -0.770193
     17          6           0       -1.095777   -1.009033   -0.922544
     18          1           0       -3.169531    0.820776   -0.787688
     19          1           0       -2.897711    0.162771    0.822985
     20          1           0       -3.035366   -1.483874   -1.750453
     21          1           0       -2.763307   -2.140633   -0.140406
     22          1           0       -0.638339   -0.804751    0.050914
     23          1           0       -0.911943   -0.144262   -1.568281
     24          1           0       -0.588272   -1.873891   -1.361085
     25          6           0       -4.835572   -0.298220   -0.000660
     26          6           0       -5.572965    0.893868    0.610209
     27          6           0       -7.073944    0.645582    0.762560
     28          1           0       -5.272011   -0.526222   -0.982969
     29          1           0       -5.000191   -1.184225    0.627704
     30          1           0       -5.406414    1.777183   -0.019578
     31          1           0       -5.134356    1.120424    1.590469
     32          1           0       -7.257779   -0.219189    1.408297
     33          1           0       -7.531383    0.441302   -0.210898
     34          1           0       -7.581449    1.510441    1.201101
 ---------------------------------------------------------------------

 SCF Done:  E(RHF) =  -669.535051018     A.U. after   15 cycles
 E2 =    -0.2091949151D+01 EUMP2 =    -0.67162700016900D+03

 The electronic state is 1-A.
 Alpha  occ. eigenvalues --  -20.60721 -20.60716 -15.85774 -11.31117 -11.27695
 Alpha  occ. eigenvalues --  -11.27664 -11.27435 -11.26713 -11.26681 -11.21890
 Alpha  occ. eigenvalues --  -11.21621 -11.21528 -11.21515 -11.21447 -11.21088
 Alpha  occ. eigenvalues --   -1.59797  -1.39351  -1.19299  -1.08698  -1.08569
 Alpha  occ. eigenvalues --   -1.04703  -1.03709  -0.96182  -0.95531  -0.87212
 Alpha  occ. eigenvalues --   -0.86097  -0.82367  -0.79788  -0.78360  -0.77403
 Alpha  occ. eigenvalues --   -0.71993  -0.71120  -0.70406  -0.65196  -0.64950
 Alpha  occ. eigenvalues --   -0.64714  -0.62066  -0.61103  -0.59559  -0.57779
 Alpha  occ. eigenvalues --   -0.55463  -0.55205  -0.53248  -0.52941  -0.52665
 Alpha  occ. eigenvalues --   -0.52468  -0.50094  -0.48751  -0.48748  -0.48087
 Alpha  occ. eigenvalues --   -0.46789  -0.45907  -0.45816  -0.44759  -0.43974
 Alpha  occ. eigenvalues --   -0.37287  -0.36235
 Alpha virt. eigenvalues --    0.05106   0.11331   0.16556   0.20675   0.22796
 Alpha virt. eigenvalues --    0.24057   0.25975   0.26460   0.27002   0.27951
 Alpha virt. eigenvalues --    0.28938   0.29280   0.31346   0.31725   0.32396

 Mulliken charges:
               1
     1  C   -0.171993
     2  C   -0.218830
     3  C   -0.171452
     4  C    0.156580
     5  C   -0.167235
     6  C   -0.216511
     7  H    0.225202
     8  H    0.223016
     9  H    0.275243
    10  H    0.277099
    11  H    0.223749
    12  N    0.488238
    13  O   -0.460736
    14  O   -0.460754
    15  C   -0.299339
    16  C   -0.300474
    17  C   -0.478794
    18  H    0.153339
    19  H    0.150760
    20  H    0.152157
    21  H    0.150856
    22  H    0.160918
    23  H    0.159401
    24  H    0.148593
    25  C   -0.298469
    26  C   -0.299998
    27  C   -0.475819
    28  H    0.149527
    29  H    0.148705
    30  H    0.153702
    31  H    0.152556
    32  H    0.154559
    33  H    0.155144
    34  H    0.161060
 Sum of Mulliken charges =  -0.00000

 Dipole moment (field-independent basis, Debye):
    X=              0.0057    Y=             -5.0764    Z=              0.9009  Tot=              5.1557
 Quadrupole moment (field-independent basis, Debye-Ang):
   XX=            -94.2441   YY=            -99.2581   ZZ=            -91.0140
   XY=            -16.3184   XZ=              5.8471   YZ=              0.4363

 Normal termination of Gaussian 16 at Thu May  6 12:32:13 2021.
