 Gaussian 16, Revision A.03,
 Gaussian 16:  EM64L-G16RevA.03 25-Dec-2016

 -------------
 #p 6-31g* mp2
 -------------

 ------------------------------------------------------
 Input file generated by CHIRIPA (05-May-2021 14:57:23)
 ------------------------------------------------------
 Symbolic Z-matrix:
 Charge =  0 Multiplicity = 1

                         Standard orientation:
 ---------------------------------------------------------------------
 Center     Atomic      Atomic             Coordinates (Angstroms)
 Number     Number       Type             X           Y           Z
 ---------------------------------------------------------------------
      1          6           0       -1.387142    0.344208    1.921197
      2          6           0       -2.410620    1.276006    1.719293
      3          6           0       -3.436192    1.017255    0.805073
      4          6           0       -3.406958   -0.188846    0.106678
      5          6           0       -2.401030   -1.137186    0.285705
      6          6           0       -1.385616   -0.857296    1.205021
      7          1           0       -0.594398    0.553423    2.633365
      8          1           0       -2.414368    2.209943    2.274084
      9          1           0       -4.240702    1.721004    0.629234
     10          1           0       -2.424302   -2.059396   -0.282101
     11          1           0       -0.592044   -1.582788    1.359776
     12          7           0       -4.487309   -0.473964   -0.863864
     13          8           0       -4.438752   -1.543957   -1.466687
     14          8           0       -5.362187    0.377952   -1.003375
     15          6           0        1.830943    2.188449   -0.738952
     16          6           0        1.211423    0.956814   -0.502750
     17          6           0        1.976030   -0.183751   -0.240003
     18          6           0        3.364053   -0.056001   -0.220973
     19          6           0        4.010731    1.157066   -0.452414
     20          6           0        3.226160    2.284475   -0.713076
     21          1           0        1.229223    3.069358   -0.942251
     22          1           0        0.128071    0.879272   -0.522221
     23          1           0        1.522392   -1.149631   -0.053708
     24          1           0        5.092684    1.203102   -0.426426
     25          1           0        3.710009    3.239680   -0.896154
     26          7           0        4.184077   -1.256502    0.056082
     27          8           0        5.405226   -1.117563    0.067294
     28          8           0        3.590133   -2.313663    0.256779
 ---------------------------------------------------------------------

 SCF Done:  E(RHF) =  -868.336542482     A.U. after   16 cycles
 E2 =    -0.2602775645D+01 EUMP2 =    -0.87093931812673D+03

 The electronic state is 1-A.
 Alpha  occ. eigenvalues --  -20.61444 -20.61433 -20.61285 -20.61265 -15.86505
 Alpha  occ. eigenvalues --  -15.86326 -11.32063 -11.31694 -11.28675 -11.28657
 Alpha  occ. eigenvalues --  -11.28371 -11.28243 -11.28188 -11.27887 -11.27657
 Alpha  occ. eigenvalues --  -11.27634 -11.27225 -11.27071  -1.60516  -1.60351
 Alpha  occ. eigenvalues --   -1.40063  -1.39906  -1.20290  -1.19825  -1.09626
 Alpha  occ. eigenvalues --   -1.09209  -1.05712  -1.05203  -0.96405  -0.96064
 Alpha  occ. eigenvalues --   -0.87063  -0.86612  -0.83225  -0.82887  -0.78272
 Alpha  occ. eigenvalues --   -0.77942  -0.72710  -0.72541  -0.71851  -0.71675
 Alpha  occ. eigenvalues --   -0.71295  -0.70943  -0.65892  -0.65723  -0.65442
 Alpha  occ. eigenvalues --   -0.65182  -0.63057  -0.62541  -0.56110  -0.55729
 Alpha  occ. eigenvalues --   -0.54261  -0.53756  -0.53523  -0.52988  -0.49487
 Alpha  occ. eigenvalues --   -0.49457  -0.49308  -0.49287  -0.45426  -0.45312
 Alpha  occ. eigenvalues --   -0.38408  -0.37761  -0.37363  -0.36651
 Alpha virt. eigenvalues --    0.04192   0.04598   0.10234   0.10794   0.15552
 Alpha virt. eigenvalues --    0.16210   0.19800   0.21606   0.24982   0.27404
 Alpha virt. eigenvalues --    0.27650   0.28563   0.29790   0.31079   0.31512

 Mulliken charges:
               1
     1  C   -0.172228
     2  C   -0.222281
     3  C   -0.171267
     4  C    0.157800
     5  C   -0.173111
     6  C   -0.234021
     7  H    0.232800
     8  H    0.226237
     9  H    0.278319
    10  H    0.280584
    11  H    0.231053
    12  N    0.488081
    13  O   -0.457125
    14  O   -0.458739
    15  C   -0.173938
    16  C   -0.222089
    17  C   -0.179682
    18  C    0.160420
    19  C   -0.171854
    20  C   -0.217685
    21  H    0.226564
    22  H    0.235765
    23  H    0.267925
    24  H    0.276572
    25  H    0.224748
    26  N    0.488167
    27  O   -0.457953
    28  O   -0.463063
 Sum of Mulliken charges =  -0.00000

 Dipole moment (field-independent basis, Debye):
    X=              0.7319    Y=              5.2944    Z=              2.4765  Tot=              5.8907
 Quadrupole moment (field-independent basis, Debye-Ang):
   XX=           -145.8934   YY=           -100.7181   ZZ=           -104.6390
   XY=             11.0067   XZ=            -15.0156   YZ=             -0.6031

 Normal termination of Gaussian 16 at Thu May  6 14:35:11 2021.
