 Gaussian 16, Revision A.03,
 Gaussian 16:  EM64L-G16RevA.03 25-Dec-2016

 -------------
 #p 6-31g* mp2
 -------------

 ------------------------------------------------------
 Input file generated by CHIRIPA (05-May-2021 14:55:25)
 ------------------------------------------------------
 Symbolic Z-matrix:
 Charge =  0 Multiplicity = 1

                         Standard orientation:
 ---------------------------------------------------------------------
 Center     Atomic      Atomic             Coordinates (Angstroms)
 Number     Number       Type             X           Y           Z
 ---------------------------------------------------------------------
      1          6           0       -3.333363    2.486470    0.814813
      2          6           0       -3.990737    2.075380   -0.349397
      3          6           0       -3.794891    0.788132   -0.858499
      4          6           0       -2.930842   -0.065925   -0.174908
      5          6           0       -2.261435    0.314244    0.987269
      6          6           0       -2.472328    1.606142    1.478261
      7          1           0       -3.491345    3.488241    1.203262
      8          1           0       -4.659999    2.756924   -0.866728
      9          1           0       -4.291059    0.443930   -1.757810
     10          1           0       -1.600302   -0.387602    1.480963
     11          1           0       -1.960466    1.922680    2.382609
     12          7           0       -2.715544   -1.431138   -0.704285
     13          8           0       -1.949234   -2.164610   -0.083460
     14          8           0       -3.317181   -1.741869   -1.730012
     15          6           0        4.039958    0.324309   -0.383420
     16          6           0        5.506635    0.709850   -0.187967
     17          6           0        5.978172    1.766960   -1.186948
     18          1           0        3.898592   -0.047867   -1.407357
     19          1           0        3.415898    1.223750   -0.288822
     20          1           0        6.127619   -0.190283   -0.281533
     21          1           0        5.644565    1.080970    0.835684
     22          1           0        5.383477    2.681040   -1.090008
     23          1           0        5.869275    1.402563   -2.213572
     24          1           0        7.029341    2.027784   -1.029236
     25          6           0        3.553837   -0.731550    0.607830
     26          6           0        2.087161   -1.117092    0.412377
     27          6           0        1.615623   -2.174203    1.411358
     28          1           0        4.177897   -1.630992    0.513232
     29          1           0        3.695205   -0.359375    1.631767
     30          1           0        1.949230   -1.488213   -0.611274
     31          1           0        1.466176   -0.216959    0.505943
     32          1           0        1.724520   -1.809804    2.437982
     33          1           0        2.210319   -3.088282    1.314417
     34          1           0        0.564454   -2.435026    1.253646
 ---------------------------------------------------------------------

 SCF Done:  E(RHF) =  -669.536214379     A.U. after   15 cycles
 E2 =    -0.2091393917D+01 EUMP2 =    -0.67162760829649D+03

 The electronic state is 1-A.
 Alpha  occ. eigenvalues --  -20.60900 -20.60892 -15.85940 -11.31255 -11.27820
 Alpha  occ. eigenvalues --  -11.27813 -11.27561 -11.26833 -11.26823 -11.21489
 Alpha  occ. eigenvalues --  -11.21224 -11.21208 -11.21102 -11.21000 -11.20423
 Alpha  occ. eigenvalues --   -1.59961  -1.39518  -1.19426  -1.08831  -1.08195
 Alpha  occ. eigenvalues --   -1.04823  -1.03248  -0.95719  -0.95641  -0.86705
 Alpha  occ. eigenvalues --   -0.86223  -0.82510  -0.79322  -0.78006  -0.77563
 Alpha  occ. eigenvalues --   -0.72171  -0.71274  -0.70535  -0.65085  -0.64861
 Alpha  occ. eigenvalues --   -0.64805  -0.62178  -0.60660  -0.59041  -0.57269
 Alpha  occ. eigenvalues --   -0.55330  -0.54997  -0.53153  -0.52917  -0.52336
 Alpha  occ. eigenvalues --   -0.52103  -0.49657  -0.48914  -0.48908  -0.47616
 Alpha  occ. eigenvalues --   -0.46381  -0.45544  -0.45484  -0.44924  -0.43481
 Alpha  occ. eigenvalues --   -0.37405  -0.36421
 Alpha virt. eigenvalues --    0.04950   0.11197   0.16449   0.20827   0.23005
 Alpha virt. eigenvalues --    0.24039   0.26654   0.27026   0.27627   0.27768
 Alpha virt. eigenvalues --    0.29139   0.30729   0.31581   0.31713   0.32069

 Mulliken charges:
               1
     1  C   -0.170478
     2  C   -0.218584
     3  C   -0.170724
     4  C    0.157747
     5  C   -0.171701
     6  C   -0.219556
     7  H    0.225851
     8  H    0.223704
     9  H    0.275712
    10  H    0.279347
    11  H    0.223916
    12  N    0.492818
    13  O   -0.465688
    14  O   -0.459254
    15  C   -0.297735
    16  C   -0.299327
    17  C   -0.475452
    18  H    0.151087
    19  H    0.146629
    20  H    0.152602
    21  H    0.150521
    22  H    0.153678
    23  H    0.155813
    24  H    0.159720
    25  C   -0.297670
    26  C   -0.297461
    27  C   -0.489980
    28  H    0.150547
    29  H    0.146313
    30  H    0.158082
    31  H    0.142701
    32  H    0.145647
    33  H    0.155842
    34  H    0.185334
 Sum of Mulliken charges =  -0.00000

 Dipole moment (field-independent basis, Debye):
    X=             -0.9181    Y=              4.7161    Z=              1.7762  Tot=              5.1225
 Quadrupole moment (field-independent basis, Debye-Ang):
   XX=            -89.3097   YY=            -95.5870   ZZ=            -93.0874
   XY=            -15.7306   XZ=             -2.6954   YZ=             -0.6579

 Normal termination of Gaussian 16 at Thu May  6 04:48:26 2021.
