 Gaussian 16, Revision A.03,
 Gaussian 16:  EM64L-G16RevA.03 25-Dec-2016

 -------------
 #p 6-31g* mp2
 -------------

 ------------------------------------------------------
 Input file generated by CHIRIPA (05-May-2021 14:51:13)
 ------------------------------------------------------
 Symbolic Z-matrix:
 Charge =  0 Multiplicity = 1

                         Standard orientation:
 ---------------------------------------------------------------------
 Center     Atomic      Atomic             Coordinates (Angstroms)
 Number     Number       Type             X           Y           Z
 ---------------------------------------------------------------------
      1          6           0        2.437740   -0.127174   -0.071932
      2          6           0        3.535360   -1.123373   -0.447168
      3          6           0        3.034026   -2.567215   -0.489326
      4          1           0        2.021877   -0.401165    0.907319
      5          1           0        1.614631   -0.209521   -0.795193
      6          1           0        4.356761   -1.038199    0.275786
      7          1           0        3.948790   -0.846866   -1.425552
      8          1           0        2.229363   -2.674322   -1.223932
      9          1           0        2.639652   -2.866742    0.487072
     10          1           0        3.834876   -3.262537   -0.759562
     11          6           0        2.923505    1.320450   -0.025615
     12          6           0        1.825884    2.316649    0.349621
     13          6           0        2.327219    3.760492    0.391779
     14          1           0        3.746613    1.402797    0.697646
     15          1           0        3.339368    1.594442   -1.004866
     16          1           0        1.412455    2.040142    1.328006
     17          1           0        1.004484    2.231476   -0.373332
     18          1           0        2.721592    4.060019   -0.584619
     19          1           0        3.131882    3.867598    1.126386
     20          1           0        1.526369    4.455813    0.662015
     21          6           0       -3.318657   -0.211775    0.216772
     22          6           0       -3.536773    1.016198   -0.667814
     23          6           0       -4.817270    1.775703   -0.319573
     24          1           0       -4.182731   -0.883363    0.120385
     25          1           0       -3.284133    0.104154    1.268624
     26          1           0       -3.569492    0.698219   -1.717784
     27          1           0       -2.671992    1.684850   -0.569457
     28          1           0       -4.790089    2.120841    0.719052
     29          1           0       -5.692688    1.128605   -0.435800
     30          1           0       -4.953498    2.649737   -0.964063
     31          6           0       -2.042588   -0.981502   -0.119226
     32          6           0       -1.824471   -2.209474    0.765362
     33          6           0       -0.543974   -2.968980    0.417120
     34          1           0       -2.077112   -1.297431   -1.171077
     35          1           0       -1.178514   -0.309914   -0.022838
     36          1           0       -2.689252   -2.878127    0.667004
     37          1           0       -1.791752   -1.891497    1.815331
     38          1           0        0.331443   -2.321881    0.533347
     39          1           0       -0.571156   -3.314117   -0.621505
     40          1           0       -0.407747   -3.843013    1.061609
 ---------------------------------------------------------------------

 SCF Done:  E(RHF) =  -470.731759121     A.U. after   11 cycles
 E2 =    -0.1584681749D+01 EUMP2 =    -0.47231644087086D+03

 The electronic state is 1-A.
 Alpha  occ. eigenvalues --  -11.21677 -11.21612 -11.21573 -11.21485 -11.21466
 Alpha  occ. eigenvalues --  -11.21407 -11.21342 -11.21275 -11.21124 -11.21049
 Alpha  occ. eigenvalues --  -11.20968 -11.20836  -1.08498  -1.08353  -1.03591
 Alpha  occ. eigenvalues --   -1.03429  -0.96044  -0.95868  -0.87087  -0.86866
 Alpha  occ. eigenvalues --   -0.79764  -0.79422  -0.78417  -0.78059  -0.65117
 Alpha  occ. eigenvalues --   -0.64994  -0.61002  -0.60836  -0.59433  -0.59249
 Alpha  occ. eigenvalues --   -0.57762  -0.57405  -0.55324  -0.55156  -0.52755
 Alpha  occ. eigenvalues --   -0.52698  -0.52506  -0.52110  -0.50004  -0.49829
 Alpha  occ. eigenvalues --   -0.48233  -0.47562  -0.46740  -0.46568  -0.46147
 Alpha  occ. eigenvalues --   -0.45743  -0.45657  -0.45099  -0.43818  -0.43707
 Alpha virt. eigenvalues --    0.21171   0.22899   0.23474   0.24565   0.25311
 Alpha virt. eigenvalues --    0.26099   0.26716   0.27353   0.28916   0.29944
 Alpha virt. eigenvalues --    0.30310   0.31174   0.31636   0.31753   0.32126

 Mulliken charges:
               1
     1  C   -0.304241
     2  C   -0.299030
     3  C   -0.479424
     4  H    0.149520
     5  H    0.153654
     6  H    0.151675
     7  H    0.151849
     8  H    0.158604
     9  H    0.157672
    10  H    0.159880
    11  C   -0.297638
    12  C   -0.300915
    13  C   -0.475711
    14  H    0.149799
    15  H    0.150086
    16  H    0.151566
    17  H    0.152504
    18  H    0.155510
    19  H    0.155444
    20  H    0.160389
    21  C   -0.297881
    22  C   -0.299873
    23  C   -0.475631
    24  H    0.149548
    25  H    0.149377
    26  H    0.151582
    27  H    0.151957
    28  H    0.155177
    29  H    0.155161
    30  H    0.160046
    31  C   -0.302319
    32  C   -0.299412
    33  C   -0.482889
    34  H    0.148391
    35  H    0.153900
    36  H    0.150974
    37  H    0.150739
    38  H    0.168236
    39  H    0.153368
    40  H    0.158359
 Sum of Mulliken charges =  -0.00000

 Dipole moment (field-independent basis, Debye):
    X=              0.0747    Y=              0.0133    Z=             -0.0114  Tot=              0.0767
 Quadrupole moment (field-independent basis, Debye-Ang):
   XX=            -85.4209   YY=            -86.1237   ZZ=            -83.3758
   XY=              0.5522   XZ=              0.6951   YZ=              0.1370

 Normal termination of Gaussian 16 at Wed May  5 19:58:48 2021.
