 Gaussian 16, Revision A.03,
 Gaussian 16:  EM64L-G16RevA.03 25-Dec-2016

 -------------
 #p 6-31g* mp2
 -------------

 ------------------------------------------------------
 Input file generated by CHIRIPA (05-May-2021 14:57:27)
 ------------------------------------------------------
 Symbolic Z-matrix:
 Charge =  0 Multiplicity = 1

                         Standard orientation:
 ---------------------------------------------------------------------
 Center     Atomic      Atomic             Coordinates (Angstroms)
 Number     Number       Type             X           Y           Z
 ---------------------------------------------------------------------
      1          6           0       -3.547870    2.566727    0.021447
      2          6           0       -4.534988    1.892218   -0.704608
      3          6           0       -4.520015    0.497299   -0.796924
      4          6           0       -3.498629   -0.194649   -0.147871
      5          6           0       -2.501054    0.448684    0.583057
      6          6           0       -2.535837    1.844081    0.661834
      7          1           0       -3.567196    3.650520    0.087902
      8          1           0       -5.322155    2.450841   -1.202959
      9          1           0       -5.271782   -0.050204   -1.352357
     10          1           0       -1.729108   -0.135508    1.069099
     11          1           0       -1.767925    2.365259    1.226395
     12          7           0       -3.472292   -1.671640   -0.238435
     13          8           0       -2.561694   -2.258173    0.342450
     14          8           0       -4.362746   -2.214806   -0.888589
     15          6           0        1.439861   -0.586896    1.481992
     16          6           0        2.178168   -1.617414    0.890844
     17          6           0        3.322950   -1.330942    0.141209
     18          6           0        3.702424    0.003246    0.002524
     19          6           0        2.987821    1.052067    0.579246
     20          6           0        1.846327    0.742212    1.324584
     21          1           0        0.551843   -0.818517    2.062659
     22          1           0        1.864859   -2.650539    1.011413
     23          1           0        3.913046   -2.109242   -0.327250
     24          1           0        3.324993    2.072226    0.441374
     25          1           0        1.274888    1.544569    1.782543
     26          7           0        4.912613    0.318899   -0.788808
     27          8           0        5.225949    1.502518   -0.896058
     28          8           0        5.524909   -0.623289   -1.286818
 ---------------------------------------------------------------------

 SCF Done:  E(RHF) =  -868.337432083     A.U. after   16 cycles
 E2 =    -0.2600117447D+01 EUMP2 =    -0.87093754952953D+03

 The electronic state is 1-A.
 Alpha  occ. eigenvalues --  -20.61491 -20.61453 -20.60881 -20.60866 -15.86529
 Alpha  occ. eigenvalues --  -15.85931 -11.31874 -11.31346 -11.28535 -11.28392
 Alpha  occ. eigenvalues --  -11.28156 -11.27969 -11.27843 -11.27702 -11.27522
 Alpha  occ. eigenvalues --  -11.27388 -11.27091 -11.26832  -1.60542  -1.59950
 Alpha  occ. eigenvalues --   -1.40102  -1.39502  -1.20043  -1.19522  -1.09432
 Alpha  occ. eigenvalues --   -1.08920  -1.05460  -1.04928  -0.96278  -0.95744
 Alpha  occ. eigenvalues --   -0.86856  -0.86331  -0.83124  -0.82573  -0.78188
 Alpha  occ. eigenvalues --   -0.77601  -0.72757  -0.72149  -0.71858  -0.71272
 Alpha  occ. eigenvalues --   -0.71203  -0.70619  -0.65705  -0.65477  -0.65182
 Alpha  occ. eigenvalues --   -0.64948  -0.62832  -0.62264  -0.55960  -0.55455
 Alpha  occ. eigenvalues --   -0.53764  -0.53565  -0.53228  -0.53019  -0.49518
 Alpha  occ. eigenvalues --   -0.49491  -0.48911  -0.48900  -0.45511  -0.44896
 Alpha  occ. eigenvalues --   -0.37996  -0.37536  -0.37031  -0.36511
 Alpha virt. eigenvalues --    0.04371   0.04902   0.10605   0.11086   0.15884
 Alpha virt. eigenvalues --    0.16240   0.18323   0.22258   0.24840   0.25437
 Alpha virt. eigenvalues --    0.27899   0.29110   0.30556   0.31414   0.33377

 Mulliken charges:
               1
     1  C   -0.169704
     2  C   -0.218291
     3  C   -0.169117
     4  C    0.158507
     5  C   -0.170297
     6  C   -0.219074
     7  H    0.227969
     8  H    0.226308
     9  H    0.277770
    10  H    0.269991
    11  H    0.218092
    12  N    0.488270
    13  O   -0.466203
    14  O   -0.456372
    15  C   -0.174068
    16  C   -0.216185
    17  C   -0.170642
    18  C    0.159291
    19  C   -0.170591
    20  C   -0.219471
    21  H    0.226329
    22  H    0.232435
    23  H    0.277775
    24  H    0.274547
    25  H    0.214517
    26  N    0.488030
    27  O   -0.461230
    28  O   -0.458587
 Sum of Mulliken charges =  -0.00000

 Dipole moment (field-independent basis, Debye):
    X=             -4.4430    Y=              3.9601    Z=              2.9358  Tot=              6.6364
 Quadrupole moment (field-independent basis, Debye-Ang):
   XX=           -131.9360   YY=           -102.3347   ZZ=           -104.6494
   XY=            -24.0265   XZ=             12.1277   YZ=             -0.0850

 Normal termination of Gaussian 16 at Thu May  6 02:02:34 2021.
