 Gaussian 16, Revision A.03,
 Gaussian 16:  EM64L-G16RevA.03 25-Dec-2016

 -------------
 #p 6-31g* mp2
 -------------

 ------------------------------------------------------
 Input file generated by CHIRIPA (05-May-2021 14:57:26)
 ------------------------------------------------------
 Symbolic Z-matrix:
 Charge =  0 Multiplicity = 1

                         Standard orientation:
 ---------------------------------------------------------------------
 Center     Atomic      Atomic             Coordinates (Angstroms)
 Number     Number       Type             X           Y           Z
 ---------------------------------------------------------------------
      1          6           0       -2.699136    2.747415    0.019938
      2          6           0       -3.904811    2.065927    0.216008
      3          6           0       -3.965082    0.675893    0.079188
      4          6           0       -2.795257   -0.004105   -0.256078
      5          6           0       -1.578953    0.646411   -0.457875
      6          6           0       -1.542095    2.036735   -0.315786
      7          1           0       -2.661410    3.827340    0.128270
      8          1           0       -4.804960    2.615255    0.476807
      9          1           0       -4.885186    0.123190    0.225289
     10          1           0       -0.698242    0.071458   -0.717096
     11          1           0       -0.604359    2.563354   -0.468652
     12          7           0       -2.846670   -1.475826   -0.403713
     13          8           0       -1.802037   -2.051809   -0.699721
     14          8           0       -3.930628   -2.025509   -0.220624
     15          6           0        1.008732   -1.702200    1.262228
     16          6           0        1.331260   -0.474189    1.849155
     17          6           0        2.314760    0.344997    1.286830
     18          6           0        2.958679   -0.096943    0.132123
     19          6           0        2.659690   -1.315114   -0.476114
     20          6           0        1.672805   -2.118011    0.103508
     21          1           0        0.243409   -2.332237    1.705774
     22          1           0        0.817169   -0.148707    2.749055
     23          1           0        2.584175    1.300383    1.720503
     24          1           0        3.189423   -1.612616   -1.372938
     25          1           0        1.424392   -3.071208   -0.354477
     26          7           0        4.001658    0.761670   -0.472342
     27          8           0        4.554378    0.349566   -1.489842
     28          8           0        4.246677    1.830499    0.082825
 ---------------------------------------------------------------------

 SCF Done:  E(RHF) =  -868.339894207     A.U. after   16 cycles
 E2 =    -0.2601726998D+01 EUMP2 =    -0.87094162120514D+03

 The electronic state is 1-A.
 Alpha  occ. eigenvalues --  -20.61509 -20.61462 -20.60921 -20.60896 -15.86517
 Alpha  occ. eigenvalues --  -15.85961 -11.31596 -11.31222 -11.28171 -11.28065
 Alpha  occ. eigenvalues --  -11.27844 -11.27804 -11.27681 -11.27273 -11.27111
 Alpha  occ. eigenvalues --  -11.27039 -11.26726 -11.26529  -1.60564  -1.59995
 Alpha  occ. eigenvalues --   -1.40124  -1.39549  -1.19761  -1.19364  -1.09209
 Alpha  occ. eigenvalues --   -1.08725  -1.05107  -1.04716  -0.96089  -0.95579
 Alpha  occ. eigenvalues --   -0.86519  -0.86077  -0.82924  -0.82408  -0.78003
 Alpha  occ. eigenvalues --   -0.77512  -0.72766  -0.72166  -0.71898  -0.71333
 Alpha  occ. eigenvalues --   -0.70854  -0.70313  -0.65408  -0.65099  -0.64953
 Alpha  occ. eigenvalues --   -0.64630  -0.62461  -0.62042  -0.55635  -0.55076
 Alpha  occ. eigenvalues --   -0.53560  -0.53358  -0.52797  -0.52740  -0.49513
 Alpha  occ. eigenvalues --   -0.49477  -0.48938  -0.48915  -0.45593  -0.44979
 Alpha  occ. eigenvalues --   -0.37764  -0.37325  -0.36747  -0.36181
 Alpha virt. eigenvalues --    0.04446   0.05024   0.10771   0.11472   0.15882
 Alpha virt. eigenvalues --    0.16720   0.21112   0.21739   0.26954   0.27542
 Alpha virt. eigenvalues --    0.27994   0.28598   0.30741   0.31359   0.32101

 Mulliken charges:
               1
     1  C   -0.170233
     2  C   -0.219598
     3  C   -0.171083
     4  C    0.152661
     5  C   -0.171443
     6  C   -0.222772
     7  H    0.227954
     8  H    0.224452
     9  H    0.275313
    10  H    0.282453
    11  H    0.228356
    12  N    0.488285
    13  O   -0.468851
    14  O   -0.458150
    15  C   -0.167518
    16  C   -0.222978
    17  C   -0.178837
    18  C    0.154316
    19  C   -0.177103
    20  C   -0.212923
    21  H    0.235236
    22  H    0.223056
    23  H    0.272475
    24  H    0.276483
    25  H    0.235106
    26  N    0.487961
    27  O   -0.459121
    28  O   -0.463498
 Sum of Mulliken charges =  -0.00000

 Dipole moment (field-independent basis, Debye):
    X=             -3.6204    Y=              1.9433    Z=              2.6303  Tot=              4.8788
 Quadrupole moment (field-independent basis, Debye-Ang):
   XX=           -123.9840   YY=           -102.1009   ZZ=           -102.8809
   XY=            -24.5286   XZ=              2.3744   YZ=              0.6872

 Normal termination of Gaussian 16 at Thu May  6 05:12:09 2021.
