 Gaussian 16, Revision A.03,
 Gaussian 16:  EM64L-G16RevA.03 25-Dec-2016

 -------------
 #p 6-31g* mp2
 -------------

 ------------------------------------------------------
 Input file generated by CHIRIPA (05-May-2021 14:51:10)
 ------------------------------------------------------
 Symbolic Z-matrix:
 Charge =  0 Multiplicity = 1

                         Standard orientation:
 ---------------------------------------------------------------------
 Center     Atomic      Atomic             Coordinates (Angstroms)
 Number     Number       Type             X           Y           Z
 ---------------------------------------------------------------------
      1          6           0       -3.471482   -0.617875    0.251350
      2          6           0       -2.999490   -1.732768   -0.682579
      3          6           0       -2.871648   -3.082129    0.025005
      4          1           0       -2.767697   -0.528417    1.090176
      5          1           0       -4.441090   -0.898635    0.685434
      6          1           0       -2.031716   -1.449370   -1.115840
      7          1           0       -3.704377   -1.819453   -1.519380
      8          1           0       -3.835350   -3.390858    0.442815
      9          1           0       -2.153186   -3.018671    0.848648
     10          1           0       -2.532974   -3.864720   -0.661078
     11          6           0       -3.604147    0.737170   -0.441455
     12          6           0       -4.076139    1.852063    0.492474
     13          6           0       -4.203981    3.201424   -0.215111
     14          1           0       -2.634539    1.017930   -0.875539
     15          1           0       -4.307932    0.647712   -1.280282
     16          1           0       -3.371252    1.938748    1.329275
     17          1           0       -5.043913    1.568665    0.925735
     18          1           0       -4.922443    3.137966   -1.038753
     19          1           0       -3.240279    3.510153   -0.632920
     20          1           0       -4.542655    3.984016    0.470972
     21          6           0        2.953885   -0.505608   -0.113698
     22          6           0        1.709263   -0.321195    0.755149
     23          6           0        0.549640   -1.220173    0.325142
     24          1           0        2.696045   -0.297986   -1.161247
     25          1           0        3.269116   -1.557407   -0.071948
     26          1           0        1.397286    0.730231    0.712872
     27          1           0        1.970142   -0.529095    1.800776
     28          1           0        0.837278   -2.274845    0.384567
     29          1           0        0.261168   -1.008365   -0.709518
     30          1           0       -0.329772   -1.072093    0.959624
     31          6           0        4.121744    0.386313    0.303804
     32          6           0        5.366366    0.201900   -0.565044
     33          6           0        6.525989    1.100878   -0.135037
     34          1           0        3.806513    1.438112    0.262053
     35          1           0        4.379584    0.178691    1.351352
     36          1           0        5.105487    0.409800   -1.610671
     37          1           0        5.678343   -0.849526   -0.522767
     38          1           0        6.814462    0.889069    0.899624
     39          1           0        6.238351    2.155550   -0.194462
     40          1           0        7.405401    0.952798   -0.769519
 ---------------------------------------------------------------------

 SCF Done:  E(RHF) =  -470.732057159     A.U. after   11 cycles
 E2 =    -0.1584027375D+01 EUMP2 =    -0.47231608453429D+03

 The electronic state is 1-A.
 Alpha  occ. eigenvalues --  -11.21662 -11.21632 -11.21580 -11.21452 -11.21423
 Alpha  occ. eigenvalues --  -11.21391 -11.21355 -11.21290 -11.21137 -11.21095
 Alpha  occ. eigenvalues --  -11.21060 -11.20938  -1.08487  -1.08364  -1.03616
 Alpha  occ. eigenvalues --   -1.03430  -0.96054  -0.95902  -0.87074  -0.86925
 Alpha  occ. eigenvalues --   -0.79679  -0.79507  -0.78296  -0.78187  -0.65162
 Alpha  occ. eigenvalues --   -0.65000  -0.61078  -0.60867  -0.59376  -0.59234
 Alpha  occ. eigenvalues --   -0.57658  -0.57516  -0.55345  -0.55212  -0.52702
 Alpha  occ. eigenvalues --   -0.52608  -0.52481  -0.52320  -0.50151  -0.49724
 Alpha  occ. eigenvalues --   -0.48019  -0.47823  -0.46825  -0.46403  -0.45880
 Alpha  occ. eigenvalues --   -0.45767  -0.45725  -0.45476  -0.43797  -0.43710
 Alpha virt. eigenvalues --    0.20951   0.23051   0.23925   0.24816   0.25716
 Alpha virt. eigenvalues --    0.26362   0.26769   0.27654   0.27972   0.29428
 Alpha virt. eigenvalues --    0.30466   0.30959   0.31548   0.31843   0.32375

 Mulliken charges:
               1
     1  C   -0.300559
     2  C   -0.304346
     3  C   -0.476796
     4  H    0.150185
     5  H    0.149529
     6  H    0.159008
     7  H    0.151197
     8  H    0.154106
     9  H    0.157176
    10  H    0.159552
    11  C   -0.298274
    12  C   -0.299610
    13  C   -0.475629
    14  H    0.149225
    15  H    0.149674
    16  H    0.151686
    17  H    0.151959
    18  H    0.155172
    19  H    0.154897
    20  H    0.160167
    21  C   -0.298856
    22  C   -0.300057
    23  C   -0.481186
    24  H    0.149712
    25  H    0.149776
    26  H    0.151590
    27  H    0.152024
    28  H    0.156457
    29  H    0.156490
    30  H    0.165275
    31  C   -0.298256
    32  C   -0.299667
    33  C   -0.475732
    34  H    0.149526
    35  H    0.149764
    36  H    0.151981
    37  H    0.152017
    38  H    0.155231
    39  H    0.155217
    40  H    0.160372
 Sum of Mulliken charges =  -0.00000

 Dipole moment (field-independent basis, Debye):
    X=              0.0540    Y=             -0.0086    Z=             -0.0030  Tot=              0.0548
 Quadrupole moment (field-independent basis, Debye-Ang):
   XX=            -84.7996   YY=            -85.6945   ZZ=            -84.5156
   XY=             -0.5177   XZ=              0.2089   YZ=             -0.1640

 Normal termination of Gaussian 16 at Thu May  6 00:36:40 2021.
