 Gaussian 16, Revision A.03,
 Gaussian 16:  EM64L-G16RevA.03 25-Dec-2016

 -------------
 #p 6-31g* mp2
 -------------

 ------------------------------------------------------
 Input file generated by CHIRIPA (05-May-2021 14:57:24)
 ------------------------------------------------------
 Symbolic Z-matrix:
 Charge =  0 Multiplicity = 1

                         Standard orientation:
 ---------------------------------------------------------------------
 Center     Atomic      Atomic             Coordinates (Angstroms)
 Number     Number       Type             X           Y           Z
 ---------------------------------------------------------------------
      1          6           0        1.962735   -2.154311    0.466435
      2          6           0        2.347050   -1.308247    1.511901
      3          6           0        3.049560   -0.128487    1.248855
      4          6           0        3.352539    0.175704   -0.077404
      5          6           0        2.983470   -0.646798   -1.140685
      6          6           0        2.281610   -1.821473   -0.854193
      7          1           0        1.417261   -3.068802    0.679882
      8          1           0        2.100770   -1.564197    2.538488
      9          1           0        3.359290    0.544554    2.039109
     10          1           0        3.243323   -0.364928   -2.153821
     11          1           0        1.984425   -2.476646   -1.668119
     12          7           0        4.095911    1.421972   -0.368290
     13          8           0        4.350722    1.667401   -1.545351
     14          8           0        4.409679    2.129770    0.586283
     15          6           0       -4.536479    2.188170    0.038409
     16          6           0       -3.441463    2.029161    0.894082
     17          6           0       -2.710316    0.837540    0.897629
     18          6           0       -3.103719   -0.178978    0.028598
     19          6           0       -4.189942   -0.050847   -0.835690
     20          6           0       -4.906571    1.149491   -0.822230
     21          1           0       -5.098812    3.117236    0.042259
     22          1           0       -3.151763    2.834116    1.563534
     23          1           0       -1.858384    0.687709    1.549688
     24          1           0       -4.454686   -0.871145   -1.491769
     25          1           0       -5.756533    1.270179   -1.487844
     26          7           0       -2.337372   -1.445107    0.023350
     27          8           0       -2.704259   -2.325567   -0.751777
     28          8           0       -1.384331   -1.533065    0.794462
 ---------------------------------------------------------------------

 SCF Done:  E(RHF) =  -868.339867346     A.U. after   16 cycles
 E2 =    -0.2599118262D+01 EUMP2 =    -0.87093898560797D+03

 The electronic state is 1-A.
 Alpha  occ. eigenvalues --  -20.61492 -20.61478 -20.60179 -20.60172 -15.86506
 Alpha  occ. eigenvalues --  -15.85227 -11.31614 -11.30289 -11.28154 -11.28147
 Alpha  occ. eigenvalues --  -11.27839 -11.27109 -11.27091 -11.26892 -11.26873
 Alpha  occ. eigenvalues --  -11.26372 -11.25721 -11.25690  -1.60553  -1.59265
 Alpha  occ. eigenvalues --   -1.40113  -1.38826  -1.19761  -1.18437  -1.09206
 Alpha  occ. eigenvalues --   -1.07829  -1.05124  -1.03818  -0.96088  -0.94723
 Alpha  occ. eigenvalues --   -0.86534  -0.85200  -0.82931  -0.81592  -0.78004
 Alpha  occ. eigenvalues --   -0.76719  -0.72769  -0.71851  -0.71450  -0.70866
 Alpha  occ. eigenvalues --   -0.70592  -0.69434  -0.65418  -0.65124  -0.64070
 Alpha  occ. eigenvalues --   -0.63798  -0.62476  -0.61195  -0.55634  -0.54170
 Alpha  occ. eigenvalues --   -0.53467  -0.53213  -0.52136  -0.51898  -0.49520
 Alpha  occ. eigenvalues --   -0.49483  -0.48222  -0.48176  -0.45572  -0.44302
 Alpha  occ. eigenvalues --   -0.37726  -0.36715  -0.36227  -0.35453
 Alpha virt. eigenvalues --    0.04484   0.05873   0.10945   0.12238   0.16038
 Alpha virt. eigenvalues --    0.17492   0.21110   0.22481   0.27032   0.27960
 Alpha virt. eigenvalues --    0.28247   0.29450   0.30700   0.32124   0.32166

 Mulliken charges:
               1
     1  C   -0.150345
     2  C   -0.219387
     3  C   -0.174838
     4  C    0.155519
     5  C   -0.172982
     6  C   -0.222743
     7  H    0.235981
     8  H    0.221491
     9  H    0.270313
    10  H    0.271770
    11  H    0.223966
    12  N    0.488242
    13  O   -0.463503
    14  O   -0.464823
    15  C   -0.169730
    16  C   -0.218177
    17  C   -0.169724
    18  C    0.157842
    19  C   -0.170706
    20  C   -0.218478
    21  H    0.227764
    22  H    0.225886
    23  H    0.274920
    24  H    0.275362
    25  H    0.224818
    26  N    0.490123
    27  O   -0.461632
    28  O   -0.466932
 Sum of Mulliken charges =  -0.00000

 Dipole moment (field-independent basis, Debye):
    X=             -5.7400    Y=             -0.1122    Z=              1.0787  Tot=              5.8415
 Quadrupole moment (field-independent basis, Debye-Ang):
   XX=           -105.8675   YY=           -107.7407   ZZ=            -98.3021
   XY=            -28.5222   XZ=              6.3091   YZ=              3.2825

 Normal termination of Gaussian 16 at Fri May  7 00:19:55 2021.
