 Gaussian 16, Revision A.03,
 Gaussian 16:  EM64L-G16RevA.03 25-Dec-2016

 -------------
 #p 6-31g* mp2
 -------------

 ------------------------------------------------------
 Input file generated by CHIRIPA (05-May-2021 14:51:13)
 ------------------------------------------------------
 Symbolic Z-matrix:
 Charge =  0 Multiplicity = 1

                         Standard orientation:
 ---------------------------------------------------------------------
 Center     Atomic      Atomic             Coordinates (Angstroms)
 Number     Number       Type             X           Y           Z
 ---------------------------------------------------------------------
      1          6           0        2.469573   -0.885026   -0.453545
      2          6           0        3.570103    0.053897    0.041675
      3          6           0        4.506287    0.509792   -1.077929
      4          1           0        2.930694   -1.762170   -0.927814
      5          1           0        1.887850   -0.376811   -1.235024
      6          1           0        4.148710   -0.455437    0.822962
      7          1           0        3.106309    0.928816    0.514991
      8          1           0        3.947386    1.041272   -1.854949
      9          1           0        4.995710   -0.350846   -1.545229
     10          1           0        5.285369    1.180162   -0.701770
     11          6           0        1.525620   -1.349417    0.654166
     12          6           0        0.425090   -2.288340    0.158946
     13          6           0       -0.511094   -2.744235    1.278550
     14          1           0        2.107344   -1.857633    1.435645
     15          1           0        1.064499   -0.472274    1.128435
     16          1           0        0.888884   -3.163259   -0.314370
     17          1           0       -0.153517   -1.779007   -0.622341
     18          1           0       -1.000516   -1.883598    1.745850
     19          1           0        0.047807   -3.275715    2.055570
     20          1           0       -1.290176   -3.414605    0.902391
     21          6           0       -1.436806    1.607806   -0.268456
     22          6           0       -1.004718    2.465722    0.921193
     23          6           0        0.117930    3.442179    0.569071
     24          1           0       -0.568354    1.050009   -0.644754
     25          1           0       -1.764238    2.265081   -1.085873
     26          1           0       -0.679503    1.806990    1.736622
     27          1           0       -1.874339    3.021396    1.294824
     28          1           0       -0.199300    4.122841   -0.227587
     29          1           0        1.002325    2.901535    0.216720
     30          1           0        0.411274    4.045415    1.433892
     31          6           0       -2.558388    0.626638    0.067834
     32          6           0       -2.990476   -0.231279   -1.121814
     33          6           0       -4.113124   -1.207735   -0.769692
     34          1           0       -2.230956   -0.030637    0.885253
     35          1           0       -3.426839    1.184434    0.444134
     36          1           0       -2.120855   -0.786952   -1.495446
     37          1           0       -3.315690    0.427454   -1.937243
     38          1           0       -4.997519   -0.667092   -0.417341
     39          1           0       -3.795893   -1.888396    0.026967
     40          1           0       -4.406468   -1.810972   -1.634512
 ---------------------------------------------------------------------

 SCF Done:  E(RHF) =  -470.732328821     A.U. after   11 cycles
 E2 =    -0.1586495336D+01 EUMP2 =    -0.47231882415751D+03

 The electronic state is 1-A.
 Alpha  occ. eigenvalues --  -11.21676 -11.21664 -11.21659 -11.21608 -11.21481
 Alpha  occ. eigenvalues --  -11.21446 -11.21421 -11.21372 -11.21155 -11.21143
 Alpha  occ. eigenvalues --  -11.21104 -11.21058  -1.08581  -1.08410  -1.03641
 Alpha  occ. eigenvalues --   -1.03533  -0.96054  -0.96017  -0.87078  -0.87027
 Alpha  occ. eigenvalues --   -0.79724  -0.79593  -0.78408  -0.78208  -0.65771
 Alpha  occ. eigenvalues --   -0.64568  -0.61312  -0.60663  -0.59412  -0.59386
 Alpha  occ. eigenvalues --   -0.57687  -0.57614  -0.55348  -0.55295  -0.52743
 Alpha  occ. eigenvalues --   -0.52711  -0.52503  -0.52424  -0.50132  -0.49869
 Alpha  occ. eigenvalues --   -0.48093  -0.47864  -0.46985  -0.46530  -0.46156
 Alpha  occ. eigenvalues --   -0.45971  -0.45550  -0.45257  -0.43849  -0.43822
 Alpha virt. eigenvalues --    0.17992   0.21027   0.23487   0.24849   0.25094
 Alpha virt. eigenvalues --    0.25626   0.26917   0.27870   0.29300   0.29739
 Alpha virt. eigenvalues --    0.30990   0.31175   0.31514   0.31934   0.32201

 Mulliken charges:
               1
     1  C   -0.300352
     2  C   -0.302804
     3  C   -0.475747
     4  H    0.150328
     5  H    0.150437
     6  H    0.152388
     7  H    0.154346
     8  H    0.155439
     9  H    0.155327
    10  H    0.160646
    11  C   -0.301717
    12  C   -0.307383
    13  C   -0.480028
    14  H    0.150338
    15  H    0.152522
    16  H    0.152765
    17  H    0.158800
    18  H    0.157822
    19  H    0.155913
    20  H    0.161289
    21  C   -0.303203
    22  C   -0.300941
    23  C   -0.478727
    24  H    0.153356
    25  H    0.150054
    26  H    0.152173
    27  H    0.152704
    28  H    0.155717
    29  H    0.157054
    30  H    0.160782
    31  C   -0.304415
    32  C   -0.303979
    33  C   -0.477690
    34  H    0.155654
    35  H    0.150245
    36  H    0.155833
    37  H    0.152140
    38  H    0.155128
    39  H    0.157733
    40  H    0.160055
 Sum of Mulliken charges =  -0.00000

 Dipole moment (field-independent basis, Debye):
    X=              0.0087    Y=             -0.0135    Z=              0.0054  Tot=              0.0169
 Quadrupole moment (field-independent basis, Debye-Ang):
   XX=            -85.0937   YY=            -84.3067   ZZ=            -85.1850
   XY=             -1.9221   XZ=              0.8610   YZ=              0.0398

 Normal termination of Gaussian 16 at Thu May  6 05:35:22 2021.
