 Gaussian 16, Revision A.03,
 Gaussian 16:  EM64L-G16RevA.03 25-Dec-2016

 -------------
 #p 6-31g* mp2
 -------------

 ------------------------------------------------------
 Input file generated by CHIRIPA (05-May-2021 14:57:23)
 ------------------------------------------------------
 Symbolic Z-matrix:
 Charge =  0 Multiplicity = 1

                         Standard orientation:
 ---------------------------------------------------------------------
 Center     Atomic      Atomic             Coordinates (Angstroms)
 Number     Number       Type             X           Y           Z
 ---------------------------------------------------------------------
      1          6           0        3.405794    1.631491   -1.564174
      2          6           0        3.845010    0.310556   -1.701075
      3          6           0        3.510789   -0.651659   -0.743481
      4          6           0        2.732330   -0.256439    0.343300
      5          6           0        2.279528    1.051701    0.507710
      6          6           0        2.625831    1.997203   -0.462161
      7          1           0        3.670118    2.372471   -2.312825
      8          1           0        4.450866    0.023686   -2.555879
      9          1           0        3.837403   -1.681288   -0.824749
     10          1           0        1.676908    1.307600    1.370718
     11          1           0        2.283324    3.022324   -0.353251
     12          7           0        2.372110   -1.266246    1.363560
     13          8           0        1.685166   -0.892672    2.311815
     14          8           0        2.783535   -2.412186    1.195667
     15          6           0       -2.470115    2.393481    0.802874
     16          6           0       -3.725255    1.778574    0.857981
     17          6           0       -3.914992    0.502495    0.319309
     18          6           0       -2.822788   -0.132681   -0.269700
     19          6           0       -1.560046    0.453685   -0.340059
     20          6           0       -1.393416    1.730244    0.205083
     21          1           0       -2.331698    3.384958    1.223840
     22          1           0       -4.563234    2.291285    1.321624
     23          1           0       -4.875901    0.003266    0.348335
     24          1           0       -0.743675   -0.082382   -0.808659
     25          1           0       -0.417529    2.205358    0.160856
     26          7           0       -3.011424   -1.483862   -0.843393
     27          8           0       -2.033177   -2.022370   -1.356893
     28          8           0       -4.133950   -1.978827   -0.768691
 ---------------------------------------------------------------------

 SCF Done:  E(RHF) =  -868.336257189     A.U. after   16 cycles
 E2 =    -0.2602046682D+01 EUMP2 =    -0.87093830387119D+03

 The electronic state is 1-A.
 Alpha  occ. eigenvalues --  -20.61100 -20.61076 -20.60574 -20.60567 -15.86158
 Alpha  occ. eigenvalues --  -15.85632 -11.31793 -11.31072 -11.28463 -11.28310
 Alpha  occ. eigenvalues --  -11.28132 -11.27687 -11.27669 -11.27535 -11.27489
 Alpha  occ. eigenvalues --  -11.27340 -11.26759 -11.26698  -1.60161  -1.59643
 Alpha  occ. eigenvalues --   -1.39707  -1.39197  -1.19993  -1.19272  -1.09312
 Alpha  occ. eigenvalues --   -1.08666  -1.05453  -1.04694  -0.96108  -0.95481
 Alpha  occ. eigenvalues --   -0.86799  -0.86118  -0.82956  -0.82318  -0.77977
 Alpha  occ. eigenvalues --   -0.77333  -0.72366  -0.71855  -0.71496  -0.71056
 Alpha  occ. eigenvalues --   -0.70960  -0.70409  -0.65648  -0.65421  -0.64941
 Alpha  occ. eigenvalues --   -0.64775  -0.62813  -0.62001  -0.55871  -0.55248
 Alpha  occ. eigenvalues --   -0.53726  -0.53523  -0.52990  -0.52801  -0.49146
 Alpha  occ. eigenvalues --   -0.49105  -0.48619  -0.48600  -0.45052  -0.44585
 Alpha  occ. eigenvalues --   -0.37956  -0.37270  -0.37054  -0.36260
 Alpha virt. eigenvalues --    0.04546   0.05211   0.10564   0.11319   0.15845
 Alpha virt. eigenvalues --    0.16638   0.19847   0.21981   0.25465   0.27636
 Alpha virt. eigenvalues --    0.28010   0.28705   0.29928   0.31813   0.31946

 Mulliken charges:
               1
     1  C   -0.170248
     2  C   -0.217678
     3  C   -0.168239
     4  C    0.157426
     5  C   -0.179062
     6  C   -0.222708
     7  H    0.228161
     8  H    0.227643
     9  H    0.280659
    10  H    0.275160
    11  H    0.219794
    12  N    0.488577
    13  O   -0.460074
    14  O   -0.454509
    15  C   -0.170489
    16  C   -0.218141
    17  C   -0.169464
    18  C    0.160103
    19  C   -0.168361
    20  C   -0.219439
    21  H    0.223175
    22  H    0.223328
    23  H    0.276221
    24  H    0.275283
    25  H    0.214142
    26  N    0.488597
    27  O   -0.459517
    28  O   -0.460339
 Sum of Mulliken charges =  -0.00000

 Dipole moment (field-independent basis, Debye):
    X=              2.1169    Y=              8.0046    Z=             -1.6352  Tot=              8.4397
 Quadrupole moment (field-independent basis, Debye-Ang):
   XX=            -95.0990   YY=           -106.7042   ZZ=           -107.8151
   XY=             -6.5623   XZ=            -18.8729   YZ=              2.5851

 Normal termination of Gaussian 16 at Thu May  6 11:18:09 2021.
