 Gaussian 16, Revision A.03,
 Gaussian 16:  EM64L-G16RevA.03 25-Dec-2016

 -------------
 #p 6-31g* mp2
 -------------

 ------------------------------------------------------
 Input file generated by CHIRIPA (05-May-2021 14:51:13)
 ------------------------------------------------------
 Symbolic Z-matrix:
 Charge =  0 Multiplicity = 1

                         Standard orientation:
 ---------------------------------------------------------------------
 Center     Atomic      Atomic             Coordinates (Angstroms)
 Number     Number       Type             X           Y           Z
 ---------------------------------------------------------------------
      1          6           0       -4.904588   -0.671671   -0.048512
      2          6           0       -6.208876    0.098285    0.161223
      3          6           0       -7.443441   -0.801399    0.096319
      4          1           0       -4.938798   -1.180070   -1.021808
      5          1           0       -4.825601   -1.459716    0.713158
      6          1           0       -6.284717    0.885533   -0.599766
      7          1           0       -6.171478    0.605066    1.134049
      8          1           0       -7.394553   -1.578688    0.865755
      9          1           0       -7.508435   -1.296628   -0.877911
     10          1           0       -8.364689   -0.230522    0.248834
     11          6           0       -3.661498    0.214104    0.013585
     12          6           0       -2.357211   -0.555851   -0.196150
     13          6           0       -1.122645    0.343832   -0.131246
     14          1           0       -3.740485    1.002149   -0.748085
     15          1           0       -3.627288    0.722504    0.986881
     16          1           0       -2.394608   -1.062632   -1.168976
     17          1           0       -2.281370   -1.343099    0.564839
     18          1           0       -1.057651    0.839061    0.842984
     19          1           0       -1.171533    1.121122   -0.900682
     20          1           0       -0.201397   -0.227045   -0.283761
     21          6           0        3.758140    0.644842   -0.349694
     22          6           0        3.131373    1.734979    0.520219
     23          6           0        2.083185    2.558836   -0.228349
     24          1           0        4.216984    1.108608   -1.233621
     25          1           0        2.965322   -0.019139   -0.721128
     26          1           0        3.925292    2.395894    0.891029
     27          1           0        2.674134    1.268582    1.402275
     28          1           0        1.271111    1.916833   -0.584676
     29          1           0        2.529378    3.050550   -1.098827
     30          1           0        1.648038    3.332280    0.412192
     31          6           0        4.807945   -0.187276    0.384621
     32          6           0        5.434713   -1.277412   -0.485292
     33          6           0        6.482901   -2.101270    0.263276
     34          1           0        5.600764    0.476706    0.756055
     35          1           0        4.349102   -0.651041    1.268549
     36          1           0        5.891952   -0.811016   -1.367348
     37          1           0        4.640794   -1.938327   -0.856101
     38          1           0        6.036709   -2.592983    1.133754
     39          1           0        7.294975   -1.459266    0.619602
     40          1           0        6.918048   -2.874714   -0.377265
 ---------------------------------------------------------------------

 SCF Done:  E(RHF) =  -470.733089376     A.U. after   11 cycles
 E2 =    -0.1582656645D+01 EUMP2 =    -0.47231574602145D+03

 The electronic state is 1-A.
 Alpha  occ. eigenvalues --  -11.21645 -11.21619 -11.21577 -11.21503 -11.21434
 Alpha  occ. eigenvalues --  -11.21374 -11.21361 -11.21301 -11.21151 -11.21085
 Alpha  occ. eigenvalues --  -11.21052 -11.20860  -1.08464  -1.08373  -1.03579
 Alpha  occ. eigenvalues --   -1.03448  -0.96054  -0.95878  -0.87097  -0.86875
 Alpha  occ. eigenvalues --   -0.79685  -0.79479  -0.78276  -0.78185  -0.65092
 Alpha  occ. eigenvalues --   -0.65008  -0.60970  -0.60873  -0.59406  -0.59256
 Alpha  occ. eigenvalues --   -0.57633  -0.57519  -0.55333  -0.55199  -0.52773
 Alpha  occ. eigenvalues --   -0.52613  -0.52465  -0.52250  -0.50000  -0.49790
 Alpha  occ. eigenvalues --   -0.47963  -0.47812  -0.46689  -0.46524  -0.45821
 Alpha  occ. eigenvalues --   -0.45746  -0.45714  -0.45641  -0.43793  -0.43715
 Alpha virt. eigenvalues --    0.21490   0.22954   0.23714   0.24821   0.26155
 Alpha virt. eigenvalues --    0.26585   0.27011   0.27361   0.27825   0.29048
 Alpha virt. eigenvalues --    0.30556   0.30901   0.31437   0.31862   0.32058

 Mulliken charges:
               1
     1  C   -0.298339
     2  C   -0.299657
     3  C   -0.475726
     4  H    0.149711
     5  H    0.149538
     6  H    0.152028
     7  H    0.151989
     8  H    0.155187
     9  H    0.155210
    10  H    0.160338
    11  C   -0.298561
    12  C   -0.300508
    13  C   -0.478049
    14  H    0.149836
    15  H    0.149769
    16  H    0.152120
    17  H    0.151899
    18  H    0.156943
    19  H    0.156337
    20  H    0.160064
    21  C   -0.299212
    22  C   -0.299011
    23  C   -0.484252
    24  H    0.149614
    25  H    0.149404
    26  H    0.151307
    27  H    0.151631
    28  H    0.168267
    29  H    0.153570
    30  H    0.158960
    31  C   -0.298220
    32  C   -0.299582
    33  C   -0.475667
    34  H    0.149542
    35  H    0.149501
    36  H    0.151911
    37  H    0.151692
    38  H    0.155102
    39  H    0.155171
    40  H    0.160142
 Sum of Mulliken charges =  -0.00000

 Dipole moment (field-independent basis, Debye):
    X=             -0.0600    Y=             -0.0067    Z=             -0.0046  Tot=              0.0605
 Quadrupole moment (field-independent basis, Debye-Ang):
   XX=            -85.9597   YY=            -85.1893   ZZ=            -83.8322
   XY=              0.4092   XZ=             -0.4917   YZ=             -0.1105

 Normal termination of Gaussian 16 at Wed May  5 18:20:45 2021.
