 Gaussian 16, Revision A.03,
 Gaussian 16:  EM64L-G16RevA.03 25-Dec-2016

 -------------
 #p 6-31g* mp2
 -------------

 ------------------------------------------------------
 Input file generated by CHIRIPA (05-May-2021 14:57:21)
 ------------------------------------------------------
 Symbolic Z-matrix:
 Charge =  0 Multiplicity = 1

                         Standard orientation:
 ---------------------------------------------------------------------
 Center     Atomic      Atomic             Coordinates (Angstroms)
 Number     Number       Type             X           Y           Z
 ---------------------------------------------------------------------
      1          6           0       -5.516149   -1.863128   -0.448662
      2          6           0       -6.036402   -0.702818    0.134038
      3          6           0       -5.229145    0.424189    0.314977
      4          6           0       -3.900159    0.355761   -0.100237
      5          6           0       -3.352594   -0.785625   -0.683934
      6          6           0       -4.178264   -1.900762   -0.855071
      7          1           0       -6.150397   -2.734003   -0.585412
      8          1           0       -7.075053   -0.670730    0.450613
      9          1           0       -5.606123    1.335397    0.763314
     10          1           0       -2.313336   -0.787466   -0.989476
     11          1           0       -3.771525   -2.800518   -1.307894
     12          7           0       -3.035806    1.542589    0.086126
     13          8           0       -1.868243    1.456853   -0.288150
     14          8           0       -3.542255    2.536090    0.602946
     15          6           0        1.709218   -0.561201    1.002932
     16          6           0        2.693499   -1.542542    1.160046
     17          6           0        3.989738   -1.331156    0.680849
     18          6           0        4.268199   -0.121385    0.046652
     19          6           0        3.309249    0.875709   -0.125129
     20          6           0        2.019687    0.642669    0.361976
     21          1           0        0.704863   -0.733822    1.378255
     22          1           0        2.455239   -2.478438    1.657414
     23          1           0        4.770894   -2.073793    0.789030
     24          1           0        3.576841    1.798596   -0.625223
     25          1           0        1.257291    1.406581    0.238548
     26          7           0        5.636935    0.113861   -0.464838
     27          8           0        5.856863    1.188164   -1.019943
     28          8           0        6.463904   -0.780510   -0.300954
 ---------------------------------------------------------------------

 SCF Done:  E(RHF) =  -868.339805080     A.U. after   16 cycles
 E2 =    -0.2598529706D+01 EUMP2 =    -0.87093833478623D+03

 The electronic state is 1-A.
 Alpha  occ. eigenvalues --  -20.61848 -20.61781 -20.60293 -20.60281 -15.86853
 Alpha  occ. eigenvalues --  -15.85335 -11.32007 -11.30591 -11.28568 -11.28519
 Alpha  occ. eigenvalues --  -11.28226 -11.27513 -11.27483 -11.27174 -11.27039
 Alpha  occ. eigenvalues --  -11.26804 -11.26207 -11.25894  -1.60878  -1.59367
 Alpha  occ. eigenvalues --   -1.40440  -1.38924  -1.20153  -1.18728  -1.09583
 Alpha  occ. eigenvalues --   -1.08140  -1.05523  -1.04092  -0.96455  -0.95002
 Alpha  occ. eigenvalues --   -0.86929  -0.85485  -0.83296  -0.81825  -0.78372
 Alpha  occ. eigenvalues --   -0.76890  -0.73084  -0.72188  -0.71555  -0.71250
 Alpha  occ. eigenvalues --   -0.70689  -0.69833  -0.65808  -0.65515  -0.64365
 Alpha  occ. eigenvalues --   -0.64040  -0.62872  -0.61415  -0.56016  -0.54594
 Alpha  occ. eigenvalues --   -0.53865  -0.53606  -0.52460  -0.52143  -0.49845
 Alpha  occ. eigenvalues --   -0.49801  -0.48319  -0.48300  -0.45890  -0.44354
 Alpha  occ. eigenvalues --   -0.38114  -0.37120  -0.36718  -0.35699
 Alpha virt. eigenvalues --    0.04132   0.05601   0.10532   0.11949   0.15666
 Alpha virt. eigenvalues --    0.17131   0.20608   0.22160   0.26530   0.27276
 Alpha virt. eigenvalues --    0.28267   0.28859   0.30499   0.31465   0.32292

 Mulliken charges:
               1
     1  C   -0.169999
     2  C   -0.218353
     3  C   -0.170321
     4  C    0.157762
     5  C   -0.173338
     6  C   -0.218471
     7  H    0.228343
     8  H    0.226147
     9  H    0.277212
    10  H    0.273632
    11  H    0.225446
    12  N    0.491157
    13  O   -0.472437
    14  O   -0.454759
    15  C   -0.174509
    16  C   -0.219107
    17  C   -0.173127
    18  C    0.158537
    19  C   -0.173113
    20  C   -0.224317
    21  H    0.224808
    22  H    0.218855
    23  H    0.272702
    24  H    0.275877
    25  H    0.246912
    26  N    0.488026
    27  O   -0.460634
    28  O   -0.462931
 Sum of Mulliken charges =  -0.00000

 Dipole moment (field-independent basis, Debye):
    X=             -8.3740    Y=             -4.8812    Z=              1.1255  Tot=              9.7579
 Quadrupole moment (field-independent basis, Debye-Ang):
   XX=           -119.3367   YY=           -102.7387   ZZ=           -104.6825
   XY=              9.3962   XZ=              8.9709   YZ=             -0.3969

 Normal termination of Gaussian 16 at Wed May  5 17:43:14 2021.
