 Gaussian 16, Revision A.03,
 Gaussian 16:  EM64L-G16RevA.03 25-Dec-2016

 -------------
 #p 6-31g* mp2
 -------------

 ------------------------------------------------------
 Input file generated by CHIRIPA (05-May-2021 14:55:23)
 ------------------------------------------------------
 Symbolic Z-matrix:
 Charge =  0 Multiplicity = 1

                         Standard orientation:
 ---------------------------------------------------------------------
 Center     Atomic      Atomic             Coordinates (Angstroms)
 Number     Number       Type             X           Y           Z
 ---------------------------------------------------------------------
      1          6           0       -0.849103    1.363982   -0.394647
      2          6           0       -2.117197    1.911825   -0.614481
      3          6           0       -3.266625    1.137069   -0.432502
      4          6           0       -3.110464   -0.187904   -0.028336
      5          6           0       -1.860809   -0.762453    0.198699
      6          6           0       -0.725175    0.030942    0.010527
      7          1           0        0.038443    1.973071   -0.538418
      8          1           0       -2.216464    2.946789   -0.929189
      9          1           0       -4.260497    1.535850   -0.595624
     10          1           0       -1.793710   -1.797243    0.511946
     11          1           0        0.258369   -0.397177    0.181994
     12          7           0       -4.320011   -1.017969    0.167595
     13          8           0       -4.155538   -2.182665    0.524063
     14          8           0       -5.409623   -0.488161   -0.039012
     15          6           0        4.021640   -0.473751   -0.375688
     16          6           0        4.338556   -1.776777    0.358939
     17          6           0        4.928889   -2.845680   -0.561249
     18          1           0        3.319613   -0.683219   -1.194360
     19          1           0        4.940147   -0.091025   -0.841801
     20          1           0        3.420010   -2.156206    0.824688
     21          1           0        5.039763   -1.564151    1.176078
     22          1           0        5.859618   -2.491276   -1.015942
     23          1           0        4.230662   -3.086696   -1.369328
     24          1           0        5.147913   -3.768767   -0.015541
     25          6           0        3.430818    0.604565    0.530894
     26          6           0        3.113902    1.907590   -0.203733
     27          6           0        2.523569    2.976493    0.716455
     28          1           0        2.512312    0.221838    0.997007
     29          1           0        4.132846    0.814033    1.349566
     30          1           0        2.412696    1.694965   -1.020872
     31          1           0        4.032449    2.287020   -0.669482
     32          1           0        3.221796    3.217510    1.524534
     33          1           0        1.592841    2.622090    1.171148
     34          1           0        2.304545    3.899581    0.170747
 ---------------------------------------------------------------------

 SCF Done:  E(RHF) =  -669.534599514     A.U. after   15 cycles
 E2 =    -0.2093077199D+01 EUMP2 =    -0.67162767671241D+03

 The electronic state is 1-A.
 Alpha  occ. eigenvalues --  -20.60740 -20.60734 -15.85793 -11.31155 -11.27728
 Alpha  occ. eigenvalues --  -11.27721 -11.27387 -11.26724 -11.26713 -11.22951
 Alpha  occ. eigenvalues --  -11.22617 -11.22445 -11.22366 -11.22360 -11.21716
 Alpha  occ. eigenvalues --   -1.59815  -1.39369  -1.19325  -1.09564  -1.08713
 Alpha  occ. eigenvalues --   -1.04733  -1.04601  -0.97043  -0.95551  -0.88043
 Alpha  occ. eigenvalues --   -0.86128  -0.82392  -0.80675  -0.79320  -0.77442
 Alpha  occ. eigenvalues --   -0.72012  -0.71139  -0.70520  -0.66309  -0.64969
 Alpha  occ. eigenvalues --   -0.64659  -0.62137  -0.61937  -0.60416  -0.58621
 Alpha  occ. eigenvalues --   -0.56570  -0.54949  -0.53703  -0.53429  -0.53058
 Alpha  occ. eigenvalues --   -0.52815  -0.50967  -0.48953  -0.48770  -0.48766
 Alpha  occ. eigenvalues --   -0.47750  -0.46839  -0.46780  -0.44847  -0.44776
 Alpha  occ. eigenvalues --   -0.37284  -0.36337
 Alpha virt. eigenvalues --    0.05070   0.11258   0.16491   0.18179   0.22409
 Alpha virt. eigenvalues --    0.23858   0.24802   0.25924   0.26674   0.28632
 Alpha virt. eigenvalues --    0.29720   0.30522   0.30676   0.31126   0.31810

 Mulliken charges:
               1
     1  C   -0.179130
     2  C   -0.220772
     3  C   -0.170660
     4  C    0.158546
     5  C   -0.171234
     6  C   -0.227597
     7  H    0.239907
     8  H    0.223863
     9  H    0.275435
    10  H    0.275696
    11  H    0.229535
    12  N    0.487960
    13  O   -0.460562
    14  O   -0.460485
    15  C   -0.300544
    16  C   -0.299761
    17  C   -0.476405
    18  H    0.148679
    19  H    0.153778
    20  H    0.149090
    21  H    0.154888
    22  H    0.156980
    23  H    0.156090
    24  H    0.163461
    25  C   -0.302230
    26  C   -0.306880
    27  C   -0.484870
    28  H    0.144538
    29  H    0.156603
    30  H    0.145872
    31  H    0.160139
    32  H    0.164194
    33  H    0.154302
    34  H    0.161576
 Sum of Mulliken charges =  -0.00000

 Dipole moment (field-independent basis, Debye):
    X=              4.5616    Y=              2.9365    Z=             -0.6634  Tot=              5.4654
 Quadrupole moment (field-independent basis, Debye-Ang):
   XX=           -117.9782   YY=            -93.3680   ZZ=            -95.4201
   XY=            -11.8091   XZ=              3.4608   YZ=             -1.4165

 Normal termination of Gaussian 16 at Thu May  6 20:49:20 2021.
