 Gaussian 16, Revision A.03,
 Gaussian 16:  EM64L-G16RevA.03 25-Dec-2016

 -------------
 #p 6-31g* mp2
 -------------

 ------------------------------------------------------
 Input file generated by CHIRIPA (05-May-2021 14:51:10)
 ------------------------------------------------------
 Symbolic Z-matrix:
 Charge =  0 Multiplicity = 1

                         Standard orientation:
 ---------------------------------------------------------------------
 Center     Atomic      Atomic             Coordinates (Angstroms)
 Number     Number       Type             X           Y           Z
 ---------------------------------------------------------------------
      1          6           0       -3.249505   -0.207432    0.013403
      2          6           0       -4.519828   -0.933908   -0.429877
      3          6           0       -4.419131   -2.451260   -0.270824
      4          1           0       -2.397542   -0.582935   -0.569780
      5          1           0       -3.042115   -0.453958    1.063931
      6          1           0       -4.725526   -0.684990   -1.478849
      7          1           0       -5.368896   -0.556495    0.154296
      8          1           0       -4.237548   -2.717729    0.775418
      9          1           0       -3.590522   -2.846954   -0.867007
     10          1           0       -5.338027   -2.950611   -0.593530
     11          6           0       -3.334795    1.310146   -0.139599
     12          6           0       -2.064472    2.036623    0.303681
     13          6           0       -2.165168    3.553975    0.144628
     14          1           0       -3.542184    1.556673   -1.190127
     15          1           0       -4.186757    1.685650    0.443584
     16          1           0       -1.215403    1.659210   -0.280492
     17          1           0       -1.858774    1.787704    1.352653
     18          1           0       -2.993778    3.949668    0.740811
     19          1           0       -2.346752    3.820444   -0.901614
     20          1           0       -1.246272    4.053325    0.467334
     21          6           0        2.536424   -0.491230    0.156342
     22          6           0        1.839035   -1.839435    0.340666
     23          6           0        0.327500   -1.702666    0.526008
     24          1           0        2.328472    0.144184    1.028093
     25          1           0        2.104214    0.021290   -0.714242
     26          1           0        2.273382   -2.349863    1.209816
     27          1           0        2.048829   -2.471783   -0.531537
     28          1           0       -0.124864   -1.216140   -0.344199
     29          1           0        0.100964   -1.093528    1.407049
     30          1           0       -0.150945   -2.678395    0.656020
     31          6           0        4.047876   -0.611485   -0.030146
     32          6           0        4.745265    0.736720   -0.214470
     33          6           0        6.256800    0.599952   -0.399812
     34          1           0        4.480085   -1.124004    0.840438
     35          1           0        4.255828   -1.246899   -0.901897
     36          1           0        4.535471    1.369068    0.657733
     37          1           0        4.310918    1.247148   -1.083620
     38          1           0        6.483335   -0.009187   -1.280852
     39          1           0        6.709164    0.113425    0.470395
     40          1           0        6.735245    1.575681   -0.529824
 ---------------------------------------------------------------------

 SCF Done:  E(RHF) =  -470.732910175     A.U. after   11 cycles
 E2 =    -0.1583234756D+01 EUMP2 =    -0.47231614493123D+03

 The electronic state is 1-A.
 Alpha  occ. eigenvalues --  -11.21601 -11.21570 -11.21550 -11.21533 -11.21400
 Alpha  occ. eigenvalues --  -11.21341 -11.21326 -11.21235 -11.21071 -11.21036
 Alpha  occ. eigenvalues --  -11.21018 -11.21005  -1.08426  -1.08358  -1.03515
 Alpha  occ. eigenvalues --   -1.03472  -0.95985  -0.95902  -0.87006  -0.86917
 Alpha  occ. eigenvalues --   -0.79615  -0.79522  -0.78300  -0.78082  -0.65095
 Alpha  occ. eigenvalues --   -0.64967  -0.60924  -0.60865  -0.59364  -0.59254
 Alpha  occ. eigenvalues --   -0.57658  -0.57459  -0.55341  -0.55137  -0.52700
 Alpha  occ. eigenvalues --   -0.52625  -0.52465  -0.52240  -0.49994  -0.49800
 Alpha  occ. eigenvalues --   -0.47953  -0.47850  -0.46684  -0.46560  -0.45961
 Alpha  occ. eigenvalues --   -0.45751  -0.45602  -0.45297  -0.43764  -0.43718
 Alpha virt. eigenvalues --    0.21477   0.23094   0.24107   0.24238   0.25299
 Alpha virt. eigenvalues --    0.26060   0.27199   0.27605   0.27845   0.29880
 Alpha virt. eigenvalues --    0.31010   0.31362   0.31727   0.31789   0.32162

 Mulliken charges:
               1
     1  C   -0.302335
     2  C   -0.299319
     3  C   -0.475616
     4  H    0.155909
     5  H    0.150078
     6  H    0.151255
     7  H    0.151478
     8  H    0.155161
     9  H    0.155170
    10  H    0.159855
    11  C   -0.298281
    12  C   -0.300176
    13  C   -0.475714
    14  H    0.148785
    15  H    0.149214
    16  H    0.152904
    17  H    0.151603
    18  H    0.155047
    19  H    0.154921
    20  H    0.160152
    21  C   -0.298205
    22  C   -0.300519
    23  C   -0.476741
    24  H    0.149981
    25  H    0.148864
    26  H    0.151671
    27  H    0.151463
    28  H    0.157026
    29  H    0.156206
    30  H    0.160176
    31  C   -0.298216
    32  C   -0.299621
    33  C   -0.475699
    34  H    0.149590
    35  H    0.149559
    36  H    0.151967
    37  H    0.151819
    38  H    0.155150
    39  H    0.155194
    40  H    0.160244
 Sum of Mulliken charges =  -0.00000

 Dipole moment (field-independent basis, Debye):
    X=              0.0103    Y=             -0.0123    Z=              0.0120  Tot=              0.0200
 Quadrupole moment (field-independent basis, Debye-Ang):
   XX=            -86.0764   YY=            -86.1107   ZZ=            -82.8437
   XY=             -0.1370   XZ=             -0.0797   YZ=              0.2147

 Normal termination of Gaussian 16 at Thu May  6 03:47:53 2021.
