 Gaussian 16, Revision A.03,
 Gaussian 16:  EM64L-G16RevA.03 25-Dec-2016

 -------------
 #p 6-31g* mp2
 -------------

 ------------------------------------------------------
 Input file generated by CHIRIPA (05-May-2021 14:57:27)
 ------------------------------------------------------
 Symbolic Z-matrix:
 Charge =  0 Multiplicity = 1

                         Standard orientation:
 ---------------------------------------------------------------------
 Center     Atomic      Atomic             Coordinates (Angstroms)
 Number     Number       Type             X           Y           Z
 ---------------------------------------------------------------------
      1          6           0       -1.459033    1.442427    0.819059
      2          6           0       -2.139100    0.703009    1.792347
      3          6           0       -3.252741   -0.068925    1.448152
      4          6           0       -3.660801   -0.078471    0.115228
      5          6           0       -3.004181    0.647423   -0.877354
      6          6           0       -1.892979    1.412327   -0.510342
      7          1           0       -0.594877    2.039353    1.095300
      8          1           0       -1.804338    0.724494    2.825555
      9          1           0       -3.797711   -0.650894    2.181459
     10          1           0       -3.361563    0.606082   -1.899111
     11          1           0       -1.366767    1.985570   -1.268326
     12          7           0       -4.838472   -0.891961   -0.261233
     13          8           0       -5.177985   -0.883551   -1.442460
     14          8           0       -5.399718   -1.522582    0.632052
     15          6           0        1.831256    1.807503   -0.646384
     16          6           0        3.064845    2.092153   -0.051612
     17          6           0        3.978751    1.067776    0.212918
     18          6           0        3.624815   -0.235721   -0.131922
     19          6           0        2.403592   -0.551204   -0.725534
     20          6           0        1.505141    0.489058   -0.980856
     21          1           0        1.127315    2.609434   -0.848301
     22          1           0        3.320795    3.115140    0.209216
     23          1           0        4.940667    1.260012    0.672465
     24          1           0        2.176733   -1.580815   -0.974238
     25          1           0        0.547845    0.265047   -1.442858
     26          7           0        4.584146   -1.328591    0.143251
     27          8           0        4.248450   -2.468660   -0.170096
     28          8           0        5.653600   -1.024419    0.667068
 ---------------------------------------------------------------------

 SCF Done:  E(RHF) =  -868.334649781     A.U. after   16 cycles
 E2 =    -0.2603280124D+01 EUMP2 =    -0.87093792990583D+03

 The electronic state is 1-A.
 Alpha  occ. eigenvalues --  -20.61354 -20.61345 -20.61327 -20.61318 -15.86418
 Alpha  occ. eigenvalues --  -15.86379 -11.31947 -11.31933 -11.28650 -11.28532
 Alpha  occ. eigenvalues --  -11.28480 -11.28426 -11.28394 -11.28348 -11.27740
 Alpha  occ. eigenvalues --  -11.27639 -11.27514 -11.27507  -1.60426  -1.60395
 Alpha  occ. eigenvalues --   -1.39975  -1.39943  -1.20201  -1.20104  -1.09651
 Alpha  occ. eigenvalues --   -1.09432  -1.05652  -1.05494  -0.96437  -0.96232
 Alpha  occ. eigenvalues --   -0.87169  -0.86805  -0.83213  -0.83091  -0.78235
 Alpha  occ. eigenvalues --   -0.78069  -0.72644  -0.72592  -0.71756  -0.71721
 Alpha  occ. eigenvalues --   -0.71638  -0.71004  -0.66051  -0.65801  -0.65732
 Alpha  occ. eigenvalues --   -0.65247  -0.63045  -0.62734  -0.56353  -0.55976
 Alpha  occ. eigenvalues --   -0.54180  -0.53802  -0.53685  -0.53401  -0.49409
 Alpha  occ. eigenvalues --   -0.49374  -0.49367  -0.49338  -0.45344  -0.45306
 Alpha  occ. eigenvalues --   -0.38621  -0.37829  -0.37269  -0.36902
 Alpha virt. eigenvalues --    0.04242   0.04446   0.10029   0.10814   0.15607
 Alpha virt. eigenvalues --    0.15731   0.18671   0.22139   0.24962   0.26351
 Alpha virt. eigenvalues --    0.27613   0.29321   0.29887   0.30482   0.32004

 Mulliken charges:
               1
     1  C   -0.163843
     2  C   -0.219569
     3  C   -0.168219
     4  C    0.158462
     5  C   -0.171514
     6  C   -0.231848
     7  H    0.226166
     8  H    0.227734
     9  H    0.279249
    10  H    0.277459
    11  H    0.215909
    12  N    0.488085
    13  O   -0.459369
    14  O   -0.457466
    15  C   -0.184335
    16  C   -0.218837
    17  C   -0.171342
    18  C    0.160020
    19  C   -0.172167
    20  C   -0.213797
    21  H    0.217230
    22  H    0.224722
    23  H    0.277758
    24  H    0.279491
    25  H    0.228423
    26  N    0.487668
    27  O   -0.457347
    28  O   -0.458723
 Sum of Mulliken charges =  -0.00000

 Dipole moment (field-independent basis, Debye):
    X=              0.7448    Y=              6.4484    Z=              0.5297  Tot=              6.5129
 Quadrupole moment (field-independent basis, Debye-Ang):
   XX=           -157.3758   YY=           -105.8268   ZZ=            -99.5533
   XY=              6.5509   XZ=             -6.9082   YZ=              0.0234

 Normal termination of Gaussian 16 at Wed May  5 16:33:34 2021.
