 Gaussian 16, Revision A.03,
 Gaussian 16:  EM64L-G16RevA.03 25-Dec-2016

 -------------
 #p 6-31g* mp2
 -------------

 ------------------------------------------------------
 Input file generated by CHIRIPA (05-May-2021 14:51:09)
 ------------------------------------------------------
 Symbolic Z-matrix:
 Charge =  0 Multiplicity = 1

                         Standard orientation:
 ---------------------------------------------------------------------
 Center     Atomic      Atomic             Coordinates (Angstroms)
 Number     Number       Type             X           Y           Z
 ---------------------------------------------------------------------
      1          6           0        3.673836   -0.246194    0.305270
      2          6           0        4.805986   -0.420683   -0.707535
      3          6           0        6.074379    0.336262   -0.312558
      4          1           0        3.446385    0.823426    0.410734
      5          1           0        4.016233   -0.591578    1.290597
      6          1           0        4.461094   -0.076360   -1.690951
      7          1           0        5.030638   -1.490027   -0.810744
      8          1           0        6.445211   -0.012699    0.656622
      9          1           0        5.872431    1.409000   -0.228587
     10          1           0        6.870777    0.197705   -1.050402
     11          6           0        2.399114   -0.996973   -0.075710
     12          6           0        1.266964   -0.822484    0.937095
     13          6           0       -0.001430   -1.579429    0.542118
     14          1           0        2.056717   -0.651589   -1.061037
     15          1           0        2.626565   -2.066594   -0.181174
     16          1           0        1.042312    0.246859    1.040304
     17          1           0        1.611856   -1.166807    1.920511
     18          1           0        0.200519   -2.652167    0.458147
     19          1           0       -0.372261   -1.230468   -0.427062
     20          1           0       -0.797827   -1.440873    1.279962
     21          6           0       -2.687316    1.172378    0.282897
     22          6           0       -1.560436    1.857556   -0.490831
     23          6           0       -0.871544    2.957124    0.317979
     24          1           0       -3.427495    1.926132    0.584453
     25          1           0       -2.279690    0.746167    1.210032
     26          1           0       -1.969800    2.281150   -1.416901
     27          1           0       -0.822950    1.102054   -0.790746
     28          1           0       -0.436597    2.545988    1.234707
     29          1           0       -1.589963    3.731783    0.604994
     30          1           0       -0.069330    3.433591   -0.254113
     31          6           0       -3.385633    0.070789   -0.512457
     32          6           0       -4.512514   -0.614389    0.261271
     33          6           0       -5.201406   -1.713956   -0.547539
     34          1           0       -3.793260    0.497000   -1.439592
     35          1           0       -2.645455   -0.682964   -0.814013
     36          1           0       -5.249999    0.141113    0.561186
     37          1           0       -4.103150   -1.037982    1.187341
     38          1           0       -4.482987   -2.488616   -0.834555
     39          1           0       -5.636353   -1.302822   -1.464267
     40          1           0       -6.003621   -2.190425    0.024553
 ---------------------------------------------------------------------

 SCF Done:  E(RHF) =  -470.731766954     A.U. after   11 cycles
 E2 =    -0.1585289318D+01 EUMP2 =    -0.47231705627191D+03

 The electronic state is 1-A.
 Alpha  occ. eigenvalues --  -11.21664 -11.21625 -11.21578 -11.21553 -11.21453
 Alpha  occ. eigenvalues --  -11.21388 -11.21339 -11.21255 -11.21139 -11.21101
 Alpha  occ. eigenvalues --  -11.21086 -11.21025  -1.08512  -1.08363  -1.03619
 Alpha  occ. eigenvalues --   -1.03476  -0.96068  -0.95931  -0.87068  -0.86967
 Alpha  occ. eigenvalues --   -0.79662  -0.79573  -0.78315  -0.78186  -0.65464
 Alpha  occ. eigenvalues --   -0.64804  -0.61272  -0.60579  -0.59398  -0.59317
 Alpha  occ. eigenvalues --   -0.57674  -0.57547  -0.55445  -0.55162  -0.52725
 Alpha  occ. eigenvalues --   -0.52666  -0.52472  -0.52368  -0.50023  -0.49883
 Alpha  occ. eigenvalues --   -0.48020  -0.47873  -0.46756  -0.46601  -0.45930
 Alpha  occ. eigenvalues --   -0.45784  -0.45693  -0.45329  -0.43827  -0.43739
 Alpha virt. eigenvalues --    0.19771   0.22697   0.23716   0.24566   0.25514
 Alpha virt. eigenvalues --    0.26064   0.26629   0.27737   0.28700   0.29852
 Alpha virt. eigenvalues --    0.30423   0.31253   0.31608   0.32081   0.32484

 Mulliken charges:
               1
     1  C   -0.298454
     2  C   -0.299723
     3  C   -0.475756
     4  H    0.150170
     5  H    0.149617
     6  H    0.152023
     7  H    0.151954
     8  H    0.155213
     9  H    0.155328
    10  H    0.160339
    11  C   -0.298778
    12  C   -0.305822
    13  C   -0.481303
    14  H    0.149507
    15  H    0.150014
    16  H    0.157453
    17  H    0.152491
    18  H    0.155739
    19  H    0.158931
    20  H    0.161792
    21  C   -0.299315
    22  C   -0.304392
    23  C   -0.477567
    24  H    0.149692
    25  H    0.151204
    26  H    0.151982
    27  H    0.156229
    28  H    0.156297
    29  H    0.155665
    30  H    0.159621
    31  C   -0.303335
    32  C   -0.299548
    33  C   -0.475775
    34  H    0.148763
    35  H    0.156117
    36  H    0.151641
    37  H    0.151433
    38  H    0.155591
    39  H    0.154971
    40  H    0.159991
 Sum of Mulliken charges =  -0.00000

 Dipole moment (field-independent basis, Debye):
    X=              0.0326    Y=             -0.0198    Z=              0.0015  Tot=              0.0382
 Quadrupole moment (field-independent basis, Debye-Ang):
   XX=            -85.6752   YY=            -84.6040   ZZ=            -84.6441
   XY=             -1.6702   XZ=             -0.0111   YZ=             -1.0983

 Normal termination of Gaussian 16 at Wed May  5 19:44:37 2021.
