 Gaussian 16, Revision A.03,
 Gaussian 16:  EM64L-G16RevA.03 25-Dec-2016

 -------------
 #p 6-31g* mp2
 -------------

 ------------------------------------------------------
 Input file generated by CHIRIPA (05-May-2021 14:57:26)
 ------------------------------------------------------
 Symbolic Z-matrix:
 Charge =  0 Multiplicity = 1

                         Standard orientation:
 ---------------------------------------------------------------------
 Center     Atomic      Atomic             Coordinates (Angstroms)
 Number     Number       Type             X           Y           Z
 ---------------------------------------------------------------------
      1          6           0        4.110436   -1.984745    1.115325
      2          6           0        2.979608   -1.966944    0.292262
      3          6           0        2.582756   -0.786801   -0.343598
      4          6           0        3.343338    0.362357   -0.133258
      5          6           0        4.474854    0.376559    0.680842
      6          6           0        4.853140   -0.814999    1.306651
      7          1           0        4.411509   -2.905942    1.605372
      8          1           0        2.400908   -2.873877    0.141853
      9          1           0        1.711582   -0.744839   -0.986025
     10          1           0        5.031648    1.296510    0.811561
     11          1           0        5.731804   -0.825870    1.945303
     12          7           0        2.933036    1.617764   -0.801095
     13          8           0        3.620063    2.616771   -0.599562
     14          8           0        1.932182    1.578974   -1.513433
     15          6           0       -4.606662    1.821134    1.037751
     16          6           0       -5.311831    0.647178    0.752993
     17          6           0       -4.659585   -0.454217    0.190808
     18          6           0       -3.295364   -0.346540   -0.074893
     19          6           0       -2.565230    0.809329    0.197431
     20          6           0       -3.238025    1.898327    0.759550
     21          1           0       -5.121324    2.671910    1.474444
     22          1           0       -6.374789    0.584384    0.967985
     23          1           0       -5.181187   -1.375206   -0.039688
     24          1           0       -1.506218    0.841940   -0.028068
     25          1           0       -2.687834    2.808763    0.979644
     26          7           0       -2.593984   -1.505975   -0.670018
     27          8           0       -1.391598   -1.385796   -0.894660
     28          8           0       -3.259906   -2.512966   -0.900567
 ---------------------------------------------------------------------

 SCF Done:  E(RHF) =  -868.340501605     A.U. after   16 cycles
 E2 =    -0.2598344225D+01 EUMP2 =    -0.87093884583045D+03

 The electronic state is 1-A.
 Alpha  occ. eigenvalues --  -20.60977 -20.60949 -20.60529 -20.60518 -15.86012
 Alpha  occ. eigenvalues --  -15.85562 -11.31102 -11.30685 -11.27681 -11.27579
 Alpha  occ. eigenvalues --  -11.27368 -11.27312 -11.27077 -11.26984 -11.26648
 Alpha  occ. eigenvalues --  -11.26561 -11.26291 -11.26104  -1.60031  -1.59606
 Alpha  occ. eigenvalues --   -1.39593  -1.39161  -1.19259  -1.18854  -1.08711
 Alpha  occ. eigenvalues --   -1.08309  -1.04615  -1.04195  -0.95587  -0.95168
 Alpha  occ. eigenvalues --   -0.86031  -0.85617  -0.82429  -0.81990  -0.77498
 Alpha  occ. eigenvalues --   -0.77048  -0.72258  -0.71783  -0.71336  -0.70929
 Alpha  occ. eigenvalues --   -0.70369  -0.69952  -0.64919  -0.64616  -0.64498
 Alpha  occ. eigenvalues --   -0.64185  -0.61954  -0.61508  -0.55146  -0.54746
 Alpha  occ. eigenvalues --   -0.52972  -0.52699  -0.52581  -0.52262  -0.48997
 Alpha  occ. eigenvalues --   -0.48968  -0.48548  -0.48523  -0.45056  -0.44620
 Alpha  occ. eigenvalues --   -0.37243  -0.36868  -0.36208  -0.35797
 Alpha virt. eigenvalues --    0.05015   0.05416   0.11445   0.11833   0.16555
 Alpha virt. eigenvalues --    0.16948   0.21414   0.22112   0.27137   0.27752
 Alpha virt. eigenvalues --    0.28285   0.29226   0.30935   0.31616   0.32173

 Mulliken charges:
               1
     1  C   -0.171055
     2  C   -0.221324
     3  C   -0.176748
     4  C    0.155140
     5  C   -0.172090
     6  C   -0.219597
     7  H    0.224486
     8  H    0.231319
     9  H    0.293506
    10  H    0.272696
    11  H    0.220974
    12  N    0.487375
    13  O   -0.463114
    14  O   -0.462319
    15  C   -0.170272
    16  C   -0.219019
    17  C   -0.171215
    18  C    0.156864
    19  C   -0.171245
    20  C   -0.219390
    21  H    0.226018
    22  H    0.222880
    23  H    0.274317
    24  H    0.282343
    25  H    0.227739
    26  N    0.492899
    27  O   -0.471091
    28  O   -0.460077
 Sum of Mulliken charges =  -0.00000

 Dipole moment (field-independent basis, Debye):
    X=             -1.2130    Y=             -0.3896    Z=              4.4152  Tot=              4.5953
 Quadrupole moment (field-independent basis, Debye-Ang):
   XX=            -73.4155   YY=           -109.2241   ZZ=           -106.4772
   XY=            -23.1742   XZ=              2.6024   YZ=              1.7047

 Normal termination of Gaussian 16 at Fri May  7 05:05:55 2021.
