 Gaussian 16, Revision A.03,
 Gaussian 16:  EM64L-G16RevA.03 25-Dec-2016

 -------------
 #p 6-31g* mp2
 -------------

 ------------------------------------------------------
 Input file generated by CHIRIPA (05-May-2021 14:51:11)
 ------------------------------------------------------
 Symbolic Z-matrix:
 Charge =  0 Multiplicity = 1

                         Standard orientation:
 ---------------------------------------------------------------------
 Center     Atomic      Atomic             Coordinates (Angstroms)
 Number     Number       Type             X           Y           Z
 ---------------------------------------------------------------------
      1          6           0        3.457230   -0.580749   -0.098667
      2          6           0        2.121431   -0.302687    0.591484
      3          6           0        1.048731   -1.334168    0.240549
      4          1           0        3.304252   -0.597195   -1.186450
      5          1           0        3.805768   -1.583987    0.183165
      6          1           0        1.776196    0.700273    0.309527
      7          1           0        2.277642   -0.286711    1.677743
      8          1           0        1.368086   -2.338368    0.537528
      9          1           0        0.863790   -1.345776   -0.838461
     10          1           0        0.102042   -1.116270    0.744693
     11          6           0        4.539707    0.441858    0.242283
     12          6           0        5.875505    0.163796   -0.447868
     13          6           0        6.948206    1.195277   -0.096934
     14          1           0        4.191168    1.445096   -0.039549
     15          1           0        4.692684    0.458304    1.330066
     16          1           0        5.719294    0.147820   -1.534127
     17          1           0        6.220741   -0.839164   -0.165911
     18          1           0        7.133146    1.206885    0.982077
     19          1           0        6.628850    2.199477   -0.393913
     20          1           0        7.894895    0.977379   -0.601077
     21          6           0       -4.169585   -0.654988    0.099504
     22          6           0       -3.119629   -1.656414   -0.382914
     23          6           0       -3.476085   -3.101443   -0.032740
     24          1           0       -4.286833   -0.751879    1.187534
     25          1           0       -5.141769   -0.911523   -0.343713
     26          1           0       -2.149432   -1.397241    0.059988
     27          1           0       -3.004729   -1.556995   -1.469896
     28          1           0       -4.431188   -3.383644   -0.487429
     29          1           0       -3.571031   -3.222983    1.051148
     30          1           0       -2.712056   -3.800519   -0.386879
     31          6           0       -3.827352    0.793879   -0.243119
     32          6           0       -4.877307    1.795305    0.239297
     33          6           0       -4.520852    3.240334   -0.110875
     34          1           0       -2.855167    1.050415    0.200098
     35          1           0       -3.710104    0.890770   -1.331150
     36          1           0       -4.992207    1.695885    1.326280
     37          1           0       -5.847505    1.536131   -0.203605
     38          1           0       -4.425906    3.361874   -1.194764
     39          1           0       -3.565748    3.522535    0.343812
     40          1           0       -5.284880    3.939410    0.243264
 ---------------------------------------------------------------------

 SCF Done:  E(RHF) =  -470.733190465     A.U. after   11 cycles
 E2 =    -0.1582444059D+01 EUMP2 =    -0.47231563452408D+03

 The electronic state is 1-A.
 Alpha  occ. eigenvalues --  -11.21627 -11.21611 -11.21586 -11.21498 -11.21421
 Alpha  occ. eigenvalues --  -11.21374 -11.21361 -11.21310 -11.21093 -11.21079
 Alpha  occ. eigenvalues --  -11.21062 -11.21006  -1.08448  -1.08392  -1.03555
 Alpha  occ. eigenvalues --   -1.03481  -0.96004  -0.95936  -0.87029  -0.86947
 Alpha  occ. eigenvalues --   -0.79658  -0.79509  -0.78264  -0.78198  -0.65078
 Alpha  occ. eigenvalues --   -0.65032  -0.60956  -0.60904  -0.59441  -0.59238
 Alpha  occ. eigenvalues --   -0.57625  -0.57534  -0.55283  -0.55231  -0.52757
 Alpha  occ. eigenvalues --   -0.52612  -0.52431  -0.52351  -0.49947  -0.49871
 Alpha  occ. eigenvalues --   -0.47965  -0.47835  -0.46659  -0.46562  -0.45804
 Alpha  occ. eigenvalues --   -0.45753  -0.45717  -0.45673  -0.43780  -0.43700
 Alpha virt. eigenvalues --    0.21826   0.23026   0.23791   0.24653   0.26094
 Alpha virt. eigenvalues --    0.26629   0.27082   0.27464   0.28007   0.28848
 Alpha virt. eigenvalues --    0.30564   0.31324   0.31645   0.31789   0.32143

 Mulliken charges:
               1
     1  C   -0.298714
     2  C   -0.299352
     3  C   -0.479786
     4  H    0.149816
     5  H    0.149574
     6  H    0.152035
     7  H    0.151760
     8  H    0.155397
     9  H    0.156345
    10  H    0.163604
    11  C   -0.298281
    12  C   -0.299647
    13  C   -0.475713
    14  H    0.149588
    15  H    0.149627
    16  H    0.151994
    17  H    0.151943
    18  H    0.155174
    19  H    0.155216
    20  H    0.160294
    21  C   -0.297808
    22  C   -0.307594
    23  C   -0.475219
    24  H    0.149138
    25  H    0.149319
    26  H    0.160566
    27  H    0.151398
    28  H    0.154763
    29  H    0.154597
    30  H    0.160628
    31  C   -0.298191
    32  C   -0.299592
    33  C   -0.475682
    34  H    0.148961
    35  H    0.149599
    36  H    0.151875
    37  H    0.151972
    38  H    0.155097
    39  H    0.155091
    40  H    0.160207
 Sum of Mulliken charges =  -0.00000

 Dipole moment (field-independent basis, Debye):
    X=              0.0348    Y=             -0.0064    Z=             -0.0041  Tot=              0.0356
 Quadrupole moment (field-independent basis, Debye-Ang):
   XX=            -85.3913   YY=            -86.1198   ZZ=            -83.3956
   XY=             -0.8700   XZ=              0.5666   YZ=             -0.2919

 Normal termination of Gaussian 16 at Wed May  5 15:12:48 2021.
