 Gaussian 16, Revision A.03,
 Gaussian 16:  EM64L-G16RevA.03 25-Dec-2016

 -------------
 #p 6-31g* mp2
 -------------

 ------------------------------------------------------
 Input file generated by CHIRIPA (05-May-2021 14:53:16)
 ------------------------------------------------------
 Symbolic Z-matrix:
 Charge =  0 Multiplicity = 1

                         Standard orientation:
 ---------------------------------------------------------------------
 Center     Atomic      Atomic             Coordinates (Angstroms)
 Number     Number       Type             X           Y           Z
 ---------------------------------------------------------------------
      1          6           0        2.954414    0.010944   -0.446684
      2          6           0        3.418499   -1.137349    0.449995
      3          6           0        3.683561   -2.425884   -0.329245
      4          1           0        2.041682   -0.292604   -0.977460
      5          1           0        3.716334    0.196909   -1.216287
      6          1           0        2.656559   -1.320176    1.218525
      7          1           0        4.330125   -0.830963    0.978844
      8          1           0        4.459389   -2.266342   -1.085048
      9          1           0        2.776314   -2.758335   -0.844006
     10          1           0        4.014248   -3.233602    0.331132
     11          6           0        2.685368    1.305885    0.317822
     12          6           0        2.221283    2.454179   -0.578856
     13          6           0        1.956221    3.742713    0.200383
     14          1           0        1.923447    1.119921    1.087426
     15          1           0        3.598100    1.609433    0.848599
     16          1           0        1.309657    2.147792   -1.107705
     17          1           0        2.983223    2.637005   -1.347386
     18          1           0        2.863468    4.075164    0.715145
     19          1           0        1.180393    3.583171    0.956187
     20          1           0        1.625534    4.550431   -0.459993
     21          6           0       -0.147261   -1.955493    0.301158
     22          6           0       -0.732374   -1.368505    1.427928
     23          6           0       -1.871596   -0.568154    1.300806
     24          6           0       -2.401785   -0.375065    0.026087
     25          6           0       -1.841785   -0.946202   -1.115619
     26          6           0       -0.702855   -1.742844   -0.964787
     27          1           0        0.737600   -2.575784    0.409118
     28          1           0       -0.303054   -1.531915    2.412319
     29          1           0       -2.344831   -0.101644    2.156279
     30          1           0       -2.292522   -0.765006   -2.083824
     31          1           0       -0.250574   -2.197439   -1.841615
     32          7           0       -3.607673    0.470266   -0.121040
     33          8           0       -4.055548    0.624926   -1.255116
     34          8           0       -4.082141    0.962170    0.900501
 ---------------------------------------------------------------------

 SCF Done:  E(RHF) =  -669.534270109     A.U. after   15 cycles
 E2 =    -0.2094856591D+01 EUMP2 =    -0.67162912670000D+03

 The electronic state is 1-A.
 Alpha  occ. eigenvalues --  -20.60828 -20.60823 -15.85885 -11.31273 -11.27871
 Alpha  occ. eigenvalues --  -11.27867 -11.27546 -11.26865 -11.26853 -11.22563
 Alpha  occ. eigenvalues --  -11.22266 -11.21968 -11.21862 -11.21776 -11.21215
 Alpha  occ. eigenvalues --   -1.59904  -1.39457  -1.19467  -1.09087  -1.08794
 Alpha  occ. eigenvalues --   -1.04873  -1.04168  -0.96603  -0.95678  -0.87620
 Alpha  occ. eigenvalues --   -0.86269  -0.82513  -0.80249  -0.78768  -0.77551
 Alpha  occ. eigenvalues --   -0.72102  -0.71229  -0.70675  -0.65710  -0.65115
 Alpha  occ. eigenvalues --   -0.64826  -0.62217  -0.61587  -0.60012  -0.58182
 Alpha  occ. eigenvalues --   -0.56130  -0.55078  -0.53308  -0.53196  -0.52991
 Alpha  occ. eigenvalues --   -0.52953  -0.50581  -0.48862  -0.48855  -0.48537
 Alpha  occ. eigenvalues --   -0.47311  -0.46312  -0.46212  -0.44857  -0.44358
 Alpha  occ. eigenvalues --   -0.37363  -0.36460
 Alpha virt. eigenvalues --    0.04970   0.10991   0.16388   0.19518   0.22983
 Alpha virt. eigenvalues --    0.24098   0.24897   0.26125   0.27029   0.28035
 Alpha virt. eigenvalues --    0.29157   0.30288   0.30636   0.31524   0.32042

 Mulliken charges:
               1
     1  C   -0.301192
     2  C   -0.303830
     3  C   -0.479035
     4  H    0.152266
     5  H    0.150866
     6  H    0.143374
     7  H    0.157928
     8  H    0.163120
     9  H    0.143432
    10  H    0.162530
    11  C   -0.298564
    12  C   -0.300546
    13  C   -0.476129
    14  H    0.149870
    15  H    0.149618
    16  H    0.154269
    17  H    0.151689
    18  H    0.154563
    19  H    0.156593
    20  H    0.162926
    21  C   -0.169834
    22  C   -0.221186
    23  C   -0.170786
    24  C    0.157884
    25  C   -0.171084
    26  C   -0.222683
    27  H    0.235414
    28  H    0.224275
    29  H    0.276088
    30  H    0.276214
    31  H    0.224222
    32  N    0.488126
    33  O   -0.460184
    34  O   -0.460214
 Sum of Mulliken charges =  -0.00000

 Dipole moment (field-independent basis, Debye):
    X=              4.2692    Y=             -2.8955    Z=              0.4999  Tot=              5.1827
 Quadrupole moment (field-independent basis, Debye-Ang):
   XX=           -114.7597   YY=            -93.9828   ZZ=            -90.0311
   XY=              6.1473   XZ=             -1.3231   YZ=              0.1214

 Normal termination of Gaussian 16 at Wed May  5 17:12:03 2021.
