 Gaussian 16, Revision A.03,
 Gaussian 16:  EM64L-G16RevA.03 25-Dec-2016

 -------------
 #p 6-31g* mp2
 -------------

 ------------------------------------------------------
 Input file generated by CHIRIPA (05-May-2021 14:53:14)
 ------------------------------------------------------
 Symbolic Z-matrix:
 Charge =  0 Multiplicity = 1

                         Standard orientation:
 ---------------------------------------------------------------------
 Center     Atomic      Atomic             Coordinates (Angstroms)
 Number     Number       Type             X           Y           Z
 ---------------------------------------------------------------------
      1          6           0       -3.320083    0.741566   -0.052410
      2          6           0       -3.859802    1.856721   -0.948577
      3          6           0       -3.455126    3.250267   -0.466849
      4          1           0       -3.682554    0.896188    0.973091
      5          1           0       -2.224340    0.812239   -0.010620
      6          1           0       -4.954107    1.783119   -0.989773
      7          1           0       -3.496161    1.699318   -1.972103
      8          1           0       -2.364961    3.348060   -0.442818
      9          1           0       -3.831190    3.432337    0.545093
     10          1           0       -3.851544    4.032315   -1.121917
     11          6           0       -3.716242   -0.657427   -0.521032
     12          6           0       -3.176523   -1.772583    0.375136
     13          6           0       -3.581200   -3.166128   -0.106593
     14          1           0       -4.811986   -0.728100   -0.562822
     15          1           0       -3.353772   -0.812049   -1.546533
     16          1           0       -3.540165   -1.615180    1.398662
     17          1           0       -2.082219   -1.698981    0.416332
     18          1           0       -3.205136   -3.348198   -1.118535
     19          1           0       -4.671365   -3.263921   -0.130623
     20          1           0       -3.184782   -3.948176    0.548475
     21          6           0        0.910215    0.077771    1.948574
     22          6           0        1.874902    1.088821    1.887932
     23          6           0        2.898010    1.037841    0.936511
     24          6           0        2.926290   -0.043563    0.057276
     25          6           0        1.979684   -1.066295    0.092588
     26          6           0        0.965588   -0.994670    1.052289
     27          1           0        0.118941    0.125392    2.690877
     28          1           0        1.834385    1.922886    2.582725
     29          1           0        3.657664    1.806976    0.867410
     30          1           0        2.046278   -1.885155   -0.613422
     31          1           0        0.217743   -1.781290    1.097063
     32          7           0        4.004638   -0.108461   -0.954334
     33          8           0        4.007429   -1.071798   -1.717624
     34          8           0        4.826638    0.805237   -0.964788
 ---------------------------------------------------------------------

 SCF Done:  E(RHF) =  -669.535727202     A.U. after   15 cycles
 E2 =    -0.2091613595D+01 EUMP2 =    -0.67162734079665D+03

 The electronic state is 1-A.
 Alpha  occ. eigenvalues --  -20.60789 -20.60784 -15.85843 -11.31219 -11.27792
 Alpha  occ. eigenvalues --  -11.27788 -11.27531 -11.26798 -11.26784 -11.22487
 Alpha  occ. eigenvalues --  -11.22064 -11.22030 -11.21949 -11.21795 -11.21494
 Alpha  occ. eigenvalues --   -1.59865  -1.39418  -1.19394  -1.09067  -1.08782
 Alpha  occ. eigenvalues --   -1.04799  -1.04156  -0.96578  -0.95615  -0.87597
 Alpha  occ. eigenvalues --   -0.86195  -0.82448  -0.80247  -0.78884  -0.77494
 Alpha  occ. eigenvalues --   -0.72060  -0.71188  -0.70487  -0.65729  -0.65043
 Alpha  occ. eigenvalues --   -0.64790  -0.62184  -0.61515  -0.59961  -0.58200
 Alpha  occ. eigenvalues --   -0.55854  -0.55283  -0.53291  -0.53122  -0.53023
 Alpha  occ. eigenvalues --   -0.52881  -0.50513  -0.48834  -0.48815  -0.48532
 Alpha  occ. eigenvalues --   -0.47268  -0.46414  -0.46320  -0.44821  -0.44401
 Alpha  occ. eigenvalues --   -0.37358  -0.36393
 Alpha virt. eigenvalues --    0.05035   0.11118   0.16490   0.20248   0.22611
 Alpha virt. eigenvalues --    0.23667   0.25437   0.26365   0.27127   0.28019
 Alpha virt. eigenvalues --    0.28927   0.30156   0.31052   0.31365   0.31811

 Mulliken charges:
               1
     1  C   -0.301294
     2  C   -0.299933
     3  C   -0.476355
     4  H    0.146861
     5  H    0.150688
     6  H    0.152958
     7  H    0.154642
     8  H    0.155689
     9  H    0.153708
    10  H    0.162605
    11  C   -0.297662
    12  C   -0.305118
    13  C   -0.476180
    14  H    0.152099
    15  H    0.152794
    16  H    0.151136
    17  H    0.145259
    18  H    0.157855
    19  H    0.158955
    20  H    0.158965
    21  C   -0.171632
    22  C   -0.218978
    23  C   -0.170835
    24  C    0.158570
    25  C   -0.172107
    26  C   -0.221719
    27  H    0.227221
    28  H    0.223802
    29  H    0.275787
    30  H    0.275801
    31  H    0.229056
    32  N    0.488061
    33  O   -0.460367
    34  O   -0.460330
 Sum of Mulliken charges =  -0.00000

 Dipole moment (field-independent basis, Debye):
    X=             -3.8895    Y=              0.2624    Z=              3.5025  Tot=              5.2406
 Quadrupole moment (field-independent basis, Debye-Ang):
   XX=           -115.8757   YY=            -92.2985   ZZ=            -94.0352
   XY=              2.5141   XZ=             10.7809   YZ=              1.4347

 Normal termination of Gaussian 16 at Thu May  6 08:57:13 2021.
