 Gaussian 16, Revision A.03,
 Gaussian 16:  EM64L-G16RevA.03 25-Dec-2016

 -------------
 #p 6-31g* mp2
 -------------

 ------------------------------------------------------
 Input file generated by CHIRIPA (05-May-2021 14:53:17)
 ------------------------------------------------------
 Symbolic Z-matrix:
 Charge =  0 Multiplicity = 1

                         Standard orientation:
 ---------------------------------------------------------------------
 Center     Atomic      Atomic             Coordinates (Angstroms)
 Number     Number       Type             X           Y           Z
 ---------------------------------------------------------------------
      1          6           0       -4.524328   -0.201945    0.244257
      2          6           0       -5.678925   -0.977886   -0.390413
      3          6           0       -6.294612   -2.004593    0.560690
      4          1           0       -3.751129   -0.910332    0.571819
      5          1           0       -4.886475    0.305841    1.148910
      6          1           0       -5.315040   -1.482935   -1.294364
      7          1           0       -6.449379   -0.267555   -0.716675
      8          1           0       -6.684298   -1.513277    1.458105
      9          1           0       -5.543513   -2.735562    0.877133
     10          1           0       -7.118054   -2.547806    0.086641
     11          6           0       -3.898493    0.828242   -0.694239
     12          6           0       -2.743896    1.604183   -0.059570
     13          6           0       -2.128209    2.630890   -1.010672
     14          1           0       -3.536345    0.320456   -1.598893
     15          1           0       -4.671692    1.536629   -1.021801
     16          1           0       -1.973442    0.893852    0.266692
     17          1           0       -3.107781    2.109232    0.844382
     18          1           0       -2.879307    3.361859   -1.327115
     19          1           0       -1.738523    2.139574   -1.908087
     20          1           0       -1.304766    3.174103   -0.536623
     21          6           0        0.958386    0.038733    1.096875
     22          6           0        1.209367   -0.919968    0.109747
     23          6           0        2.497447   -1.085706   -0.407870
     24          6           0        3.515592   -0.272044    0.086726
     25          6           0        3.297183    0.691897    1.069786
     26          6           0        2.001257    0.840193    1.572905
     27          1           0       -0.045274    0.160708    1.493342
     28          1           0        0.401392   -1.543792   -0.261823
     29          1           0        2.719676   -1.820168   -1.172460
     30          1           0        4.122975    1.298993    1.420385
     31          1           0        1.809269    1.585542    2.339481
     32          7           0        4.883379   -0.438270   -0.453578
     33          8           0        5.763174    0.291031   -0.001123
     34          8           0        5.049755   -1.294712   -1.319294
 ---------------------------------------------------------------------

 SCF Done:  E(RHF) =  -669.535413440     A.U. after   15 cycles
 E2 =    -0.2091339538D+01 EUMP2 =    -0.67162675297765D+03

 The electronic state is 1-A.
 Alpha  occ. eigenvalues --  -20.60762 -20.60757 -15.85816 -11.31187 -11.27759
 Alpha  occ. eigenvalues --  -11.27754 -11.27474 -11.26778 -11.26761 -11.22607
 Alpha  occ. eigenvalues --  -11.22272 -11.22224 -11.22168 -11.21821 -11.21652
 Alpha  occ. eigenvalues --   -1.59837  -1.39391  -1.19360  -1.09247  -1.08752
 Alpha  occ. eigenvalues --   -1.04765  -1.04298  -0.96714  -0.95587  -0.87728
 Alpha  occ. eigenvalues --   -0.86161  -0.82424  -0.80385  -0.79069  -0.77467
 Alpha  occ. eigenvalues --   -0.72034  -0.71161  -0.70486  -0.65884  -0.65011
 Alpha  occ. eigenvalues --   -0.64768  -0.62114  -0.61697  -0.60098  -0.58342
 Alpha  occ. eigenvalues --   -0.56003  -0.55267  -0.53400  -0.53132  -0.53084
 Alpha  occ. eigenvalues --   -0.52857  -0.50651  -0.48801  -0.48789  -0.48671
 Alpha  occ. eigenvalues --   -0.47418  -0.46599  -0.46519  -0.44795  -0.44555
 Alpha  occ. eigenvalues --   -0.37323  -0.36370
 Alpha virt. eigenvalues --    0.05044   0.11260   0.16452   0.19858   0.22521
 Alpha virt. eigenvalues --    0.23775   0.25213   0.26273   0.27003   0.27647
 Alpha virt. eigenvalues --    0.29031   0.30465   0.30907   0.31201   0.32227

 Mulliken charges:
               1
     1  C   -0.297647
     2  C   -0.300160
     3  C   -0.476032
     4  H    0.143358
     5  H    0.150800
     6  H    0.152581
     7  H    0.154204
     8  H    0.156030
     9  H    0.154400
    10  H    0.162657
    11  C   -0.298408
    12  C   -0.303349
    13  C   -0.474998
    14  H    0.150390
    15  H    0.153554
    16  H    0.141935
    17  H    0.152917
    18  H    0.158468
    19  H    0.157987
    20  H    0.160626
    21  C   -0.171696
    22  C   -0.219675
    23  C   -0.170897
    24  C    0.158562
    25  C   -0.170840
    26  C   -0.219637
    27  H    0.230076
    28  H    0.222738
    29  H    0.275543
    30  H    0.275606
    31  H    0.223692
    32  N    0.488077
    33  O   -0.460382
    34  O   -0.460479
 Sum of Mulliken charges =  -0.00000

 Dipole moment (field-independent basis, Debye):
    X=             -4.9772    Y=              0.6499    Z=              1.8426  Tot=              5.3470
 Quadrupole moment (field-independent basis, Debye-Ang):
   XX=           -127.8071   YY=            -92.7343   ZZ=            -93.2704
   XY=              3.7663   XZ=              7.7465   YZ=              2.7237

 Normal termination of Gaussian 16 at Wed May  5 20:22:23 2021.
