 Gaussian 16, Revision A.03,
 Gaussian 16:  EM64L-G16RevA.03 25-Dec-2016

 -------------
 #p 6-31g* mp2
 -------------

 ------------------------------------------------------
 Input file generated by CHIRIPA (05-May-2021 14:57:26)
 ------------------------------------------------------
 Symbolic Z-matrix:
 Charge =  0 Multiplicity = 1

                         Standard orientation:
 ---------------------------------------------------------------------
 Center     Atomic      Atomic             Coordinates (Angstroms)
 Number     Number       Type             X           Y           Z
 ---------------------------------------------------------------------
      1          6           0        5.209005    1.087576    0.077622
      2          6           0        3.978450    1.740041   -0.051008
      3          6           0        2.794044    1.005984   -0.164532
      4          6           0        2.877326   -0.385418   -0.145657
      5          6           0        4.088106   -1.064544   -0.018814
      6          6           0        5.259816   -0.310170    0.093281
      7          1           0        6.124148    1.665701    0.165255
      8          1           0        3.935969    2.825438   -0.063471
      9          1           0        1.827932    1.485460   -0.265272
     10          1           0        4.098626   -2.147698   -0.009580
     11          1           0        6.214070   -0.819571    0.193055
     12          7           0        1.630169   -1.173286   -0.265084
     13          8           0        1.730412   -2.398118   -0.245761
     14          8           0        0.576019   -0.551066   -0.375752
     15          6           0       -3.629399   -2.207401    0.157846
     16          6           0       -4.161906   -1.385076   -0.840522
     17          6           0       -3.865863   -0.019003   -0.867987
     18          6           0       -3.030036    0.493678    0.122893
     19          6           0       -2.484035   -0.299764    1.130674
     20          6           0       -2.793637   -1.663081    1.138528
     21          1           0       -3.864639   -3.267529    0.171563
     22          1           0       -4.811260   -1.805060   -1.603408
     23          1           0       -4.264479    0.640434   -1.629344
     24          1           0       -1.839783    0.147782    1.877707
     25          1           0       -2.378655   -2.299319    1.915082
     26          7           0       -2.709453    1.938419    0.104198
     27          8           0       -1.970508    2.365706    0.988519
     28          8           0       -3.203193    2.616164   -0.794422
 ---------------------------------------------------------------------

 SCF Done:  E(RHF) =  -868.339333243     A.U. after   16 cycles
 E2 =    -0.2599436917D+01 EUMP2 =    -0.87093877015998D+03

 The electronic state is 1-A.
 Alpha  occ. eigenvalues --  -20.60939 -20.60927 -20.59933 -20.59920 -15.85970
 Alpha  occ. eigenvalues --  -15.84969 -11.31133 -11.29949 -11.27727 -11.27611
 Alpha  occ. eigenvalues --  -11.27415 -11.26699 -11.26612 -11.26585 -11.26514
 Alpha  occ. eigenvalues --  -11.26273 -11.25544 -11.25439  -1.60013  -1.59002
 Alpha  occ. eigenvalues --   -1.39569  -1.38570  -1.19298  -1.18116  -1.08737
 Alpha  occ. eigenvalues --   -1.07600  -1.04662  -1.03498  -0.95601  -0.94499
 Alpha  occ. eigenvalues --   -0.86073  -0.84937  -0.82435  -0.81366  -0.77499
 Alpha  occ. eigenvalues --   -0.76438  -0.72215  -0.71334  -0.71219  -0.70405
 Alpha  occ. eigenvalues --   -0.70286  -0.69309  -0.64952  -0.64661  -0.63818
 Alpha  occ. eigenvalues --   -0.63561  -0.61998  -0.60896  -0.55187  -0.54079
 Alpha  occ. eigenvalues --   -0.53018  -0.52746  -0.51801  -0.51646  -0.48962
 Alpha  occ. eigenvalues --   -0.48912  -0.47976  -0.47937  -0.45023  -0.44065
 Alpha  occ. eigenvalues --   -0.37288  -0.36259  -0.36071  -0.34993
 Alpha virt. eigenvalues --    0.04971   0.06140   0.11394   0.12618   0.16533
 Alpha virt. eigenvalues --    0.17672   0.21568   0.22524   0.27509   0.28343
 Alpha virt. eigenvalues --    0.28501   0.29379   0.31113   0.31994   0.32719

 Mulliken charges:
               1
     1  C   -0.170383
     2  C   -0.219203
     3  C   -0.171599
     4  C    0.156186
     5  C   -0.171465
     6  C   -0.219003
     7  H    0.225968
     8  H    0.227129
     9  H    0.283673
    10  H    0.273694
    11  H    0.222703
    12  N    0.489102
    13  O   -0.463895
    14  O   -0.462033
    15  C   -0.167941
    16  C   -0.218795
    17  C   -0.170847
    18  C    0.160256
    19  C   -0.150457
    20  C   -0.211978
    21  H    0.222326
    22  H    0.218503
    23  H    0.270663
    24  H    0.270156
    25  H    0.220910
    26  N    0.488775
    27  O   -0.467223
    28  O   -0.465225
 Sum of Mulliken charges =  -0.00000

 Dipole moment (field-independent basis, Debye):
    X=              3.4911    Y=             -2.3351    Z=              0.5150  Tot=              4.2315
 Quadrupole moment (field-independent basis, Debye-Ang):
   XX=            -71.5738   YY=           -109.4475   ZZ=           -102.8918
   XY=             19.1935   XZ=              2.9907   YZ=             -2.1013

 Normal termination of Gaussian 16 at Fri May  7 00:26:35 2021.
