 Gaussian 16, Revision A.03,
 Gaussian 16:  EM64L-G16RevA.03 25-Dec-2016

 -------------
 #p 6-31g* mp2
 -------------

 ------------------------------------------------------
 Input file generated by CHIRIPA (05-May-2021 14:57:22)
 ------------------------------------------------------
 Symbolic Z-matrix:
 Charge =  0 Multiplicity = 1

                         Standard orientation:
 ---------------------------------------------------------------------
 Center     Atomic      Atomic             Coordinates (Angstroms)
 Number     Number       Type             X           Y           Z
 ---------------------------------------------------------------------
      1          6           0       -2.253429    2.571525    0.621412
      2          6           0       -3.212414    1.869397    1.358898
      3          6           0       -3.529987    0.547264    1.033844
      4          6           0       -2.866220   -0.044523   -0.039698
      5          6           0       -1.906135    0.628695   -0.793555
      6          6           0       -1.604494    1.950029   -0.450571
      7          1           0       -2.012919    3.598279    0.880886
      8          1           0       -3.717977    2.349522    2.191922
      9          1           0       -4.268319   -0.019532    1.587943
     10          1           0       -1.418943    0.123356   -1.618597
     11          1           0       -0.859306    2.492876   -1.025077
     12          7           0       -3.193987   -1.443783   -0.393309
     13          8           0       -2.595042   -1.942584   -1.343624
     14          8           0       -4.043630   -2.015227    0.286541
     15          6           0        2.999163    2.245013   -0.667197
     16          6           0        3.836258    1.718009    0.321773
     17          6           0        3.741474    0.372432    0.689178
     18          6           0        2.794125   -0.421122    0.044124
     19          6           0        1.945925    0.074551   -0.944893
     20          6           0        2.058327    1.423051   -1.296263
     21          1           0        3.079637    3.291425   -0.946378
     22          1           0        4.567846    2.354008    0.812008
     23          1           0        4.377010   -0.061494    1.451555
     24          1           0        1.226358   -0.584187   -1.415751
     25          1           0        1.406916    1.829610   -2.064651
     26          7           0        2.684456   -1.847171    0.424592
     27          8           0        1.841638   -2.525404   -0.158757
     28          8           0        3.443392   -2.259673    1.298946
 ---------------------------------------------------------------------

 SCF Done:  E(RHF) =  -868.335004465     A.U. after   16 cycles
 E2 =    -0.2602217256D+01 EUMP2 =    -0.87093722172098D+03

 The electronic state is 1-A.
 Alpha  occ. eigenvalues --  -20.60859 -20.60824 -20.60738 -20.60722 -15.85908
 Alpha  occ. eigenvalues --  -15.85794 -11.31552 -11.31393 -11.28213 -11.28150
 Alpha  occ. eigenvalues --  -11.28071 -11.28018 -11.27924 -11.27756 -11.27359
 Alpha  occ. eigenvalues --  -11.27210 -11.27125 -11.27001  -1.59919  -1.59796
 Alpha  occ. eigenvalues --   -1.39462  -1.39348  -1.19780  -1.19577  -1.09127
 Alpha  occ. eigenvalues --   -1.08926  -1.05274  -1.05007  -0.95906  -0.95728
 Alpha  occ. eigenvalues --   -0.86660  -0.86392  -0.82786  -0.82540  -0.77808
 Alpha  occ. eigenvalues --   -0.77519  -0.72119  -0.72010  -0.71253  -0.71116
 Alpha  occ. eigenvalues --   -0.70923  -0.70672  -0.65474  -0.65439  -0.65233
 Alpha  occ. eigenvalues --   -0.64895  -0.62819  -0.62173  -0.55752  -0.55507
 Alpha  occ. eigenvalues --   -0.53648  -0.53518  -0.53216  -0.52960  -0.48908
 Alpha  occ. eigenvalues --   -0.48856  -0.48783  -0.48755  -0.44807  -0.44699
 Alpha  occ. eigenvalues --   -0.37799  -0.37534  -0.37159  -0.36276
 Alpha virt. eigenvalues --    0.04654   0.05135   0.10398   0.11300   0.16011
 Alpha virt. eigenvalues --    0.16598   0.18618   0.22234   0.24873   0.25857
 Alpha virt. eigenvalues --    0.28191   0.28950   0.30534   0.31372   0.32610

 Mulliken charges:
               1
     1  C   -0.171835
     2  C   -0.217637
     3  C   -0.170006
     4  C    0.161098
     5  C   -0.172421
     6  C   -0.212613
     7  H    0.224259
     8  H    0.224442
     9  H    0.277639
    10  H    0.269019
    11  H    0.213837
    12  N    0.488869
    13  O   -0.457906
    14  O   -0.458511
    15  C   -0.172299
    16  C   -0.218523
    17  C   -0.169386
    18  C    0.158903
    19  C   -0.170827
    20  C   -0.221519
    21  H    0.224081
    22  H    0.224478
    23  H    0.277660
    24  H    0.280292
    25  H    0.215211
    26  N    0.487175
    27  O   -0.453157
    28  O   -0.460321
 Sum of Mulliken charges =  -0.00000

 Dipole moment (field-independent basis, Debye):
    X=              1.5296    Y=              9.6802    Z=              0.0944  Tot=              9.8008
 Quadrupole moment (field-independent basis, Debye-Ang):
   XX=           -104.4333   YY=           -110.7454   ZZ=           -100.9777
   XY=              0.3693   XZ=             -7.4985   YZ=              1.2143

 Normal termination of Gaussian 16 at Wed May  5 20:58:04 2021.
