 Gaussian 16, Revision A.03,
 Gaussian 16:  EM64L-G16RevA.03 25-Dec-2016

 -------------
 #p 6-31g* mp2
 -------------

 ------------------------------------------------------
 Input file generated by CHIRIPA (05-May-2021 14:55:19)
 ------------------------------------------------------
 Symbolic Z-matrix:
 Charge =  0 Multiplicity = 1

                         Standard orientation:
 ---------------------------------------------------------------------
 Center     Atomic      Atomic             Coordinates (Angstroms)
 Number     Number       Type             X           Y           Z
 ---------------------------------------------------------------------
      1          6           0        0.984187   -1.841801   -0.129930
      2          6           0        1.887149   -1.701290   -1.188909
      3          6           0        2.935755   -0.779984   -1.110368
      4          6           0        3.052197   -0.011976    0.047170
      5          6           0        2.168640   -0.128791    1.119071
      6          6           0        1.127561   -1.056487    1.018655
      7          1           0        0.172529   -2.559976   -0.199438
      8          1           0        1.778245   -2.309841   -2.082133
      9          1           0        3.648992   -0.650753   -1.915359
     10          1           0        2.302935    0.491895    1.996642
     11          1           0        0.427797   -1.163466    1.842628
     12          7           0        4.158324    0.966753    0.141896
     13          8           0        4.239184    1.631504    1.172529
     14          8           0        4.923503    1.050596   -0.816284
     15          6           0       -4.019180    0.878664    0.139728
     16          6           0       -3.447358    2.087872   -0.601097
     17          6           0       -4.149303    3.394577   -0.230169
     18          1           0       -5.092248    0.795477   -0.080613
     19          1           0       -3.934504    1.046974    1.222269
     20          1           0       -3.531825    1.916729   -1.681927
     21          1           0       -2.375486    2.168078   -0.379121
     22          1           0       -4.053674    3.592253    0.842389
     23          1           0       -5.216583    3.339477   -0.467819
     24          1           0       -3.724770    4.245977   -0.771233
     25          6           0       -3.327748   -0.435062   -0.220516
     26          6           0       -3.899570   -1.644270    0.520309
     27          6           0       -3.197624   -2.950976    0.149381
     28          1           0       -3.412423   -0.603372   -1.303057
     29          1           0       -2.254681   -0.351875   -0.000175
     30          1           0       -4.971441   -1.724476    0.298332
     31          1           0       -3.815102   -1.473128    1.601138
     32          1           0       -2.130344   -2.895875    0.387032
     33          1           0       -3.293254   -3.148651   -0.923177
     34          1           0       -3.622158   -3.802375    0.690444
 ---------------------------------------------------------------------

 SCF Done:  E(RHF) =  -669.535597549     A.U. after   15 cycles
 E2 =    -0.2091586365D+01 EUMP2 =    -0.67162718391398D+03

 The electronic state is 1-A.
 Alpha  occ. eigenvalues --  -20.60772 -20.60767 -15.85827 -11.31199 -11.27778
 Alpha  occ. eigenvalues --  -11.27766 -11.27490 -11.26797 -11.26765 -11.22476
 Alpha  occ. eigenvalues --  -11.22246 -11.22108 -11.21998 -11.21910 -11.21364
 Alpha  occ. eigenvalues --   -1.59848  -1.39401  -1.19373  -1.09093  -1.08763
 Alpha  occ. eigenvalues --   -1.04778  -1.04203  -0.96669  -0.95598  -0.87689
 Alpha  occ. eigenvalues --   -0.86174  -0.82433  -0.80277  -0.78861  -0.77478
 Alpha  occ. eigenvalues --   -0.72044  -0.71171  -0.70496  -0.65735  -0.65024
 Alpha  occ. eigenvalues --   -0.64777  -0.62128  -0.61603  -0.60051  -0.58266
 Alpha  occ. eigenvalues --   -0.56049  -0.55231  -0.53352  -0.53114  -0.53063
 Alpha  occ. eigenvalues --   -0.52868  -0.50622  -0.48805  -0.48799  -0.48577
 Alpha  occ. eigenvalues --   -0.47305  -0.46408  -0.46309  -0.44805  -0.44432
 Alpha  occ. eigenvalues --   -0.37333  -0.36381
 Alpha virt. eigenvalues --    0.05048   0.11182   0.16512   0.19329   0.22589
 Alpha virt. eigenvalues --    0.23890   0.25436   0.26157   0.26909   0.27687
 Alpha virt. eigenvalues --    0.28937   0.30459   0.31054   0.31362   0.32087

 Mulliken charges:
               1
     1  C   -0.174538
     2  C   -0.219744
     3  C   -0.170555
     4  C    0.158292
     5  C   -0.171051
     6  C   -0.221538
     7  H    0.234458
     8  H    0.224227
     9  H    0.275674
    10  H    0.275612
    11  H    0.223042
    12  N    0.488050
    13  O   -0.460498
    14  O   -0.460313
    15  C   -0.298518
    16  C   -0.300438
    17  C   -0.476127
    18  H    0.151149
    19  H    0.149353
    20  H    0.152505
    21  H    0.153711
    22  H    0.155631
    23  H    0.155443
    24  H    0.162698
    25  C   -0.301141
    26  C   -0.300055
    27  C   -0.478348
    28  H    0.150556
    29  H    0.147847
    30  H    0.156286
    31  H    0.151995
    32  H    0.143352
    33  H    0.157800
    34  H    0.165185
 Sum of Mulliken charges =  -0.00000

 Dipole moment (field-independent basis, Debye):
    X=             -4.0353    Y=             -3.3946    Z=             -0.3782  Tot=              5.2868
 Quadrupole moment (field-independent basis, Debye-Ang):
   XX=           -117.8388   YY=            -95.8849   ZZ=            -90.1949
   XY=            -10.5038   XZ=             -2.2619   YZ=              1.2551

 Normal termination of Gaussian 16 at Thu May  6 12:22:56 2021.
