 Gaussian 16, Revision A.03,
 Gaussian 16:  EM64L-G16RevA.03 25-Dec-2016

 -------------
 #p 6-31g* mp2
 -------------

 ------------------------------------------------------
 Input file generated by CHIRIPA (05-May-2021 14:53:14)
 ------------------------------------------------------
 Symbolic Z-matrix:
 Charge =  0 Multiplicity = 1

                         Standard orientation:
 ---------------------------------------------------------------------
 Center     Atomic      Atomic             Coordinates (Angstroms)
 Number     Number       Type             X           Y           Z
 ---------------------------------------------------------------------
      1          6           0       -2.959950   -0.463133    0.803101
      2          6           0       -2.847036   -1.945352    0.444964
      3          6           0       -2.482747   -2.817775    1.646615
      4          1           0       -2.006973   -0.122022    1.230210
      5          1           0       -3.717041   -0.339821    1.589868
      6          1           0       -2.091370   -2.065670   -0.341871
      7          1           0       -3.800331   -2.282926    0.018480
      8          1           0       -3.240061   -2.727328    2.432042
      9          1           0       -1.521391   -2.508837    2.069643
     10          1           0       -2.407267   -3.873510    1.368073
     11          6           0       -3.323575    0.421870   -0.387813
     12          6           0       -3.436489    1.904089   -0.029676
     13          6           0       -3.800778    2.776511   -1.231328
     14          1           0       -2.566484    0.298557   -1.174581
     15          1           0       -4.276552    0.080759   -0.814923
     16          1           0       -2.483194    2.241663    0.396807
     17          1           0       -4.192154    2.024407    0.757159
     18          1           0       -4.762134    2.467574   -1.654356
     19          1           0       -3.043464    2.686064   -2.016754
     20          1           0       -3.876258    3.832247   -0.952786
     21          6           0        3.531240    1.871766    1.165608
     22          6           0        4.319392    0.853206    0.619831
     23          6           0        3.733557   -0.179973   -0.117658
     24          6           0        2.350407   -0.163278   -0.290591
     25          6           0        1.538255    0.837474    0.240629
     26          6           0        2.145630    1.860668    0.974602
     27          1           0        3.994697    2.670486    1.737141
     28          1           0        5.395718    0.859258    0.766560
     29          1           0        4.319986   -0.980918   -0.551256
     30          1           0        0.467886    0.804396    0.077433
     31          1           0        1.531053    2.650394    1.397299
     32          7           0        1.718809   -1.251774   -1.069476
     33          8           0        0.498084   -1.214233   -1.207539
     34          8           0        2.456444   -2.121865   -1.527156
 ---------------------------------------------------------------------

 SCF Done:  E(RHF) =  -669.536295353     A.U. after   15 cycles
 E2 =    -0.2092166704D+01 EUMP2 =    -0.67162846205702D+03

 The electronic state is 1-A.
 Alpha  occ. eigenvalues --  -20.60998 -20.60985 -15.86029 -11.31317 -11.27876
 Alpha  occ. eigenvalues --  -11.27872 -11.27606 -11.26878 -11.26867 -11.21565
 Alpha  occ. eigenvalues --  -11.21011 -11.20974 -11.20911 -11.20613 -11.20349
 Alpha  occ. eigenvalues --   -1.60052  -1.39610  -1.19482  -1.08892  -1.07992
 Alpha  occ. eigenvalues --   -1.04874  -1.03071  -0.95740  -0.95553  -0.86578
 Alpha  occ. eigenvalues --   -0.86276  -0.82578  -0.79169  -0.77761  -0.77625
 Alpha  occ. eigenvalues --   -0.72263  -0.71365  -0.70592  -0.65150  -0.64907
 Alpha  occ. eigenvalues --   -0.64583  -0.62214  -0.60455  -0.58949  -0.57143
 Alpha  occ. eigenvalues --   -0.55380  -0.54845  -0.53206  -0.52963  -0.52270
 Alpha  occ. eigenvalues --   -0.51967  -0.49525  -0.49013  -0.49003  -0.47483
 Alpha  occ. eigenvalues --   -0.46210  -0.45351  -0.45196  -0.44904  -0.43335
 Alpha  occ. eigenvalues --   -0.37458  -0.36473
 Alpha virt. eigenvalues --    0.04867   0.11160   0.16368   0.19225   0.22779
 Alpha virt. eigenvalues --    0.24756   0.25728   0.27350   0.28014   0.28251
 Alpha virt. eigenvalues --    0.29598   0.31277   0.31829   0.32166   0.32458

 Mulliken charges:
               1
     1  C   -0.294711
     2  C   -0.310517
     3  C   -0.474146
     4  H    0.140153
     5  H    0.145846
     6  H    0.181838
     7  H    0.147729
     8  H    0.149681
     9  H    0.152298
    10  H    0.161502
    11  C   -0.304070
    12  C   -0.297305
    13  C   -0.475522
    14  H    0.161378
    15  H    0.150434
    16  H    0.139500
    17  H    0.151922
    18  H    0.157198
    19  H    0.156114
    20  H    0.157506
    21  C   -0.170358
    22  C   -0.218689
    23  C   -0.170219
    24  C    0.157443
    25  C   -0.175405
    26  C   -0.219429
    27  H    0.226208
    28  H    0.223950
    29  H    0.275857
    30  H    0.281383
    31  H    0.224371
    32  N    0.492690
    33  O   -0.466348
    34  O   -0.458279
 Sum of Mulliken charges =  -0.00000

 Dipole moment (field-independent basis, Debye):
    X=              2.3886    Y=              3.7033    Z=              2.5510  Tot=              5.0919
 Quadrupole moment (field-independent basis, Debye-Ang):
   XX=            -79.4961   YY=            -96.4121   ZZ=            -97.8008
   XY=              7.1697   XZ=              5.3288   YZ=             -0.2911

 Normal termination of Gaussian 16 at Thu May  6 05:49:26 2021.
