 Gaussian 16, Revision A.03,
 Gaussian 16:  EM64L-G16RevA.03 25-Dec-2016

 -------------
 #p 6-31g* mp2
 -------------

 ------------------------------------------------------
 Input file generated by CHIRIPA (05-May-2021 14:57:24)
 ------------------------------------------------------
 Symbolic Z-matrix:
 Charge =  0 Multiplicity = 1

                         Standard orientation:
 ---------------------------------------------------------------------
 Center     Atomic      Atomic             Coordinates (Angstroms)
 Number     Number       Type             X           Y           Z
 ---------------------------------------------------------------------
      1          6           0        0.876837   -2.176094   -0.183935
      2          6           0        0.903902   -1.420835    0.993084
      3          6           0        1.905159   -0.467808    1.202300
      4          6           0        2.867930   -0.295290    0.209022
      5          6           0        2.867896   -1.032246   -0.974272
      6          6           0        1.857192   -1.979735   -1.162131
      7          1           0        0.095368   -2.914277   -0.338164
      8          1           0        0.143839   -1.571191    1.754491
      9          1           0        1.949875    0.130589    2.104153
     10          1           0        3.639190   -0.859833   -1.715080
     11          1           0        1.838664   -2.564843   -2.077200
     12          7           0        3.932917    0.710706    0.419206
     13          8           0        4.769616    0.843672   -0.471239
     14          8           0        3.910789    1.347190    1.470412
     15          6           0       -1.312899    2.442380   -0.907436
     16          6           0       -0.964367    1.153748   -1.325136
     17          6           0       -1.721487    0.048622   -0.925117
     18          6           0       -2.825773    0.269546   -0.103513
     19          6           0       -3.198500    1.541158    0.329349
     20          6           0       -2.426888    2.631638   -0.082979
     21          1           0       -0.719121    3.295180   -1.222961
     22          1           0       -0.099747    1.003774   -1.965436
     23          1           0       -1.474146   -0.959833   -1.233755
     24          1           0       -4.065863    1.659121    0.967459
     25          1           0       -2.699919    3.631270    0.242957
     26          7           0       -3.634974   -0.892649    0.326486
     27          8           0       -4.603236   -0.671388    1.050466
     28          8           0       -3.285638   -2.002832   -0.068604
 ---------------------------------------------------------------------

 SCF Done:  E(RHF) =  -868.338034128     A.U. after   16 cycles
 E2 =    -0.2602969928D+01 EUMP2 =    -0.87094100405606D+03

 The electronic state is 1-A.
 Alpha  occ. eigenvalues --  -20.61487 -20.61438 -20.61254 -20.61244 -15.86501
 Alpha  occ. eigenvalues --  -15.86303 -11.31675 -11.31598 -11.28269 -11.28157
 Alpha  occ. eigenvalues --  -11.28149 -11.28136 -11.27820 -11.27791 -11.27259
 Alpha  occ. eigenvalues --  -11.27100 -11.27065 -11.27033  -1.60538  -1.60331
 Alpha  occ. eigenvalues --   -1.40102  -1.39882  -1.19860  -1.19734  -1.09222
 Alpha  occ. eigenvalues --   -1.09184  -1.05226  -1.05099  -0.96121  -0.95997
 Alpha  occ. eigenvalues --   -0.86622  -0.86502  -0.82911  -0.82862  -0.78008
 Alpha  occ. eigenvalues --   -0.77927  -0.72725  -0.72512  -0.71868  -0.71663
 Alpha  occ. eigenvalues --   -0.71023  -0.70707  -0.65460  -0.65400  -0.65190
 Alpha  occ. eigenvalues --   -0.65074  -0.62544  -0.62502  -0.55706  -0.55544
 Alpha  occ. eigenvalues --   -0.53968  -0.53274  -0.53194  -0.53037  -0.49500
 Alpha  occ. eigenvalues --   -0.49441  -0.49273  -0.49272  -0.45562  -0.45286
 Alpha  occ. eigenvalues --   -0.38105  -0.37607  -0.37134  -0.36142
 Alpha virt. eigenvalues --    0.04375   0.04661   0.10287   0.11482   0.15924
 Alpha virt. eigenvalues --    0.16075   0.20592   0.21586   0.26506   0.26986
 Alpha virt. eigenvalues --    0.27403   0.28772   0.30403   0.31169   0.32132

 Mulliken charges:
               1
     1  C   -0.186437
     2  C   -0.214393
     3  C   -0.170155
     4  C    0.156945
     5  C   -0.175546
     6  C   -0.224086
     7  H    0.241036
     8  H    0.231301
     9  H    0.276929
    10  H    0.275838
    11  H    0.225567
    12  N    0.487523
    13  O   -0.460704
    14  O   -0.459252
    15  C   -0.170328
    16  C   -0.218194
    17  C   -0.166955
    18  C    0.154070
    19  C   -0.171647
    20  C   -0.219120
    21  H    0.230025
    22  H    0.225915
    23  H    0.268342
    24  H    0.275814
    25  H    0.225627
    26  N    0.488292
    27  O   -0.456754
    28  O   -0.469649
 Sum of Mulliken charges =  -0.00000

 Dipole moment (field-independent basis, Debye):
    X=             -0.8685    Y=              0.6312    Z=             -2.1371  Tot=              2.3916
 Quadrupole moment (field-independent basis, Debye-Ang):
   XX=           -141.3703   YY=            -98.9387   ZZ=           -100.2153
   XY=            -22.8997   XZ=             -2.6761   YZ=              1.4067

 Normal termination of Gaussian 16 at Thu May  6 11:21:28 2021.
