 Gaussian 16, Revision A.03,
 Gaussian 16:  EM64L-G16RevA.03 25-Dec-2016

 -------------
 #p 6-31g* mp2
 -------------

 ------------------------------------------------------
 Input file generated by CHIRIPA (05-May-2021 14:55:21)
 ------------------------------------------------------
 Symbolic Z-matrix:
 Charge =  0 Multiplicity = 1

                         Standard orientation:
 ---------------------------------------------------------------------
 Center     Atomic      Atomic             Coordinates (Angstroms)
 Number     Number       Type             X           Y           Z
 ---------------------------------------------------------------------
      1          6           0       -1.365854    2.254081    0.315449
      2          6           0       -2.732539    2.406971    0.571022
      3          6           0       -3.625068    1.363443    0.308363
      4          6           0       -3.114268    0.175360   -0.212051
      5          6           0       -1.758011   -0.007545   -0.477389
      6          6           0       -0.883802    1.049435   -0.207020
      7          1           0       -0.679632    3.069943    0.522483
      8          1           0       -3.109730    3.341393    0.976766
      9          1           0       -4.687879    1.454825    0.496775
     10          1           0       -1.411753   -0.950850   -0.881986
     11          1           0        0.177084    0.927870   -0.406492
     12          7           0       -4.049451   -0.936497   -0.494197
     13          8           0       -3.574324   -1.973215   -0.952572
     14          8           0       -5.239867   -0.750199   -0.251627
     15          6           0        4.372261    0.031489    0.263041
     16          6           0        5.307424   -0.010269   -0.945973
     17          6           0        6.469388    0.976610   -0.828922
     18          1           0        3.979207    1.050747    0.379522
     19          1           0        4.949650   -0.186647    1.172124
     20          1           0        4.728175    0.206518   -1.852665
     21          1           0        5.698148   -1.029590   -1.059703
     22          1           0        7.071857    0.758807    0.058882
     23          1           0        6.096373    2.001940   -0.738586
     24          1           0        7.125320    0.930072   -1.703822
     25          6           0        3.205693   -0.949524    0.160767
     26          6           0        2.270530   -0.907765    1.369780
     27          6           0        1.108566   -1.894644    1.252729
     28          1           0        2.628304   -0.731387   -0.748316
     29          1           0        3.598747   -1.968780    0.044286
     30          1           0        1.879805    0.111557    1.483510
     31          1           0        2.849779   -1.124552    2.276473
     32          1           0        1.481581   -2.919973    1.162393
     33          1           0        0.506097   -1.676841    0.364926
     34          1           0        0.452634   -1.848106    2.127628
 ---------------------------------------------------------------------

 SCF Done:  E(RHF) =  -669.534423192     A.U. after   15 cycles
 E2 =    -0.2092881332D+01 EUMP2 =    -0.67162730452424D+03

 The electronic state is 1-A.
 Alpha  occ. eigenvalues --  -20.60749 -20.60743 -15.85803 -11.31176 -11.27752
 Alpha  occ. eigenvalues --  -11.27744 -11.27503 -11.26769 -11.26752 -11.22346
 Alpha  occ. eigenvalues --  -11.22179 -11.22160 -11.22058 -11.21670 -11.21567
 Alpha  occ. eigenvalues --   -1.59824  -1.39377  -1.19359  -1.09137  -1.08748
 Alpha  occ. eigenvalues --   -1.04784  -1.04158  -0.96609  -0.95583  -0.87622
 Alpha  occ. eigenvalues --   -0.86162  -0.82423  -0.80230  -0.78943  -0.77471
 Alpha  occ. eigenvalues --   -0.72022  -0.71147  -0.70483  -0.65861  -0.65015
 Alpha  occ. eigenvalues --   -0.64746  -0.62346  -0.61356  -0.59962  -0.58206
 Alpha  occ. eigenvalues --   -0.55937  -0.55249  -0.53294  -0.53097  -0.53003
 Alpha  occ. eigenvalues --   -0.52828  -0.50539  -0.48784  -0.48776  -0.48525
 Alpha  occ. eigenvalues --   -0.47285  -0.46467  -0.46429  -0.44780  -0.44427
 Alpha  occ. eigenvalues --   -0.37338  -0.36325
 Alpha virt. eigenvalues --    0.05059   0.11216   0.16456   0.18933   0.22680
 Alpha virt. eigenvalues --    0.23887   0.25404   0.25693   0.26980   0.28580
 Alpha virt. eigenvalues --    0.28722   0.30654   0.31124   0.31356   0.32089

 Mulliken charges:
               1
     1  C   -0.172372
     2  C   -0.218493
     3  C   -0.171075
     4  C    0.157985
     5  C   -0.172139
     6  C   -0.218830
     7  H    0.225514
     8  H    0.223400
     9  H    0.275611
    10  H    0.276828
    11  H    0.227855
    12  N    0.488242
    13  O   -0.460176
    14  O   -0.460557
    15  C   -0.297588
    16  C   -0.300045
    17  C   -0.475922
    18  H    0.145008
    19  H    0.152515
    20  H    0.151233
    21  H    0.154465
    22  H    0.156494
    23  H    0.154126
    24  H    0.162301
    25  C   -0.300257
    26  C   -0.303409
    27  C   -0.474182
    28  H    0.143031
    29  H    0.155084
    30  H    0.145440
    31  H    0.156917
    32  H    0.160174
    33  H    0.146706
    34  H    0.166116
 Sum of Mulliken charges =  -0.00000

 Dipole moment (field-independent basis, Debye):
    X=              3.4107    Y=              3.8246    Z=              1.0704  Tot=              5.2351
 Quadrupole moment (field-independent basis, Debye-Ang):
   XX=           -112.4345   YY=            -91.9528   ZZ=            -95.1255
   XY=            -15.4333   XZ=             -4.8567   YZ=             -0.0437

 Normal termination of Gaussian 16 at Thu May  6 10:53:53 2021.
