 Gaussian 16, Revision A.03,
 Gaussian 16:  EM64L-G16RevA.03 25-Dec-2016

 -------------
 #p 6-31g* mp2
 -------------

 ------------------------------------------------------
 Input file generated by CHIRIPA (05-May-2021 14:55:22)
 ------------------------------------------------------
 Symbolic Z-matrix:
 Charge =  0 Multiplicity = 1

                         Standard orientation:
 ---------------------------------------------------------------------
 Center     Atomic      Atomic             Coordinates (Angstroms)
 Number     Number       Type             X           Y           Z
 ---------------------------------------------------------------------
      1          6           0        6.173901   -0.778842   -0.154199
      2          6           0        5.081637   -1.641976   -0.290142
      3          6           0        3.776065   -1.142053   -0.279864
      4          6           0        3.598483    0.232580   -0.131076
      5          6           0        4.666260    1.118134    0.006531
      6          6           0        5.963098    0.596035   -0.006557
      7          1           0        7.184709   -1.175808   -0.163275
      8          1           0        5.242349   -2.710168   -0.404959
      9          1           0        2.912407   -1.787681   -0.383197
     10          1           0        4.474434    2.178273    0.119340
     11          1           0        6.809471    1.268723    0.099218
     12          7           0        2.220955    0.773565   -0.118708
     13          8           0        2.091202    1.988576    0.013764
     14          8           0        1.297086   -0.027666   -0.241720
     15          6           0       -4.318864   -0.013780    0.640230
     16          6           0       -3.052567   -0.824256    0.361653
     17          6           0       -1.905533   -0.473269    1.309764
     18          1           0       -4.087022    1.056859    0.557002
     19          1           0       -4.634646   -0.185415    1.678602
     20          1           0       -2.740053   -0.652222   -0.676304
     21          1           0       -3.287496   -1.893095    0.445365
     22          1           0       -2.193291   -0.662107    2.349060
     23          1           0       -1.642737    0.585817    1.221019
     24          1           0       -1.010261   -1.064294    1.092878
     25          6           0       -5.474457   -0.353375   -0.299456
     26          6           0       -6.740754    0.457101   -0.020880
     27          6           0       -7.887789    0.106115   -0.968991
     28          1           0       -5.158676   -0.181740   -1.337830
     29          1           0       -5.706300   -1.424013   -0.216230
     30          1           0       -6.505825    1.525941   -0.104591
     31          1           0       -7.053269    0.285068    1.017077
     32          1           0       -8.150584   -0.952971   -0.880245
     33          1           0       -7.600029    0.294951   -2.008288
     34          1           0       -8.783060    0.697139   -0.752106
 ---------------------------------------------------------------------

 SCF Done:  E(RHF) =  -669.535782655     A.U. after   15 cycles
 E2 =    -0.2090816198D+01 EUMP2 =    -0.67162659885320D+03

 The electronic state is 1-A.
 Alpha  occ. eigenvalues --  -20.60897 -20.60890 -15.85933 -11.31273 -11.27840
 Alpha  occ. eigenvalues --  -11.27835 -11.27579 -11.26851 -11.26841 -11.20941
 Alpha  occ. eigenvalues --  -11.20581 -11.20527 -11.20378 -11.20310 -11.19367
 Alpha  occ. eigenvalues --   -1.59959  -1.39516  -1.19443  -1.08844  -1.07496
 Alpha  occ. eigenvalues --   -1.04843  -1.02511  -0.95687  -0.94939  -0.86243
 Alpha  occ. eigenvalues --   -0.85958  -0.82518  -0.78618  -0.77569  -0.77279
 Alpha  occ. eigenvalues --   -0.72162  -0.71276  -0.70553  -0.65100  -0.64847
 Alpha  occ. eigenvalues --   -0.64132  -0.62191  -0.59907  -0.58367  -0.56537
 Alpha  occ. eigenvalues --   -0.55347  -0.54234  -0.53174  -0.52936  -0.51611
 Alpha  occ. eigenvalues --   -0.51376  -0.49065  -0.48910  -0.48722  -0.46915
 Alpha  occ. eigenvalues --   -0.45668  -0.44928  -0.44817  -0.44717  -0.42739
 Alpha  occ. eigenvalues --   -0.37422  -0.36445
 Alpha virt. eigenvalues --    0.04952   0.11210   0.16435   0.21328   0.23743
 Alpha virt. eigenvalues --    0.25378   0.27248   0.27543   0.28115   0.28393
 Alpha virt. eigenvalues --    0.29152   0.30877   0.32278   0.32407   0.32621

 Mulliken charges:
               1
     1  C   -0.170677
     2  C   -0.218507
     3  C   -0.170715
     4  C    0.157985
     5  C   -0.170718
     6  C   -0.218547
     7  H    0.225905
     8  H    0.223742
     9  H    0.275340
    10  H    0.275812
    11  H    0.223737
    12  N    0.491043
    13  O   -0.459753
    14  O   -0.461749
    15  C   -0.297830
    16  C   -0.300094
    17  C   -0.474009
    18  H    0.150962
    19  H    0.146278
    20  H    0.155226
    21  H    0.144741
    22  H    0.142834
    23  H    0.163981
    24  H    0.170987
    25  C   -0.297505
    26  C   -0.299006
    27  C   -0.475185
    28  H    0.149225
    29  H    0.147152
    30  H    0.151978
    31  H    0.150535
    32  H    0.153830
    33  H    0.154660
    34  H    0.158342
 Sum of Mulliken charges =  -0.00000

 Dipole moment (field-independent basis, Debye):
    X=              5.2002    Y=             -1.8381    Z=             -0.1003  Tot=              5.5164
 Quadrupole moment (field-independent basis, Debye-Ang):
   XX=            -61.8031   YY=            -91.0211   ZZ=            -95.8131
   XY=             -4.0647   XZ=             -1.1280   YZ=              0.4125

 Normal termination of Gaussian 16 at Thu May  6 19:12:42 2021.
