 Gaussian 16, Revision A.03,
 Gaussian 16:  EM64L-G16RevA.03 25-Dec-2016

 -------------
 #p 6-31g* mp2
 -------------

 ------------------------------------------------------
 Input file generated by CHIRIPA (05-May-2021 14:53:17)
 ------------------------------------------------------
 Symbolic Z-matrix:
 Charge =  0 Multiplicity = 1

                         Standard orientation:
 ---------------------------------------------------------------------
 Center     Atomic      Atomic             Coordinates (Angstroms)
 Number     Number       Type             X           Y           Z
 ---------------------------------------------------------------------
      1          6           0       -3.862372   -0.232427   -0.402870
      2          6           0       -5.151829   -0.127338    0.412140
      3          6           0       -6.230850    0.695806   -0.292092
      4          1           0       -3.480984    0.777690   -0.605726
      5          1           0       -4.089553   -0.682658   -1.379127
      6          1           0       -4.922049    0.321290    1.387102
      7          1           0       -5.530089   -1.137829    0.613243
      8          1           0       -6.488858    0.247606   -1.257053
      9          1           0       -5.877364    1.715016   -0.478797
     10          1           0       -7.143973    0.758017    0.308071
     11          6           0       -2.774151   -1.052313    0.287992
     12          6           0       -1.484694   -1.157403   -0.527019
     13          6           0       -0.405673   -1.980546    0.177213
     14          1           0       -2.546970   -0.602083    1.264248
     15          1           0       -3.155539   -2.062431    0.490847
     16          1           0       -1.106435   -0.146911   -0.728121
     17          1           0       -1.714475   -1.606031   -1.501980
     18          1           0       -0.759160   -2.999757    0.363918
     19          1           0       -0.147665   -1.532347    1.142174
     20          1           0        0.507450   -2.042758   -0.422950
     21          6           0        4.597380   -1.001238   -0.249517
     22          6           0        4.028554   -0.367637   -1.359249
     23          6           0        2.917495    0.467349   -1.207937
     24          6           0        2.398557    0.647165    0.073336
     25          6           0        2.942873    0.029885    1.198491
     26          6           0        4.053683   -0.800808    1.023567
     27          1           0        5.460380   -1.648209   -0.376231
     28          1           0        4.448691   -0.521455   -2.349133
     29          1           0        2.457346    0.970209   -2.049848
     30          1           0        2.501878    0.202591    2.172716
     31          1           0        4.493368   -1.291578    1.887204
     32          7           0        1.222461    1.528856    0.246021
     33          8           0        0.784003    1.670919    1.385411
     34          8           0        0.761364    2.061166   -0.761289
 ---------------------------------------------------------------------

 SCF Done:  E(RHF) =  -669.536214028     A.U. after   15 cycles
 E2 =    -0.2093318053D+01 EUMP2 =    -0.67162953208050D+03

 The electronic state is 1-A.
 Alpha  occ. eigenvalues --  -20.60982 -20.60971 -15.85981 -11.31251 -11.27825
 Alpha  occ. eigenvalues --  -11.27812 -11.27560 -11.26834 -11.26816 -11.20912
 Alpha  occ. eigenvalues --  -11.20872 -11.20650 -11.20626 -11.20553 -11.20450
 Alpha  occ. eigenvalues --   -1.60030  -1.39587  -1.19431  -1.08845  -1.07700
 Alpha  occ. eigenvalues --   -1.04823  -1.02899  -0.95695  -0.95369  -0.86390
 Alpha  occ. eigenvalues --   -0.86222  -0.82532  -0.78953  -0.77591  -0.77502
 Alpha  occ. eigenvalues --   -0.72215  -0.71375  -0.70545  -0.65089  -0.64829
 Alpha  occ. eigenvalues --   -0.64298  -0.62174  -0.60274  -0.58751  -0.56984
 Alpha  occ. eigenvalues --   -0.55335  -0.54664  -0.53209  -0.52917  -0.52024
 Alpha  occ. eigenvalues --   -0.51787  -0.49321  -0.48982  -0.48964  -0.47275
 Alpha  occ. eigenvalues --   -0.46055  -0.45176  -0.45037  -0.44649  -0.43121
 Alpha  occ. eigenvalues --   -0.37376  -0.36412
 Alpha virt. eigenvalues --    0.04893   0.11189   0.16390   0.21314   0.23507
 Alpha virt. eigenvalues --    0.24676   0.27106   0.27388   0.28212   0.28319
 Alpha virt. eigenvalues --    0.28493   0.30831   0.31635   0.32050   0.32548

 Mulliken charges:
               1
     1  C   -0.299963
     2  C   -0.299499
     3  C   -0.475627
     4  H    0.158983
     5  H    0.145887
     6  H    0.153662
     7  H    0.148733
     8  H    0.153212
     9  H    0.157363
    10  H    0.158047
    11  C   -0.297688
    12  C   -0.308196
    13  C   -0.483080
    14  H    0.155597
    15  H    0.144617
    16  H    0.167028
    17  H    0.147899
    18  H    0.152743
    19  H    0.156630
    20  H    0.156733
    21  C   -0.170556
    22  C   -0.218842
    23  C   -0.172103
    24  C    0.161998
    25  C   -0.169716
    26  C   -0.218401
    27  H    0.225975
    28  H    0.223811
    29  H    0.275943
    30  H    0.275353
    31  H    0.223851
    32  N    0.488227
    33  O   -0.459495
    34  O   -0.459127
 Sum of Mulliken charges =  -0.00000

 Dipole moment (field-independent basis, Debye):
    X=              4.2880    Y=             -2.9220    Z=             -0.5734  Tot=              5.2205
 Quadrupole moment (field-independent basis, Debye-Ang):
   XX=            -76.5159   YY=            -99.3222   ZZ=            -89.9608
   XY=             -4.5604   XZ=             -1.3670   YZ=             -1.1022

 Normal termination of Gaussian 16 at Thu May  6 20:30:01 2021.
