 Gaussian 16, Revision A.03,
 Gaussian 16:  EM64L-G16RevA.03 25-Dec-2016

 -------------
 #p 6-31g* mp2
 -------------

 ------------------------------------------------------
 Input file generated by CHIRIPA (05-May-2021 14:57:24)
 ------------------------------------------------------
 Symbolic Z-matrix:
 Charge =  0 Multiplicity = 1

                         Standard orientation:
 ---------------------------------------------------------------------
 Center     Atomic      Atomic             Coordinates (Angstroms)
 Number     Number       Type             X           Y           Z
 ---------------------------------------------------------------------
      1          6           0        3.302580    2.684087    0.076532
      2          6           0        4.587098    2.138060   -0.015070
      3          6           0        4.765388    0.754749   -0.111035
      4          6           0        3.631903   -0.056731   -0.112549
      5          6           0        2.339172    0.457128   -0.022632
      6          6           0        2.184688    1.843360    0.072466
      7          1           0        3.173327    3.759811    0.150743
      8          1           0        5.457090    2.788560   -0.012147
      9          1           0        5.748405    0.305421   -0.183140
     10          1           0        1.491121   -0.216814   -0.028018
     11          1           0        1.185918    2.264622    0.143481
     12          7           0        3.808049   -1.522727   -0.213684
     13          8           0        2.793238   -2.216121   -0.212930
     14          8           0        4.957589   -1.950623   -0.291793
     15          6           0       -5.332522    1.566337   -0.458611
     16          6           0       -4.140529    1.935267    0.173500
     17          6           0       -3.175099    0.973412    0.485475
     18          6           0       -3.435656   -0.354184    0.149487
     19          6           0       -4.613454   -0.753100   -0.480550
     20          6           0       -5.564771    0.225694   -0.783047
     21          1           0       -6.077010    2.320109   -0.697279
     22          1           0       -3.957466    2.975677    0.426640
     23          1           0       -2.243639    1.231371    0.974614
     24          1           0       -4.767521   -1.798146   -0.720472
     25          1           0       -6.489581   -0.063721   -1.273975
     26          7           0       -2.421068   -1.381423    0.474744
     27          8           0       -2.674612   -2.544357    0.168252
     28          8           0       -1.391502   -1.004189    1.030013
 ---------------------------------------------------------------------

 SCF Done:  E(RHF) =  -868.337563635     A.U. after   16 cycles
 E2 =    -0.2599394459D+01 EUMP2 =    -0.87093695809378D+03

 The electronic state is 1-A.
 Alpha  occ. eigenvalues --  -20.61155 -20.61082 -20.59981 -20.59924 -15.86165
 Alpha  occ. eigenvalues --  -15.85011 -11.31575 -11.30499 -11.28208 -11.28097
 Alpha  occ. eigenvalues --  -11.27870 -11.27196 -11.27172 -11.27122 -11.26992
 Alpha  occ. eigenvalues --  -11.26983 -11.26222 -11.26198  -1.60171  -1.59036
 Alpha  occ. eigenvalues --   -1.39732  -1.38579  -1.19743  -1.18725  -1.09122
 Alpha  occ. eigenvalues --   -1.08118  -1.05158  -1.04144  -0.95953  -0.94911
 Alpha  occ. eigenvalues --   -0.86552  -0.85546  -0.82791  -0.81737  -0.77842
 Alpha  occ. eigenvalues --   -0.76736  -0.72376  -0.71493  -0.71224  -0.70851
 Alpha  occ. eigenvalues --   -0.70368  -0.69839  -0.65398  -0.65159  -0.64381
 Alpha  occ. eigenvalues --   -0.64175  -0.62514  -0.61461  -0.55640  -0.54697
 Alpha  occ. eigenvalues --   -0.53475  -0.53253  -0.52485  -0.52242  -0.49134
 Alpha  occ. eigenvalues --   -0.49111  -0.48017  -0.47960  -0.45122  -0.43957
 Alpha  occ. eigenvalues --   -0.37712  -0.36763  -0.36761  -0.35755
 Alpha virt. eigenvalues --    0.04672   0.05789   0.10888   0.11889   0.16136
 Alpha virt. eigenvalues --    0.17218   0.20505   0.21991   0.25823   0.27309
 Alpha virt. eigenvalues --    0.28607   0.29040   0.30740   0.31288   0.32985

 Mulliken charges:
               1
     1  C   -0.171055
     2  C   -0.219607
     3  C   -0.170814
     4  C    0.156807
     5  C   -0.174591
     6  C   -0.219796
     7  H    0.221187
     8  H    0.220626
     9  H    0.274131
    10  H    0.294088
    11  H    0.215964
    12  N    0.486871
    13  O   -0.451740
    14  O   -0.465075
    15  C   -0.170665
    16  C   -0.217958
    17  C   -0.172333
    18  C    0.159476
    19  C   -0.170129
    20  C   -0.218104
    21  H    0.226633
    22  H    0.222084
    23  H    0.269244
    24  H    0.278023
    25  H    0.225322
    26  N    0.489691
    27  O   -0.451839
    28  O   -0.466440
 Sum of Mulliken charges =  -0.00000

 Dipole moment (field-independent basis, Debye):
    X=             -4.5664    Y=              8.4741    Z=             -0.8227  Tot=              9.6612
 Quadrupole moment (field-independent basis, Debye-Ang):
   XX=            -78.6031   YY=           -106.4492   ZZ=           -106.1402
   XY=             10.5847   XZ=              6.2610   YZ=              1.9144

 Normal termination of Gaussian 16 at Thu May  6 00:17:17 2021.
