 Gaussian 16, Revision A.03,
 Gaussian 16:  EM64L-G16RevA.03 25-Dec-2016

 -------------
 #p 6-31g* mp2
 -------------

 ------------------------------------------------------
 Input file generated by CHIRIPA (05-May-2021 14:57:22)
 ------------------------------------------------------
 Symbolic Z-matrix:
 Charge =  0 Multiplicity = 1

                         Standard orientation:
 ---------------------------------------------------------------------
 Center     Atomic      Atomic             Coordinates (Angstroms)
 Number     Number       Type             X           Y           Z
 ---------------------------------------------------------------------
      1          6           0       -2.597882    1.829553   -1.112409
      2          6           0       -3.951495    2.087804   -0.872495
      3          6           0       -4.784512    1.089620   -0.358434
      4          6           0       -4.228177   -0.161050   -0.094606
      5          6           0       -2.883503   -0.449152   -0.322943
      6          6           0       -2.069138    0.564130   -0.837352
      7          1           0       -1.958019    2.610831   -1.511880
      8          1           0       -4.364856    3.069614   -1.085163
      9          1           0       -5.835932    1.262372   -0.163263
     10          1           0       -2.500227   -1.437713   -0.100987
     11          1           0       -1.018271    0.360721   -1.022684
     12          7           0       -5.100182   -1.225774    0.449792
     13          8           0       -4.585750   -2.319305    0.673818
     14          8           0       -6.281581   -0.946614    0.642158
     15          6           0        2.101137    1.176928    1.190818
     16          6           0        1.923092   -0.041699    0.527667
     17          6           0        3.014806   -0.710613   -0.033817
     18          6           0        4.276201   -0.129606    0.087026
     19          6           0        4.485831    1.083184    0.741614
     20          6           0        3.379684    1.734497    1.295491
     21          1           0        1.247462    1.689720    1.624037
     22          1           0        0.931309   -0.477072    0.444846
     23          1           0        2.905417   -1.655232   -0.552611
     24          1           0        5.486626    1.492346    0.808040
     25          1           0        3.520937    2.680774    1.809935
     26          7           0        5.439589   -0.828438   -0.503366
     27          8           0        6.540633   -0.295599   -0.383282
     28          8           0        5.228378   -1.895789   -1.075020
 ---------------------------------------------------------------------

 SCF Done:  E(RHF) =  -868.337023736     A.U. after   16 cycles
 E2 =    -0.2599655689D+01 EUMP2 =    -0.87093667942494D+03

 The electronic state is 1-A.
 Alpha  occ. eigenvalues --  -20.61338 -20.61330 -20.61232 -20.61227 -15.86397
 Alpha  occ. eigenvalues --  -15.86293 -11.31893 -11.31786 -11.28540 -11.28454
 Alpha  occ. eigenvalues --  -11.28421 -11.28370 -11.28251 -11.28180 -11.27586
 Alpha  occ. eigenvalues --  -11.27507 -11.27473 -11.27385  -1.60410  -1.60306
 Alpha  occ. eigenvalues --   -1.39960  -1.39855  -1.20088  -1.19992  -1.09453
 Alpha  occ. eigenvalues --   -1.09362  -1.05528  -1.05418  -0.96263  -0.96168
 Alpha  occ. eigenvalues --   -0.86932  -0.86792  -0.83112  -0.82996  -0.78155
 Alpha  occ. eigenvalues --   -0.78004  -0.72610  -0.72507  -0.71737  -0.71632
 Alpha  occ. eigenvalues --   -0.71182  -0.71087  -0.65751  -0.65715  -0.65638
 Alpha  occ. eigenvalues --   -0.65287  -0.62968  -0.62651  -0.56006  -0.55903
 Alpha  occ. eigenvalues --   -0.53849  -0.53785  -0.53673  -0.53385  -0.49381
 Alpha  occ. eigenvalues --   -0.49359  -0.49276  -0.49253  -0.45337  -0.45232
 Alpha  occ. eigenvalues --   -0.38075  -0.37976  -0.37137  -0.37025
 Alpha virt. eigenvalues --    0.04414   0.04528   0.10391   0.10599   0.15796
 Alpha virt. eigenvalues --    0.15943   0.18953   0.21751   0.24778   0.27350
 Alpha virt. eigenvalues --    0.27808   0.28375   0.29863   0.31326   0.31790

 Mulliken charges:
               1
     1  C   -0.171913
     2  C   -0.218399
     3  C   -0.169803
     4  C    0.159156
     5  C   -0.171865
     6  C   -0.225510
     7  H    0.227505
     8  H    0.225848
     9  H    0.278018
    10  H    0.274311
    11  H    0.221501
    12  N    0.488044
    13  O   -0.459543
    14  O   -0.458203
    15  C   -0.172352
    16  C   -0.223852
    17  C   -0.170078
    18  C    0.158815
    19  C   -0.169523
    20  C   -0.218691
    21  H    0.227045
    22  H    0.218864
    23  H    0.277273
    24  H    0.277752
    25  H    0.225292
    26  N    0.488029
    27  O   -0.458761
    28  O   -0.458960
 Sum of Mulliken charges =  -0.00000

 Dipole moment (field-independent basis, Debye):
    X=             -1.0296    Y=              6.2887    Z=              0.1813  Tot=              6.3750
 Quadrupole moment (field-independent basis, Debye-Ang):
   XX=           -159.8848   YY=           -102.4365   ZZ=           -105.0835
   XY=             -5.7224   XZ=             17.7541   YZ=              1.2050

 Normal termination of Gaussian 16 at Wed May  5 19:19:33 2021.
