 Gaussian 16, Revision A.03,
 Gaussian 16:  EM64L-G16RevA.03 25-Dec-2016

 -------------
 #p 6-31g* mp2
 -------------

 ------------------------------------------------------
 Input file generated by CHIRIPA (05-May-2021 14:51:10)
 ------------------------------------------------------
 Symbolic Z-matrix:
 Charge =  0 Multiplicity = 1

                         Standard orientation:
 ---------------------------------------------------------------------
 Center     Atomic      Atomic             Coordinates (Angstroms)
 Number     Number       Type             X           Y           Z
 ---------------------------------------------------------------------
      1          6           0        2.295907   -0.870794   -0.157813
      2          6           0        2.038905   -2.369147    0.006113
      3          6           0        0.578063   -2.748585   -0.238351
      4          1           0        1.650358   -0.316339    0.537019
      5          1           0        2.000999   -0.563950   -1.170863
      6          1           0        2.335503   -2.673344    1.018096
      7          1           0        2.685279   -2.920108   -0.689055
      8          1           0        0.273087   -2.473012   -1.253068
      9          1           0       -0.078677   -2.224847    0.463783
     10          1           0        0.416753   -3.824156   -0.115931
     11          6           0        3.751793   -0.475900    0.083401
     12          6           0        4.008796    1.022453   -0.080525
     13          6           0        5.469638    1.401891    0.163939
     14          1           0        4.046701   -0.782744    1.096451
     15          1           0        4.397342   -1.030355   -0.611431
     16          1           0        3.362422    1.573414    0.614643
     17          1           0        3.712198    1.326650   -1.092508
     18          1           0        6.126377    0.878152   -0.538195
     19          1           0        5.774614    1.126318    1.178656
     20          1           0        5.630948    2.477462    0.041519
     21          6           0       -2.480277    1.184828    0.199524
     22          6           0       -2.806565    2.594228   -0.295563
     23          6           0       -1.709624    3.606223    0.036675
     24          1           0       -2.321766    1.212359    1.286290
     25          1           0       -1.530918    0.857630   -0.246630
     26          1           0       -3.755724    2.918128    0.150311
     27          1           0       -2.964506    2.563304   -1.381249
     28          1           0       -0.760426    3.309730   -0.421273
     29          1           0       -1.556140    3.666571    1.118988
     30          1           0       -1.963432    4.607062   -0.326315
     31          6           0       -3.567424    0.161866   -0.125112
     32          6           0       -3.241135   -1.247534    0.369975
     33          6           0       -4.338076   -2.259528    0.037738
     34          1           0       -4.516783    0.489064    0.321042
     35          1           0       -3.725934    0.134333   -1.211878
     36          1           0       -3.083195   -1.216611    1.455660
     37          1           0       -2.291976   -1.571434   -0.075898
     38          1           0       -4.491561   -2.319877   -1.044576
     39          1           0       -5.287275   -1.963037    0.495685
     40          1           0       -4.084269   -3.260369    0.400727
 ---------------------------------------------------------------------

 SCF Done:  E(RHF) =  -470.733172483     A.U. after   11 cycles
 E2 =    -0.1582963229D+01 EUMP2 =    -0.47231613571186D+03

 The electronic state is 1-A.
 Alpha  occ. eigenvalues --  -11.21621 -11.21610 -11.21577 -11.21483 -11.21425
 Alpha  occ. eigenvalues --  -11.21365 -11.21361 -11.21299 -11.21077 -11.21075
 Alpha  occ. eigenvalues --  -11.21050 -11.21004  -1.08450  -1.08381  -1.03554
 Alpha  occ. eigenvalues --   -1.03472  -0.96003  -0.95929  -0.87034  -0.86935
 Alpha  occ. eigenvalues --   -0.79683  -0.79488  -0.78306  -0.78151  -0.65089
 Alpha  occ. eigenvalues --   -0.65005  -0.60975  -0.60857  -0.59367  -0.59305
 Alpha  occ. eigenvalues --   -0.57640  -0.57514  -0.55298  -0.55211  -0.52694
 Alpha  occ. eigenvalues --   -0.52639  -0.52480  -0.52313  -0.49986  -0.49843
 Alpha  occ. eigenvalues --   -0.48116  -0.47730  -0.46701  -0.46500  -0.45992
 Alpha  occ. eigenvalues --   -0.45750  -0.45696  -0.45358  -0.43802  -0.43732
 Alpha virt. eigenvalues --    0.21771   0.23105   0.23849   0.24341   0.25785
 Alpha virt. eigenvalues --    0.26599   0.27019   0.27597   0.27990   0.29602
 Alpha virt. eigenvalues --    0.30855   0.31192   0.31673   0.31887   0.32023

 Mulliken charges:
               1
     1  C   -0.299334
     2  C   -0.299710
     3  C   -0.480474
     4  H    0.150937
     5  H    0.148848
     6  H    0.152106
     7  H    0.151885
     8  H    0.154160
     9  H    0.161172
    10  H    0.160533
    11  C   -0.298240
    12  C   -0.299784
    13  C   -0.475719
    14  H    0.149678
    15  H    0.149695
    16  H    0.152350
    17  H    0.151683
    18  H    0.155140
    19  H    0.155236
    20  H    0.160382
    21  C   -0.299848
    22  C   -0.299469
    23  C   -0.475856
    24  H    0.148878
    25  H    0.150997
    26  H    0.151890
    27  H    0.151887
    28  H    0.155626
    29  H    0.154828
    30  H    0.160135
    31  C   -0.297491
    32  C   -0.308433
    33  C   -0.475064
    34  H    0.149138
    35  H    0.149304
    36  H    0.150291
    37  H    0.162939
    38  H    0.154847
    39  H    0.154653
    40  H    0.160207
 Sum of Mulliken charges =  -0.00000

 Dipole moment (field-independent basis, Debye):
    X=              0.0320    Y=             -0.0182    Z=              0.0007  Tot=              0.0368
 Quadrupole moment (field-independent basis, Debye-Ang):
   XX=            -86.2359   YY=            -85.6400   ZZ=            -83.0429
   XY=             -1.1412   XZ=             -0.8222   YZ=              0.1089

 Normal termination of Gaussian 16 at Thu May  6 00:37:10 2021.
