 Gaussian 16, Revision A.03,
 Gaussian 16:  EM64L-G16RevA.03 25-Dec-2016

 -------------
 #p 6-31g* mp2
 -------------

 ------------------------------------------------------
 Input file generated by CHIRIPA (05-May-2021 14:53:12)
 ------------------------------------------------------
 Symbolic Z-matrix:
 Charge =  0 Multiplicity = 1

                         Standard orientation:
 ---------------------------------------------------------------------
 Center     Atomic      Atomic             Coordinates (Angstroms)
 Number     Number       Type             X           Y           Z
 ---------------------------------------------------------------------
      1          6           0        4.021746   -0.883143    0.473964
      2          6           0        2.822273   -0.535807    1.356352
      3          6           0        2.241964   -1.755911    2.072160
      4          1           0        3.718033   -1.634891   -0.267372
      5          1           0        4.800017   -1.350954    1.092706
      6          1           0        2.047048   -0.067532    0.736384
      7          1           0        3.128827    0.215342    2.095551
      8          1           0        2.997001   -2.221204    2.714050
      9          1           0        1.909075   -2.505685    1.347161
     10          1           0        1.385532   -1.484862    2.697394
     11          6           0        4.612920    0.326249   -0.248262
     12          6           0        5.812393   -0.021088   -1.130650
     13          6           0        6.392702    1.199016   -1.846458
     14          1           0        3.834649    0.794059   -0.867004
     15          1           0        4.916633    1.077996    0.493074
     16          1           0        5.505838   -0.772237   -1.869849
     17          1           0        6.587618   -0.489363   -0.510682
     18          1           0        6.725591    1.948791   -1.121459
     19          1           0        5.637664    1.664309   -2.488348
     20          1           0        7.249133    0.927967   -2.471692
     21          6           0       -1.749061    1.684779    1.167310
     22          6           0       -1.350703    0.419245    0.724300
     23          6           0       -2.242045   -0.402238    0.027722
     24          6           0       -3.529905    0.075689   -0.209539
     25          6           0       -3.956626    1.331702    0.218983
     26          6           0       -3.048460    2.136172    0.913685
     27          1           0       -1.050110    2.316319    1.707699
     28          1           0       -0.342197    0.066081    0.919841
     29          1           0       -1.959968   -1.386268   -0.326587
     30          1           0       -4.968546    1.656279    0.009018
     31          1           0       -3.360589    3.118552    1.256542
     32          7           0       -4.482434   -0.784973   -0.945982
     33          8           0       -5.611474   -0.340722   -1.142313
     34          8           0       -4.081950   -1.887514   -1.312931
 ---------------------------------------------------------------------

 SCF Done:  E(RHF) =  -669.535573426     A.U. after   15 cycles
 E2 =    -0.2091127891D+01 EUMP2 =    -0.67162670131708D+03

 The electronic state is 1-A.
 Alpha  occ. eigenvalues --  -20.60734 -20.60729 -15.85786 -11.31144 -11.27716
 Alpha  occ. eigenvalues --  -11.27704 -11.27449 -11.26729 -11.26679 -11.22667
 Alpha  occ. eigenvalues --  -11.22142 -11.22088 -11.22039 -11.21992 -11.21477
 Alpha  occ. eigenvalues --   -1.59809  -1.39363  -1.19315  -1.09161  -1.08710
 Alpha  occ. eigenvalues --   -1.04718  -1.04266  -0.96688  -0.95547  -0.87699
 Alpha  occ. eigenvalues --   -0.86117  -0.82381  -0.80356  -0.78945  -0.77429
 Alpha  occ. eigenvalues --   -0.72005  -0.71132  -0.70424  -0.65827  -0.64965
 Alpha  occ. eigenvalues --   -0.64726  -0.62155  -0.61583  -0.60072  -0.58297
 Alpha  occ. eigenvalues --   -0.55961  -0.55210  -0.53401  -0.53118  -0.53040
 Alpha  occ. eigenvalues --   -0.52787  -0.50622  -0.48776  -0.48761  -0.48642
 Alpha  occ. eigenvalues --   -0.47383  -0.46481  -0.46383  -0.44770  -0.44501
 Alpha  occ. eigenvalues --   -0.37297  -0.36319
 Alpha virt. eigenvalues --    0.05104   0.11296   0.16582   0.19558   0.22561
 Alpha virt. eigenvalues --    0.23647   0.25608   0.26396   0.26910   0.28334
 Alpha virt. eigenvalues --    0.28819   0.30396   0.30797   0.31130   0.31857

 Mulliken charges:
               1
     1  C   -0.297760
     2  C   -0.306130
     3  C   -0.479412
     4  H    0.152181
     5  H    0.152765
     6  H    0.144509
     7  H    0.153931
     8  H    0.161712
     9  H    0.157690
    10  H    0.157884
    11  C   -0.299097
    12  C   -0.300319
    13  C   -0.476164
    14  H    0.149359
    15  H    0.149701
    16  H    0.153596
    17  H    0.153047
    18  H    0.155221
    19  H    0.155736
    20  H    0.162203
    21  C   -0.173266
    22  C   -0.229227
    23  C   -0.173263
    24  C    0.158932
    25  C   -0.171257
    26  C   -0.218478
    27  H    0.225925
    28  H    0.238752
    29  H    0.275736
    30  H    0.275422
    31  H    0.223193
    32  N    0.488057
    33  O   -0.460634
    34  O   -0.460543
 Sum of Mulliken charges =  -0.00000

 Dipole moment (field-independent basis, Debye):
    X=              3.5871    Y=              2.9845    Z=              2.5998  Tot=              5.3416
 Quadrupole moment (field-independent basis, Debye-Ang):
   XX=           -115.3667   YY=            -92.5627   ZZ=            -96.2407
   XY=            -13.9388   XZ=             -9.4059   YZ=              0.4397

 Normal termination of Gaussian 16 at Thu May  6 17:00:20 2021.
