 Gaussian 16, Revision A.03,
 Gaussian 16:  EM64L-G16RevA.03 25-Dec-2016

 -------------
 #p 6-31g* mp2
 -------------

 ------------------------------------------------------
 Input file generated by CHIRIPA (05-May-2021 14:55:22)
 ------------------------------------------------------
 Symbolic Z-matrix:
 Charge =  0 Multiplicity = 1

                         Standard orientation:
 ---------------------------------------------------------------------
 Center     Atomic      Atomic             Coordinates (Angstroms)
 Number     Number       Type             X           Y           Z
 ---------------------------------------------------------------------
      1          6           0        0.974909   -2.794103    0.565856
      2          6           0        2.193681   -2.375076    1.109484
      3          6           0        2.773629   -1.168605    0.706202
      4          6           0        2.104476   -0.402540   -0.247038
      5          6           0        0.889113   -0.792930   -0.807199
      6          6           0        0.327656   -2.003086   -0.389067
      7          1           0        0.531574   -3.732750    0.884903
      8          1           0        2.698592   -2.987351    1.851259
      9          1           0        3.716218   -0.820300    1.110711
     10          1           0        0.409455   -0.161101   -1.544856
     11          1           0       -0.618957   -2.326002   -0.812970
     12          7           0        2.708653    0.876648   -0.681835
     13          8           0        2.099151    1.533415   -1.523144
     14          8           0        3.780269    1.198286   -0.173087
     15          6           0       -3.089510    0.479183   -0.240343
     16          6           0       -3.531110   -0.922251    0.182689
     17          6           0       -4.578128   -1.520973   -0.757034
     18          1           0       -3.968246    1.137388   -0.279537
     19          1           0       -2.685420    0.436163   -1.261252
     20          1           0       -3.932972   -0.876845    1.203014
     21          1           0       -2.651193   -1.577147    0.221067
     22          1           0       -4.183924   -1.595286   -1.775700
     23          1           0       -5.472986   -0.891004   -0.788174
     24          1           0       -4.879596   -2.522923   -0.435983
     25          6           0       -2.043034    1.091033    0.689311
     26          6           0       -1.601434    2.492466    0.266280
     27          6           0       -0.554416    3.091189    1.206002
     28          1           0       -2.447124    1.134053    1.710220
     29          1           0       -1.164299    0.432828    0.728506
     30          1           0       -2.481351    3.147363    0.227902
     31          1           0       -1.199573    2.447060   -0.754045
     32          1           0        0.340442    2.461220    1.237144
     33          1           0       -0.948620    3.165501    2.224670
     34          1           0       -0.252948    4.093138    0.884953
 ---------------------------------------------------------------------

 SCF Done:  E(RHF) =  -669.534439644     A.U. after   15 cycles
 E2 =    -0.2095263650D+01 EUMP2 =    -0.67162970329407D+03

 The electronic state is 1-A.
 Alpha  occ. eigenvalues --  -20.60902 -20.60894 -15.85945 -11.31317 -11.27887
 Alpha  occ. eigenvalues --  -11.27880 -11.27618 -11.26880 -11.26864 -11.22179
 Alpha  occ. eigenvalues --  -11.21754 -11.21652 -11.21377 -11.21317 -11.20681
 Alpha  occ. eigenvalues --   -1.59968  -1.39521  -1.19501  -1.08885  -1.08647
 Alpha  occ. eigenvalues --   -1.04903  -1.03673  -0.96116  -0.95716  -0.87137
 Alpha  occ. eigenvalues --   -0.86290  -0.82552  -0.79799  -0.78390  -0.77596
 Alpha  occ. eigenvalues --   -0.72161  -0.71298  -0.70596  -0.65410  -0.65129
 Alpha  occ. eigenvalues --   -0.64898  -0.62206  -0.61065  -0.59529  -0.57701
 Alpha  occ. eigenvalues --   -0.55444  -0.55383  -0.53267  -0.53026  -0.52772
 Alpha  occ. eigenvalues --   -0.52500  -0.50068  -0.48927  -0.48918  -0.48076
 Alpha  occ. eigenvalues --   -0.46860  -0.45927  -0.45817  -0.44900  -0.43914
 Alpha  occ. eigenvalues --   -0.37462  -0.36384
 Alpha virt. eigenvalues --    0.04905   0.10998   0.16307   0.19407   0.23145
 Alpha virt. eigenvalues --    0.23550   0.25630   0.26387   0.27678   0.28431
 Alpha virt. eigenvalues --    0.29582   0.30293   0.31362   0.31746   0.32136

 Mulliken charges:
               1
     1  C   -0.171458
     2  C   -0.218340
     3  C   -0.170555
     4  C    0.158763
     5  C   -0.175024
     6  C   -0.217422
     7  H    0.226612
     8  H    0.224151
     9  H    0.276255
    10  H    0.277895
    11  H    0.227744
    12  N    0.488729
    13  O   -0.460306
    14  O   -0.459237
    15  C   -0.298472
    16  C   -0.302780
    17  C   -0.476052
    18  H    0.153479
    19  H    0.143423
    20  H    0.155338
    21  H    0.143225
    22  H    0.152631
    23  H    0.159475
    24  H    0.159281
    25  C   -0.307187
    26  C   -0.302832
    27  C   -0.471794
    28  H    0.149047
    29  H    0.155239
    30  H    0.150675
    31  H    0.158878
    32  H    0.153369
    33  H    0.151262
    34  H    0.165987
 Sum of Mulliken charges =  -0.00000

 Dipole moment (field-independent basis, Debye):
    X=             -2.0122    Y=             -4.4314    Z=              1.5401  Tot=              5.1048
 Quadrupole moment (field-independent basis, Debye-Ang):
   XX=           -100.9557   YY=            -91.4505   ZZ=            -94.2295
   XY=            -10.2659   XZ=              5.6660   YZ=             -0.3424

 Normal termination of Gaussian 16 at Thu May  6 17:36:38 2021.
