 Gaussian 16, Revision A.03,
 Gaussian 16:  EM64L-G16RevA.03 25-Dec-2016

 -------------
 #p 6-31g* mp2
 -------------

 ------------------------------------------------------
 Input file generated by CHIRIPA (05-May-2021 14:51:14)
 ------------------------------------------------------
 Symbolic Z-matrix:
 Charge =  0 Multiplicity = 1

                         Standard orientation:
 ---------------------------------------------------------------------
 Center     Atomic      Atomic             Coordinates (Angstroms)
 Number     Number       Type             X           Y           Z
 ---------------------------------------------------------------------
      1          6           0       -2.655952   -0.571467   -0.207359
      2          6           0       -2.764611   -1.538915   -1.386436
      3          6           0       -2.082575   -2.880230   -1.115338
      4          1           0       -1.595299   -0.404701    0.025344
      5          1           0       -3.101680   -1.037295    0.682431
      6          1           0       -2.320051   -1.070851   -2.274072
      7          1           0       -3.825125   -1.703247   -1.616481
      8          1           0       -2.531107   -3.371719   -0.245936
      9          1           0       -1.017481   -2.735730   -0.907264
     10          1           0       -2.172356   -3.556495   -1.971180
     11          6           0       -3.333000    0.773853   -0.463189
     12          6           0       -3.224341    1.741301    0.715888
     13          6           0       -3.906376    3.082617    0.444790
     14          1           0       -2.887271    1.239681   -1.352979
     15          1           0       -4.393652    0.607088   -0.695892
     16          1           0       -2.163827    1.905633    0.945933
     17          1           0       -3.668901    1.273237    1.603524
     18          1           0       -4.971471    2.938117    0.236716
     19          1           0       -3.457845    3.574106   -0.424612
     20          1           0       -3.816596    3.758882    1.300632
     21          6           0        2.733319   -0.775171    0.582222
     22          6           0        1.418939   -0.669439    1.356309
     23          6           0        0.909220   -2.026024    1.843810
     24          1           0        2.592812   -1.445835   -0.276505
     25          1           0        3.492082   -1.243924    1.224051
     26          1           0        0.663261   -0.199764    0.713681
     27          1           0        1.562540    0.001203    2.213184
     28          1           0        1.642377   -2.497700    2.506080
     29          1           0        0.737989   -2.699808    0.998057
     30          1           0       -0.031352   -1.927157    2.394637
     31          6           0        3.255632    0.572784    0.088326
     32          6           0        4.570012    0.467052   -0.685761
     33          6           0        5.079732    1.823638   -1.173261
     34          1           0        2.496870    1.041538   -0.553502
     35          1           0        3.396139    1.243449    0.947053
     36          1           0        4.426412   -0.203589   -1.542636
     37          1           0        5.325691   -0.002623   -0.043132
     38          1           0        5.250963    2.497421   -0.327509
     39          1           0        4.346574    2.295313   -1.835532
     40          1           0        6.020304    1.724770   -1.724088
 ---------------------------------------------------------------------

 SCF Done:  E(RHF) =  -470.732997309     A.U. after   11 cycles
 E2 =    -0.1583741736D+01 EUMP2 =    -0.47231673904523D+03

 The electronic state is 1-A.
 Alpha  occ. eigenvalues --  -11.21629 -11.21624 -11.21610 -11.21600 -11.21440
 Alpha  occ. eigenvalues --  -11.21398 -11.21381 -11.21335 -11.21095 -11.21070
 Alpha  occ. eigenvalues --  -11.21070 -11.21045  -1.08476  -1.08421  -1.03573
 Alpha  occ. eigenvalues --   -1.03512  -0.96001  -0.95978  -0.87036  -0.86975
 Alpha  occ. eigenvalues --   -0.79625  -0.79591  -0.78333  -0.78197  -0.65241
 Alpha  occ. eigenvalues --   -0.64946  -0.61100  -0.60797  -0.59396  -0.59313
 Alpha  occ. eigenvalues --   -0.57696  -0.57517  -0.55343  -0.55229  -0.52694
 Alpha  occ. eigenvalues --   -0.52666  -0.52500  -0.52338  -0.50093  -0.49779
 Alpha  occ. eigenvalues --   -0.48017  -0.47848  -0.46705  -0.46620  -0.46033
 Alpha  occ. eigenvalues --   -0.45780  -0.45745  -0.45348  -0.43803  -0.43784
 Alpha virt. eigenvalues --    0.20250   0.23165   0.23537   0.24799   0.25672
 Alpha virt. eigenvalues --    0.26185   0.26865   0.27515   0.28581   0.29332
 Alpha virt. eigenvalues --    0.30123   0.31492   0.31824   0.31983   0.32161

 Mulliken charges:
               1
     1  C   -0.308059
     2  C   -0.299160
     3  C   -0.478716
     4  H    0.159654
     5  H    0.149476
     6  H    0.151236
     7  H    0.152082
     8  H    0.155770
     9  H    0.158020
    10  H    0.160002
    11  C   -0.297666
    12  C   -0.300102
    13  C   -0.475665
    14  H    0.149009
    15  H    0.149721
    16  H    0.152276
    17  H    0.151906
    18  H    0.155187
    19  H    0.155118
    20  H    0.160311
    21  C   -0.297655
    22  C   -0.306843
    23  C   -0.478204
    24  H    0.149117
    25  H    0.149946
    26  H    0.156135
    27  H    0.152437
    28  H    0.155060
    29  H    0.158046
    30  H    0.161634
    31  C   -0.298298
    32  C   -0.299681
    33  C   -0.475729
    34  H    0.148970
    35  H    0.149845
    36  H    0.151991
    37  H    0.152106
    38  H    0.155249
    39  H    0.155092
    40  H    0.160385
 Sum of Mulliken charges =  -0.00000

 Dipole moment (field-independent basis, Debye):
    X=              0.0067    Y=             -0.0101    Z=              0.0194  Tot=              0.0229
 Quadrupole moment (field-independent basis, Debye-Ang):
   XX=            -84.1861   YY=            -86.4921   ZZ=            -84.0543
   XY=              0.4118   XZ=              0.2858   YZ=              0.3614

 Normal termination of Gaussian 16 at Thu May  6 02:26:47 2021.
