 Gaussian 16, Revision A.03,
 Gaussian 16:  EM64L-G16RevA.03 25-Dec-2016

 -------------
 #p 6-31g* mp2
 -------------

 ------------------------------------------------------
 Input file generated by CHIRIPA (05-May-2021 14:55:18)
 ------------------------------------------------------
 Symbolic Z-matrix:
 Charge =  0 Multiplicity = 1

                         Standard orientation:
 ---------------------------------------------------------------------
 Center     Atomic      Atomic             Coordinates (Angstroms)
 Number     Number       Type             X           Y           Z
 ---------------------------------------------------------------------
      1          6           0       -5.827365    1.468197    0.231419
      2          6           0       -5.822160    0.135318    0.655597
      3          6           0       -4.669827   -0.645937    0.527857
      4          6           0       -3.535333   -0.059545   -0.031033
      5          6           0       -3.509165    1.265596   -0.463012
      6          6           0       -4.672886    2.028095   -0.325550
      7          1           0       -6.726948    2.067810    0.334427
      8          1           0       -6.717287   -0.302146    1.088513
      9          1           0       -4.638132   -1.680313    0.847982
     10          1           0       -2.601516    1.673856   -0.890698
     11          1           0       -4.674028    3.062964   -0.655838
     12          7           0       -2.309382   -0.876697   -0.171411
     13          8           0       -1.322843   -0.336593   -0.667058
     14          8           0       -2.358233   -2.041812    0.216865
     15          6           0        4.057810   -0.154198   -0.219953
     16          6           0        3.453970   -1.538047    0.021547
     17          6           0        2.001029   -1.638469   -0.443934
     18          1           0        3.451477    0.599419    0.300977
     19          1           0        3.997853    0.082466   -1.291302
     20          1           0        3.516303   -1.772612    1.091926
     21          1           0        4.061921   -2.288478   -0.499860
     22          1           0        1.924725   -1.430339   -1.516063
     23          1           0        1.376007   -0.911542    0.084767
     24          1           0        1.589158   -2.635996   -0.261832
     25          6           0        5.509894   -0.038138    0.240167
     26          6           0        6.113735    1.345712   -0.001332
     27          6           0        7.566674    1.446134    0.464149
     28          1           0        5.569850   -0.274802    1.311518
     29          1           0        6.116226   -0.791755   -0.280762
     30          1           0        5.505782    2.096142    0.520075
     31          1           0        6.051401    1.580276   -1.071710
     32          1           0        8.191697    0.719207   -0.064552
     33          1           0        7.642979    1.238004    1.536278
     34          1           0        7.978546    2.443661    0.282048
 ---------------------------------------------------------------------

 SCF Done:  E(RHF) =  -669.535757398     A.U. after   15 cycles
 E2 =    -0.2090942465D+01 EUMP2 =    -0.67162669986298D+03

 The electronic state is 1-A.
 Alpha  occ. eigenvalues --  -20.60898 -20.60889 -15.85926 -11.31274 -11.27840
 Alpha  occ. eigenvalues --  -11.27836 -11.27580 -11.26851 -11.26842 -11.21001
 Alpha  occ. eigenvalues --  -11.20610 -11.20586 -11.20372 -11.20254 -11.19100
 Alpha  occ. eigenvalues --   -1.59954  -1.39511  -1.19444  -1.08843  -1.07506
 Alpha  occ. eigenvalues --   -1.04844  -1.02486  -0.95683  -0.94890  -0.86243
 Alpha  occ. eigenvalues --   -0.85892  -0.82513  -0.78588  -0.77564  -0.77259
 Alpha  occ. eigenvalues --   -0.72140  -0.71273  -0.70552  -0.65098  -0.64846
 Alpha  occ. eigenvalues --   -0.64153  -0.62190  -0.59895  -0.58369  -0.56497
 Alpha  occ. eigenvalues --   -0.55348  -0.54189  -0.53174  -0.52936  -0.51565
 Alpha  occ. eigenvalues --   -0.51328  -0.49067  -0.48899  -0.48668  -0.46833
 Alpha  occ. eigenvalues --   -0.45663  -0.44951  -0.44765  -0.44651  -0.42736
 Alpha  occ. eigenvalues --   -0.37424  -0.36446
 Alpha virt. eigenvalues --    0.04953   0.11209   0.16442   0.21346   0.23700
 Alpha virt. eigenvalues --    0.25403   0.27260   0.27529   0.28204   0.28357
 Alpha virt. eigenvalues --    0.29210   0.30910   0.32412   0.32491   0.32634

 Mulliken charges:
               1
     1  C   -0.170673
     2  C   -0.218572
     3  C   -0.170759
     4  C    0.157951
     5  C   -0.170981
     6  C   -0.218542
     7  H    0.225897
     8  H    0.223733
     9  H    0.275823
    10  H    0.275791
    11  H    0.223750
    12  N    0.488708
    13  O   -0.458767
    14  O   -0.459115
    15  C   -0.296557
    16  C   -0.301884
    17  C   -0.470986
    18  H    0.148407
    19  H    0.147936
    20  H    0.147413
    21  H    0.146273
    22  H    0.151735
    23  H    0.169161
    24  H    0.161048
    25  C   -0.297225
    26  C   -0.298759
    27  C   -0.475118
    28  H    0.147916
    29  H    0.148190
    30  H    0.150498
    31  H    0.150884
    32  H    0.154517
    33  H    0.154308
    34  H    0.157998
 Sum of Mulliken charges =  -0.00000

 Dipole moment (field-independent basis, Debye):
    X=             -4.7117    Y=              2.8695    Z=              0.4785  Tot=              5.5375
 Quadrupole moment (field-independent basis, Debye-Ang):
   XX=            -66.1508   YY=            -92.4082   ZZ=            -94.0366
   XY=             -8.2909   XZ=             -3.4705   YZ=             -1.7765

 Normal termination of Gaussian 16 at Thu May  6 19:01:42 2021.
