 Gaussian 16, Revision A.03,
 Gaussian 16:  EM64L-G16RevA.03 25-Dec-2016

 -------------
 #p 6-31g* mp2
 -------------

 ------------------------------------------------------
 Input file generated by CHIRIPA (05-May-2021 14:55:19)
 ------------------------------------------------------
 Symbolic Z-matrix:
 Charge =  0 Multiplicity = 1

                         Standard orientation:
 ---------------------------------------------------------------------
 Center     Atomic      Atomic             Coordinates (Angstroms)
 Number     Number       Type             X           Y           Z
 ---------------------------------------------------------------------
      1          6           0       -0.809850   -0.628350    2.335785
      2          6           0       -1.294464   -1.753548    1.660803
      3          6           0       -2.078522   -1.609526    0.512300
      4          6           0       -2.359886   -0.319695    0.064572
      5          6           0       -1.891721    0.820884    0.715104
      6          6           0       -1.109497    0.653015    1.861617
      7          1           0       -0.201487   -0.749492    3.227197
      8          1           0       -1.063343   -2.749891    2.026764
      9          1           0       -2.466637   -2.463395   -0.029634
     10          1           0       -2.138858    1.801249    0.326226
     11          1           0       -0.734495    1.528663    2.383785
     12          7           0       -3.188963   -0.154603   -1.150243
     13          8           0       -3.422709    0.992580   -1.524371
     14          8           0       -3.589348   -1.175513   -1.705286
     15          6           0        3.478323    0.024020   -0.256028
     16          6           0        3.333245   -1.402171   -0.787930
     17          6           0        4.607023   -2.230039   -0.614963
     18          1           0        4.311810    0.518520   -0.773438
     19          1           0        3.749867   -0.014768    0.808000
     20          1           0        3.060701   -1.360693   -1.850292
     21          1           0        2.499883   -1.893269   -0.269329
     22          1           0        4.879573   -2.301140    0.442989
     23          1           0        5.443576   -1.765537   -1.146958
     24          1           0        4.481121   -3.246058   -1.001889
     25          6           0        2.213184    0.864055   -0.421831
     26          6           0        2.358261    2.290246    0.110071
     27          6           0        1.084483    3.118113   -0.062895
     28          1           0        1.941640    0.902844   -1.485858
     29          1           0        1.379696    0.369556    0.095580
     30          1           0        3.191623    2.781345   -0.408529
     31          1           0        2.630805    2.248768    1.172434
     32          1           0        0.247930    2.653612    0.469099
     33          1           0        0.811933    3.189215   -1.120848
     34          1           0        1.210385    4.134134    0.324030
 ---------------------------------------------------------------------

 SCF Done:  E(RHF) =  -669.533767977     A.U. after   15 cycles
 E2 =    -0.2094628197D+01 EUMP2 =    -0.67162839617403D+03

 The electronic state is 1-A.
 Alpha  occ. eigenvalues --  -20.60820 -20.60814 -15.85875 -11.31281 -11.27861
 Alpha  occ. eigenvalues --  -11.27844 -11.27624 -11.26895 -11.26868 -11.21985
 Alpha  occ. eigenvalues --  -11.21855 -11.21653 -11.21515 -11.21482 -11.21337
 Alpha  occ. eigenvalues --   -1.59894  -1.39446  -1.19480  -1.08871  -1.08702
 Alpha  occ. eigenvalues --   -1.04911  -1.03850  -0.96307  -0.95683  -0.87330
 Alpha  occ. eigenvalues --   -0.86278  -0.82533  -0.79923  -0.78513  -0.77556
 Alpha  occ. eigenvalues --   -0.72094  -0.71217  -0.70580  -0.65404  -0.65129
 Alpha  occ. eigenvalues --   -0.64877  -0.62338  -0.61213  -0.59663  -0.57899
 Alpha  occ. eigenvalues --   -0.55633  -0.55349  -0.53288  -0.52998  -0.52967
 Alpha  occ. eigenvalues --   -0.52720  -0.50260  -0.48856  -0.48844  -0.48222
 Alpha  occ. eigenvalues --   -0.46954  -0.46036  -0.45948  -0.44840  -0.44079
 Alpha  occ. eigenvalues --   -0.37444  -0.36376
 Alpha virt. eigenvalues --    0.04955   0.11104   0.16302   0.20718   0.22794
 Alpha virt. eigenvalues --    0.24109   0.26161   0.26457   0.27243   0.27987
 Alpha virt. eigenvalues --    0.28846   0.30373   0.31318   0.31504   0.32307

 Mulliken charges:
               1
     1  C   -0.172295
     2  C   -0.218771
     3  C   -0.170848
     4  C    0.157804
     5  C   -0.167410
     6  C   -0.219691
     7  H    0.226313
     8  H    0.224134
     9  H    0.276208
    10  H    0.277935
    11  H    0.225819
    12  N    0.488162
    13  O   -0.459800
    14  O   -0.460207
    15  C   -0.297592
    16  C   -0.299613
    17  C   -0.475717
    18  H    0.150612
    19  H    0.145397
    20  H    0.154894
    21  H    0.149427
    22  H    0.153039
    23  H    0.156544
    24  H    0.160706
    25  C   -0.305972
    26  C   -0.298548
    27  C   -0.480215
    28  H    0.152434
    29  H    0.156822
    30  H    0.154501
    31  H    0.146007
    32  H    0.147558
    33  H    0.162393
    34  H    0.159968
 Sum of Mulliken charges =  -0.00000

 Dipole moment (field-independent basis, Debye):
    X=              2.8378    Y=             -0.6305    Z=              4.2057  Tot=              5.1126
 Quadrupole moment (field-independent basis, Debye-Ang):
   XX=           -110.0555   YY=            -90.0351   ZZ=            -93.8853
   XY=              1.5748   XZ=            -10.5008   YZ=             -1.3779

 Normal termination of Gaussian 16 at Thu May  6 17:24:44 2021.
