 Gaussian 16, Revision A.03,
 Gaussian 16:  EM64L-G16RevA.03 25-Dec-2016

 -------------
 #p 6-31g* mp2
 -------------

 ------------------------------------------------------
 Input file generated by CHIRIPA (05-May-2021 14:57:25)
 ------------------------------------------------------
 Symbolic Z-matrix:
 Charge =  0 Multiplicity = 1

                         Standard orientation:
 ---------------------------------------------------------------------
 Center     Atomic      Atomic             Coordinates (Angstroms)
 Number     Number       Type             X           Y           Z
 ---------------------------------------------------------------------
      1          6           0        2.283666    2.165390   -0.292635
      2          6           0        3.629493    2.388035    0.016715
      3          6           0        4.521641    1.316336    0.117129
      4          6           0        4.031732    0.029259   -0.098997
      5          6           0        2.696535   -0.224880   -0.408758
      6          6           0        1.822295    0.861941   -0.504012
      7          1           0        1.597579    3.003785   -0.368635
      8          1           0        3.990596    3.399239    0.181384
      9          1           0        5.568552    1.460190    0.355252
     10          1           0        2.366035   -1.244184   -0.567522
     11          1           0        0.777633    0.686044   -0.744400
     12          7           0        4.966730   -1.113305    0.004576
     13          8           0        4.510243   -2.237694   -0.190379
     14          8           0        6.138364   -0.862823    0.278749
     15          6           0       -1.501125   -0.955283    0.533087
     16          6           0       -1.851624    0.391158    0.677201
     17          6           0       -3.165351    0.811229    0.448711
     18          6           0       -4.107386   -0.146248    0.075750
     19          6           0       -3.789146   -1.494938   -0.076062
     20          6           0       -2.469298   -1.892381    0.157577
     21          1           0       -0.478212   -1.272816    0.712583
     22          1           0       -1.101816    1.121124    0.968719
     23          1           0       -3.464023    1.847247    0.553020
     24          1           0       -4.558598   -2.199388   -0.367801
     25          1           0       -2.199961   -2.938711    0.044895
     26          7           0       -5.501410    0.286486   -0.168867
     27          8           0       -6.312764   -0.576653   -0.496484
     28          8           0       -5.756296    1.480607   -0.028349
 ---------------------------------------------------------------------

 SCF Done:  E(RHF) =  -868.336958068     A.U. after   16 cycles
 E2 =    -0.2601129252D+01 EUMP2 =    -0.87093808732085D+03

 The electronic state is 1-A.
 Alpha  occ. eigenvalues --  -20.61488 -20.61472 -20.61326 -20.61316 -15.86541
 Alpha  occ. eigenvalues --  -15.86382 -11.32034 -11.31897 -11.28678 -11.28566
 Alpha  occ. eigenvalues --  -11.28518 -11.28440 -11.28367 -11.28281 -11.27649
 Alpha  occ. eigenvalues --  -11.27594 -11.27589 -11.27469  -1.60555  -1.60396
 Alpha  occ. eigenvalues --   -1.40106  -1.39945  -1.20215  -1.20091  -1.09590
 Alpha  occ. eigenvalues --   -1.09464  -1.05651  -1.05503  -0.96398  -0.96275
 Alpha  occ. eigenvalues --   -0.87100  -0.86844  -0.83244  -0.83085  -0.78292
 Alpha  occ. eigenvalues --   -0.78090  -0.72756  -0.72598  -0.71880  -0.71721
 Alpha  occ. eigenvalues --   -0.71353  -0.71184  -0.65955  -0.65863  -0.65696
 Alpha  occ. eigenvalues --   -0.65293  -0.63055  -0.62738  -0.56138  -0.56011
 Alpha  occ. eigenvalues --   -0.54011  -0.53941  -0.53650  -0.53484  -0.49524
 Alpha  occ. eigenvalues --   -0.49504  -0.49367  -0.49343  -0.45484  -0.45317
 Alpha  occ. eigenvalues --   -0.38203  -0.38085  -0.37251  -0.37098
 Alpha virt. eigenvalues --    0.04246   0.04407   0.10178   0.10460   0.15616
 Alpha virt. eigenvalues --    0.15837   0.19292   0.21958   0.24811   0.25965
 Alpha virt. eigenvalues --    0.27925   0.29301   0.30164   0.30410   0.32064

 Mulliken charges:
               1
     1  C   -0.173569
     2  C   -0.217410
     3  C   -0.169733
     4  C    0.160100
     5  C   -0.175488
     6  C   -0.228983
     7  H    0.226874
     8  H    0.226879
     9  H    0.278529
    10  H    0.272518
    11  H    0.228239
    12  N    0.488164
    13  O   -0.460789
    14  O   -0.457253
    15  C   -0.177232
    16  C   -0.225506
    17  C   -0.170484
    18  C    0.159234
    19  C   -0.169519
    20  C   -0.218026
    21  H    0.227648
    22  H    0.221809
    23  H    0.276355
    24  H    0.278737
    25  H    0.228158
    26  N    0.488017
    27  O   -0.457734
    28  O   -0.459538
 Sum of Mulliken charges =  -0.00000

 Dipole moment (field-independent basis, Debye):
    X=              1.6036    Y=              2.4805    Z=              0.4986  Tot=              2.9955
 Quadrupole moment (field-independent basis, Debye-Ang):
   XX=           -167.4627   YY=            -97.6382   ZZ=           -105.8200
   XY=             26.4983   XZ=             -3.0800   YZ=              1.2733

 Normal termination of Gaussian 16 at Wed May  5 17:58:47 2021.
