 Gaussian 16, Revision A.03,
 Gaussian 16:  EM64L-G16RevA.03 25-Dec-2016

 -------------
 #p 6-31g* mp2
 -------------

 ------------------------------------------------------
 Input file generated by CHIRIPA (05-May-2021 14:55:22)
 ------------------------------------------------------
 Symbolic Z-matrix:
 Charge =  0 Multiplicity = 1

                         Standard orientation:
 ---------------------------------------------------------------------
 Center     Atomic      Atomic             Coordinates (Angstroms)
 Number     Number       Type             X           Y           Z
 ---------------------------------------------------------------------
      1          6           0        2.302114    2.067771    0.221174
      2          6           0        3.607938    2.307049   -0.219383
      3          6           0        4.518015    1.253630   -0.348288
      4          6           0        4.086634   -0.032326   -0.026550
      5          6           0        2.792337   -0.302768    0.414976
      6          6           0        1.899191    0.765921    0.536392
      7          1           0        1.601720    2.892023    0.318402
      8          1           0        3.923621    3.317055   -0.464896
      9          1           0        5.534877    1.410597   -0.687069
     10          1           0        2.506826   -1.320418    0.652232
     11          1           0        0.885693    0.577131    0.878774
     12          7           0        5.041130   -1.155616   -0.159052
     13          8           0        4.636448   -2.279406    0.130717
     14          8           0        6.175872   -0.890992   -0.550167
     15          6           0       -5.702287   -0.506603   -0.178641
     16          6           0       -6.872275    0.472115   -0.072704
     17          6           0       -8.211400   -0.164828   -0.445319
     18          1           0       -5.651277   -0.897572   -1.204060
     19          1           0       -5.893989   -1.368550    0.475342
     20          1           0       -6.677778    1.332616   -0.725639
     21          1           0       -6.920388    0.860945    0.952534
     22          1           0       -8.431814   -1.011334    0.213049
     23          1           0       -8.187825   -0.536983   -1.474660
     24          1           0       -9.033943    0.552422   -0.362640
     25          6           0       -4.356777    0.115421    0.190704
     26          6           0       -3.186788   -0.863296    0.084767
     27          6           0       -1.847663   -0.226355    0.457382
     28          1           0       -4.165075    0.977368   -0.463278
     29          1           0       -4.407787    0.506390    1.216125
     30          1           0       -3.138675   -1.252127   -0.940470
     31          1           0       -3.381286   -1.723798    0.737703
     32          1           0       -1.871239    0.145801    1.486724
     33          1           0       -1.627250    0.620152   -0.200985
     34          1           0       -1.025120   -0.943604    0.374704
 ---------------------------------------------------------------------

 SCF Done:  E(RHF) =  -669.535460126     A.U. after   15 cycles
 E2 =    -0.2091041729D+01 EUMP2 =    -0.67162650185488D+03

 The electronic state is 1-A.
 Alpha  occ. eigenvalues --  -20.60697 -20.60692 -15.85748 -11.31094 -11.27656
 Alpha  occ. eigenvalues --  -11.27636 -11.27377 -11.26678 -11.26567 -11.22391
 Alpha  occ. eigenvalues --  -11.22238 -11.22033 -11.22021 -11.21862 -11.21409
 Alpha  occ. eigenvalues --   -1.59773  -1.39327  -1.19254  -1.09037  -1.08653
 Alpha  occ. eigenvalues --   -1.04654  -1.04183  -0.96674  -0.95495  -0.87721
 Alpha  occ. eigenvalues --   -0.86042  -0.82328  -0.80272  -0.78813  -0.77373
 Alpha  occ. eigenvalues --   -0.71967  -0.71095  -0.70369  -0.65659  -0.64904
 Alpha  occ. eigenvalues --   -0.64662  -0.62034  -0.61571  -0.60035  -0.58249
 Alpha  occ. eigenvalues --   -0.55952  -0.55165  -0.53531  -0.53104  -0.52981
 Alpha  occ. eigenvalues --   -0.52557  -0.50601  -0.48727  -0.48724  -0.48566
 Alpha  occ. eigenvalues --   -0.47262  -0.46366  -0.46260  -0.44737  -0.44419
 Alpha  occ. eigenvalues --   -0.37237  -0.36249
 Alpha virt. eigenvalues --    0.05144   0.11377   0.16629   0.20781   0.22347
 Alpha virt. eigenvalues --    0.23761   0.25809   0.26081   0.26709   0.27819
 Alpha virt. eigenvalues --    0.28730   0.30136   0.30730   0.31004   0.32011

 Mulliken charges:
               1
     1  C   -0.174063
     2  C   -0.218308
     3  C   -0.171644
     4  C    0.158958
     5  C   -0.174791
     6  C   -0.226808
     7  H    0.225361
     8  H    0.222841
     9  H    0.275131
    10  H    0.274845
    11  H    0.241913
    12  N    0.488090
    13  O   -0.460723
    14  O   -0.460789
    15  C   -0.299036
    16  C   -0.299998
    17  C   -0.476056
    18  H    0.151116
    19  H    0.150991
    20  H    0.151940
    21  H    0.152140
    22  H    0.156019
    23  H    0.155981
    24  H    0.161250
    25  C   -0.299247
    26  C   -0.299664
    27  C   -0.484017
    28  H    0.149287
    29  H    0.149840
    30  H    0.156053
    31  H    0.155583
    32  H    0.154758
    33  H    0.154771
    34  H    0.158273
 Sum of Mulliken charges =  -0.00000

 Dipole moment (field-independent basis, Debye):
    X=             -3.6297    Y=              3.9264    Z=              0.4482  Tot=              5.3658
 Quadrupole moment (field-independent basis, Debye-Ang):
   XX=           -120.5240   YY=            -93.4003   ZZ=            -94.2208
   XY=             18.8513   XZ=              0.4046   YZ=             -1.6177

 Normal termination of Gaussian 16 at Wed May  5 23:53:54 2021.
