 Gaussian 16, Revision A.03,
 Gaussian 16:  EM64L-G16RevA.03 25-Dec-2016

 -------------
 #p 6-31g* mp2
 -------------

 ------------------------------------------------------
 Input file generated by CHIRIPA (05-May-2021 14:57:23)
 ------------------------------------------------------
 Symbolic Z-matrix:
 Charge =  0 Multiplicity = 1

                         Standard orientation:
 ---------------------------------------------------------------------
 Center     Atomic      Atomic             Coordinates (Angstroms)
 Number     Number       Type             X           Y           Z
 ---------------------------------------------------------------------
      1          6           0       -5.296119    1.789790   -0.088999
      2          6           0       -5.713438    0.476400   -0.328528
      3          6           0       -4.784748   -0.567941   -0.366374
      4          6           0       -3.440611   -0.261649   -0.159559
      5          6           0       -2.993717    1.036629    0.081376
      6          6           0       -3.939982    2.065227    0.114829
      7          1           0       -6.024374    2.594944   -0.061306
      8          1           0       -6.765984    0.259545   -0.487169
      9          1           0       -5.080373   -1.593798   -0.549792
     10          1           0       -1.937649    1.221745    0.235876
     11          1           0       -3.613009    3.084271    0.301061
     12          7           0       -2.448146   -1.358913   -0.197299
     13          8           0       -1.269734   -1.062849   -0.012021
     14          8           0       -2.867456   -2.494236   -0.411445
     15          6           0        5.806954    0.749437   -0.879448
     16          6           0        5.482493   -0.603736   -0.737438
     17          6           0        4.264810   -0.985785   -0.166618
     18          6           0        3.391225    0.016166    0.253185
     19          6           0        3.685782    1.372695    0.125297
     20          6           0        4.909146    1.731603   -0.448387
     21          1           0        6.755087    1.037234   -1.323986
     22          1           0        6.177807   -1.368662   -1.071311
     23          1           0        3.988287   -2.026018   -0.044679
     24          1           0        2.972267    2.112411    0.467545
     25          1           0        5.158472    2.783265   -0.557415
     26          7           0        2.099112   -0.376044    0.859002
     27          8           0        1.346700    0.525926    1.220891
     28          8           0        1.863232   -1.577999    0.960482
 ---------------------------------------------------------------------

 SCF Done:  E(RHF) =  -868.335886758     A.U. after   16 cycles
 E2 =    -0.2601023384D+01 EUMP2 =    -0.87093691014203D+03

 The electronic state is 1-A.
 Alpha  occ. eigenvalues --  -20.59888 -20.59783 -20.59508 -20.59394 -15.84900
 Alpha  occ. eigenvalues --  -15.84510 -11.30610 -11.30197 -11.27253 -11.27180
 Alpha  occ. eigenvalues --  -11.27022 -11.26864 -11.26731 -11.26674 -11.26330
 Alpha  occ. eigenvalues --  -11.26284 -11.25950 -11.25900  -1.58864  -1.58539
 Alpha  occ. eigenvalues --   -1.38428  -1.38076  -1.18808  -1.18420  -1.08136
 Alpha  occ. eigenvalues --   -1.07767  -1.04266  -1.03867  -0.94921  -0.94531
 Alpha  occ. eigenvalues --   -0.85648  -0.85251  -0.81763  -0.81358  -0.76748
 Alpha  occ. eigenvalues --   -0.76342  -0.71119  -0.70833  -0.70076  -0.69921
 Alpha  occ. eigenvalues --   -0.69887  -0.69523  -0.64460  -0.64277  -0.64058
 Alpha  occ. eigenvalues --   -0.63881  -0.61615  -0.61193  -0.54755  -0.54386
 Alpha  occ. eigenvalues --   -0.52570  -0.52367  -0.52193  -0.51961  -0.47941
 Alpha  occ. eigenvalues --   -0.47898  -0.47434  -0.47386  -0.43737  -0.43405
 Alpha  occ. eigenvalues --   -0.36804  -0.36444  -0.35885  -0.35490
 Alpha virt. eigenvalues --    0.05791   0.06190   0.11765   0.12158   0.17210
 Alpha virt. eigenvalues --    0.17606   0.21829   0.22248   0.27722   0.28105
 Alpha virt. eigenvalues --    0.28717   0.29224   0.31327   0.31758   0.32970

 Mulliken charges:
               1
     1  C   -0.171914
     2  C   -0.219182
     3  C   -0.171810
     4  C    0.157229
     5  C   -0.173814
     6  C   -0.219581
     7  H    0.221693
     8  H    0.219852
     9  H    0.273535
    10  H    0.287497
    11  H    0.220455
    12  N    0.486730
    13  O   -0.444696
    14  O   -0.468029
    15  C   -0.171989
    16  C   -0.218490
    17  C   -0.170650
    18  C    0.161079
    19  C   -0.171790
    20  C   -0.218426
    21  H    0.223328
    22  H    0.222284
    23  H    0.277583
    24  H    0.271297
    25  H    0.220372
    26  N    0.490822
    27  O   -0.467458
    28  O   -0.445930
 Sum of Mulliken charges =  -0.00000

 Dipole moment (field-independent basis, Debye):
    X=              1.2832    Y=              5.0176    Z=             -1.9012  Tot=              5.5171
 Quadrupole moment (field-independent basis, Debye-Ang):
   XX=            -50.6355   YY=           -100.7371   ZZ=           -107.5488
   XY=             -6.7383   XZ=             -5.6672   YZ=              0.8608

 Normal termination of Gaussian 16 at Fri May  7 06:26:11 2021.
