 Gaussian 16, Revision A.03,
 Gaussian 16:  EM64L-G16RevA.03 25-Dec-2016

 -------------
 #p 6-31g* mp2
 -------------

 ------------------------------------------------------
 Input file generated by CHIRIPA (05-May-2021 14:51:09)
 ------------------------------------------------------
 Symbolic Z-matrix:
 Charge =  0 Multiplicity = 1

                         Standard orientation:
 ---------------------------------------------------------------------
 Center     Atomic      Atomic             Coordinates (Angstroms)
 Number     Number       Type             X           Y           Z
 ---------------------------------------------------------------------
      1          6           0        3.934819    1.009150   -0.227496
      2          6           0        2.571572    1.513179    0.247370
      3          6           0        2.320688    2.975606   -0.121626
      4          1           0        4.723182    1.638890    0.207081
      5          1           0        4.003377    1.130212   -1.317468
      6          1           0        2.505073    1.389922    1.335948
      7          1           0        1.786373    0.882048   -0.188235
      8          1           0        2.360050    3.111195   -1.207291
      9          1           0        3.082834    3.621955    0.325552
     10          1           0        1.340535    3.315253    0.227373
     11          6           0        4.200280   -0.451201    0.133936
     12          6           0        5.563526   -0.955231   -0.340930
     13          6           0        5.814410   -2.417658    0.028067
     14          1           0        4.131722   -0.572263    1.223908
     15          1           0        3.411917   -1.080941   -0.300641
     16          1           0        6.348726   -0.324100    0.094675
     17          1           0        5.630025   -0.831974   -1.429508
     18          1           0        5.052265   -3.064006   -0.419112
     19          1           0        5.775049   -2.553246    1.113731
     20          1           0        6.794563   -2.757304   -0.320933
     21          6           0       -4.767552   -0.229617    0.348431
     22          6           0       -5.884960   -0.396248   -0.681918
     23          6           0       -7.279495   -0.295033   -0.063194
     24          1           0       -4.880274   -0.994351    1.129085
     25          1           0       -4.879204    0.743737    0.845935
     26          1           0       -5.770420   -1.368409   -1.178305
     27          1           0       -5.769451    0.368851   -1.460313
     28          1           0       -7.418504    0.679428    0.416078
     29          1           0       -7.419480   -1.067702    0.699687
     30          1           0       -8.063153   -0.417028   -0.817421
     31          6           0       -3.367547   -0.328331   -0.254871
     32          6           0       -2.250139   -0.161700    0.775478
     33          6           0       -0.855603   -0.262915    0.156755
     34          1           0       -3.255895   -1.301685   -0.752375
     35          1           0       -3.254824    0.436402   -1.035525
     36          1           0       -2.365648   -0.926799    1.553872
     37          1           0       -2.364678    0.810460    1.271865
     38          1           0       -0.715620    0.509753   -0.606127
     39          1           0       -0.716595   -1.237377   -0.322518
     40          1           0       -0.071946   -0.140921    0.910980
 ---------------------------------------------------------------------

 SCF Done:  E(RHF) =  -470.732550996     A.U. after   11 cycles
 E2 =    -0.1582916152D+01 EUMP2 =    -0.47231546714855D+03

 The electronic state is 1-A.
 Alpha  occ. eigenvalues --  -11.21606 -11.21602 -11.21562 -11.21435 -11.21410
 Alpha  occ. eigenvalues --  -11.21350 -11.21340 -11.21274 -11.21075 -11.21049
 Alpha  occ. eigenvalues --  -11.21042 -11.21015  -1.08439  -1.08362  -1.03556
 Alpha  occ. eigenvalues --   -1.03450  -0.96007  -0.95911  -0.87043  -0.86919
 Alpha  occ. eigenvalues --   -0.79717  -0.79441  -0.78268  -0.78152  -0.65080
 Alpha  occ. eigenvalues --   -0.64989  -0.61007  -0.60819  -0.59491  -0.59174
 Alpha  occ. eigenvalues --   -0.57624  -0.57507  -0.55318  -0.55172  -0.52780
 Alpha  occ. eigenvalues --   -0.52584  -0.52418  -0.52324  -0.49983  -0.49826
 Alpha  occ. eigenvalues --   -0.47938  -0.47819  -0.46724  -0.46473  -0.45832
 Alpha  occ. eigenvalues --   -0.45733  -0.45697  -0.45585  -0.43773  -0.43636
 Alpha virt. eigenvalues --    0.22280   0.22996   0.23697   0.24853   0.26283
 Alpha virt. eigenvalues --    0.26618   0.26743   0.27515   0.27886   0.29061
 Alpha virt. eigenvalues --    0.30608   0.31095   0.31536   0.31822   0.32076

 Mulliken charges:
               1
     1  C   -0.297418
     2  C   -0.308368
     3  C   -0.475666
     4  H    0.148907
     5  H    0.149023
     6  H    0.149813
     7  H    0.165203
     8  H    0.154569
     9  H    0.154853
    10  H    0.159667
    11  C   -0.298559
    12  C   -0.299515
    13  C   -0.475658
    14  H    0.149030
    15  H    0.149977
    16  H    0.151855
    17  H    0.151846
    18  H    0.155117
    19  H    0.155053
    20  H    0.160098
    21  C   -0.298291
    22  C   -0.299625
    23  C   -0.475704
    24  H    0.149667
    25  H    0.149528
    26  H    0.151896
    27  H    0.151930
    28  H    0.155198
    29  H    0.155185
    30  H    0.160260
    31  C   -0.298596
    32  C   -0.299802
    33  C   -0.480041
    34  H    0.149411
    35  H    0.149642
    36  H    0.151918
    37  H    0.151944
    38  H    0.155217
    39  H    0.154537
    40  H    0.165897
 Sum of Mulliken charges =  -0.00000

 Dipole moment (field-independent basis, Debye):
    X=             -0.0317    Y=             -0.0188    Z=             -0.0020  Tot=              0.0369
 Quadrupole moment (field-independent basis, Debye-Ang):
   XX=            -86.1449   YY=            -84.8705   ZZ=            -84.1105
   XY=              0.4539   XZ=              0.6027   YZ=              0.2732

 Normal termination of Gaussian 16 at Wed May  5 18:07:59 2021.
