 Gaussian 16, Revision A.03,
 Gaussian 16:  EM64L-G16RevA.03 25-Dec-2016

 -------------
 #p 6-31g* mp2
 -------------

 ------------------------------------------------------
 Input file generated by CHIRIPA (05-May-2021 14:53:13)
 ------------------------------------------------------
 Symbolic Z-matrix:
 Charge =  0 Multiplicity = 1

                         Standard orientation:
 ---------------------------------------------------------------------
 Center     Atomic      Atomic             Coordinates (Angstroms)
 Number     Number       Type             X           Y           Z
 ---------------------------------------------------------------------
      1          6           0       -3.344063   -0.481380    0.050819
      2          6           0       -4.400013    0.425306   -0.582329
      3          6           0       -5.247112   -0.296469   -1.630784
      4          1           0       -2.691943   -0.880482   -0.738105
      5          1           0       -3.841792   -1.345704    0.511910
      6          1           0       -3.900552    1.288369   -1.040888
      7          1           0       -5.049577    0.822448    0.208215
      8          1           0       -5.771419   -1.147083   -1.183392
      9          1           0       -4.615865   -0.678514   -2.439592
     10          1           0       -5.995484    0.370178   -2.070534
     11          6           0       -2.489231    0.225858    1.100965
     12          6           0       -1.433282   -0.680828    1.734114
     13          6           0       -0.586183    0.040947    2.782569
     14          1           0       -1.991503    1.090182    0.639874
     15          1           0       -3.141352    0.624960    1.889889
     16          1           0       -0.783718   -1.077970    0.943569
     17          1           0       -1.932743   -1.543892    2.192673
     18          1           0       -1.217430    0.422992    3.591376
     19          1           0       -0.061876    0.891561    2.335176
     20          1           0        0.162189   -0.625701    3.222319
     21          6           0        2.798447   -2.369074   -0.467483
     22          6           0        1.547882   -1.913948   -0.898143
     23          6           0        1.248897   -0.548252   -0.892725
     24          6           0        2.228377    0.338497   -0.448218
     25          6           0        3.483518   -0.084019   -0.013026
     26          6           0        3.760577   -1.454270   -0.027076
     27          1           0        3.022190   -3.431749   -0.475045
     28          1           0        0.798747   -2.622112   -1.240698
     29          1           0        0.288845   -0.168608   -1.220732
     30          1           0        4.209938    0.645982    0.322877
     31          1           0        4.732631   -1.804866    0.307946
     32          7           0        1.923461    1.786709   -0.437912
     33          8           0        2.803569    2.547616   -0.041596
     34          8           0        0.810132    2.133489   -0.826348
 ---------------------------------------------------------------------

 SCF Done:  E(RHF) =  -669.535188239     A.U. after   15 cycles
 E2 =    -0.2094069123D+01 EUMP2 =    -0.67162925736125D+03

 The electronic state is 1-A.
 Alpha  occ. eigenvalues --  -20.60934 -20.60929 -15.85971 -11.31283 -11.27859
 Alpha  occ. eigenvalues --  -11.27852 -11.27588 -11.26852 -11.26842 -11.21498
 Alpha  occ. eigenvalues --  -11.21485 -11.21424 -11.21122 -11.21040 -11.20901
 Alpha  occ. eigenvalues --   -1.59997  -1.39552  -1.19467  -1.08862  -1.08346
 Alpha  occ. eigenvalues --   -1.04873  -1.03432  -0.95885  -0.95708  -0.86900
 Alpha  occ. eigenvalues --   -0.86260  -0.82547  -0.79507  -0.78161  -0.77594
 Alpha  occ. eigenvalues --   -0.72190  -0.71319  -0.70581  -0.65132  -0.65080
 Alpha  occ. eigenvalues --   -0.64774  -0.62219  -0.60835  -0.59254  -0.57498
 Alpha  occ. eigenvalues --   -0.55359  -0.55199  -0.53175  -0.52949  -0.52571
 Alpha  occ. eigenvalues --   -0.52300  -0.49825  -0.48954  -0.48941  -0.47820
 Alpha  occ. eigenvalues --   -0.46550  -0.45738  -0.45607  -0.44910  -0.43689
 Alpha  occ. eigenvalues --   -0.37432  -0.36365
 Alpha virt. eigenvalues --    0.04892   0.11149   0.16305   0.19948   0.22896
 Alpha virt. eigenvalues --    0.24379   0.25483   0.27067   0.27707   0.28054
 Alpha virt. eigenvalues --    0.29977   0.30907   0.31490   0.31909   0.32127

 Mulliken charges:
               1
     1  C   -0.296084
     2  C   -0.300819
     3  C   -0.475439
     4  H    0.138239
     5  H    0.148243
     6  H    0.158134
     7  H    0.153185
     8  H    0.153827
     9  H    0.152741
    10  H    0.161586
    11  C   -0.306673
    12  C   -0.303245
    13  C   -0.476480
    14  H    0.165961
    15  H    0.150638
    16  H    0.147375
    17  H    0.148949
    18  H    0.156418
    19  H    0.159653
    20  H    0.157256
    21  C   -0.170432
    22  C   -0.218065
    23  C   -0.171948
    24  C    0.158470
    25  C   -0.170578
    26  C   -0.218722
    27  H    0.226254
    28  H    0.224699
    29  H    0.279186
    30  H    0.275985
    31  H    0.223889
    32  N    0.488395
    33  O   -0.458800
    34  O   -0.461798
 Sum of Mulliken charges =  -0.00000

 Dipole moment (field-independent basis, Debye):
    X=              1.1743    Y=             -4.9516    Z=             -0.0444  Tot=              5.0891
 Quadrupole moment (field-independent basis, Debye-Ang):
   XX=            -85.6968   YY=            -98.6655   ZZ=            -95.0360
   XY=            -10.7247   XZ=              0.2633   YZ=              2.3346

 Normal termination of Gaussian 16 at Wed May  5 15:33:01 2021.
