 Gaussian 16, Revision A.03,
 Gaussian 16:  EM64L-G16RevA.03 25-Dec-2016

 -------------
 #p 6-31g* mp2
 -------------

 ------------------------------------------------------
 Input file generated by CHIRIPA (05-May-2021 14:53:15)
 ------------------------------------------------------
 Symbolic Z-matrix:
 Charge =  0 Multiplicity = 1

                         Standard orientation:
 ---------------------------------------------------------------------
 Center     Atomic      Atomic             Coordinates (Angstroms)
 Number     Number       Type             X           Y           Z
 ---------------------------------------------------------------------
      1          6           0       -5.347818    0.006787    0.195103
      2          6           0       -6.144828    0.073325   -1.108098
      3          6           0       -7.524493    0.706580   -0.925591
      4          1           0       -5.919873   -0.565056    0.938537
      5          1           0       -5.235629    1.021949    0.600385
      6          1           0       -6.254292   -0.941507   -1.511520
      7          1           0       -5.570724    0.644913   -1.848576
      8          1           0       -7.431807    1.729183   -0.545731
      9          1           0       -8.119258    0.133749   -0.206759
     10          1           0       -8.077057    0.744109   -1.869585
     11          6           0       -3.966352   -0.623795    0.028832
     12          6           0       -3.169342   -0.690333    1.332033
     13          6           0       -1.789678   -1.323588    1.149527
     14          1           0       -4.078541   -1.638957   -0.376450
     15          1           0       -3.394297   -0.051952   -0.714602
     16          1           0       -3.743446   -1.261921    2.072511
     17          1           0       -3.059879    0.324499    1.735455
     18          1           0       -1.194913   -0.750757    0.430695
     19          1           0       -1.882364   -2.346191    0.769666
     20          1           0       -1.237113   -1.361117    2.093520
     21          6           0        5.554340   -1.298585   -0.657141
     22          6           0        5.781555    0.072364   -0.497785
     23          6           0        4.727451    0.934788   -0.182129
     24          6           0        3.453117    0.389862   -0.032402
     25          6           0        3.194842   -0.971523   -0.184770
     26          6           0        4.263983   -1.815242   -0.500400
     27          1           0        6.379034   -1.961271   -0.902340
     28          1           0        6.782619    0.476397   -0.618917
     29          1           0        4.875210    2.000123   -0.053114
     30          1           0        2.185938   -1.344882   -0.057748
     31          1           0        4.084575   -2.879520   -0.623565
     32          7           0        2.329224    1.292971    0.301756
     33          8           0        1.215815    0.788068    0.428371
     34          8           0        2.583008    2.488628    0.430726
 ---------------------------------------------------------------------

 SCF Done:  E(RHF) =  -669.535992117     A.U. after   15 cycles
 E2 =    -0.2090691230D+01 EUMP2 =    -0.67162668334655D+03

 The electronic state is 1-A.
 Alpha  occ. eigenvalues --  -20.60866 -20.60855 -15.85911 -11.31237 -11.27807
 Alpha  occ. eigenvalues --  -11.27794 -11.27547 -11.26817 -11.26805 -11.21104
 Alpha  occ. eigenvalues --  -11.20783 -11.20742 -11.20645 -11.20643 -11.20026
 Alpha  occ. eigenvalues --   -1.59934  -1.39490  -1.19410  -1.08813  -1.07757
 Alpha  occ. eigenvalues --   -1.04807  -1.02828  -0.95657  -0.95274  -0.86300
 Alpha  occ. eigenvalues --   -0.86207  -0.82488  -0.78915  -0.77591  -0.77509
 Alpha  occ. eigenvalues --   -0.72140  -0.71252  -0.70519  -0.65068  -0.64810
 Alpha  occ. eigenvalues --   -0.64379  -0.62153  -0.60206  -0.58671  -0.56892
 Alpha  occ. eigenvalues --   -0.55313  -0.54541  -0.53140  -0.52899  -0.51976
 Alpha  occ. eigenvalues --   -0.51712  -0.49245  -0.48889  -0.48840  -0.47224
 Alpha  occ. eigenvalues --   -0.45929  -0.45107  -0.45013  -0.44900  -0.43096
 Alpha  occ. eigenvalues --   -0.37392  -0.36410
 Alpha virt. eigenvalues --    0.04991   0.11245   0.16486   0.21250   0.23534
 Alpha virt. eigenvalues --    0.24930   0.26761   0.27361   0.27700   0.28204
 Alpha virt. eigenvalues --    0.29089   0.30715   0.31777   0.32284   0.32717

 Mulliken charges:
               1
     1  C   -0.298070
     2  C   -0.299271
     3  C   -0.475406
     4  H    0.147714
     5  H    0.150940
     6  H    0.150067
     7  H    0.152413
     8  H    0.155562
     9  H    0.154119
    10  H    0.158651
    11  C   -0.298608
    12  C   -0.298713
    13  C   -0.482345
    14  H    0.145539
    15  H    0.152858
    16  H    0.146953
    17  H    0.156907
    18  H    0.176343
    19  H    0.143984
    20  H    0.158538
    21  C   -0.170644
    22  C   -0.218626
    23  C   -0.170930
    24  C    0.157619
    25  C   -0.171170
    26  C   -0.218754
    27  H    0.225784
    28  H    0.223581
    29  H    0.275633
    30  H    0.277352
    31  H    0.223888
    32  N    0.494648
    33  O   -0.466727
    34  O   -0.459830
 Sum of Mulliken charges =  -0.00000

 Dipole moment (field-independent basis, Debye):
    X=              4.1738    Y=             -3.0621    Z=             -1.1930  Tot=              5.3123
 Quadrupole moment (field-independent basis, Debye-Ang):
   XX=            -67.4926   YY=            -94.0736   ZZ=            -95.6858
   XY=             -6.4041   XZ=             -4.4135   YZ=             -0.3343

 Normal termination of Gaussian 16 at Wed May  5 15:38:56 2021.
