 Gaussian 16, Revision A.03,
 Gaussian 16:  EM64L-G16RevA.03 25-Dec-2016

 -------------
 #p 6-31g* mp2
 -------------

 ------------------------------------------------------
 Input file generated by CHIRIPA (05-May-2021 14:51:08)
 ------------------------------------------------------
 Symbolic Z-matrix:
 Charge =  0 Multiplicity = 1

                         Standard orientation:
 ---------------------------------------------------------------------
 Center     Atomic      Atomic             Coordinates (Angstroms)
 Number     Number       Type             X           Y           Z
 ---------------------------------------------------------------------
      1          6           0       -2.556902    0.604740   -0.121258
      2          6           0       -3.674732    1.587470    0.229004
      3          6           0       -3.280078    3.043960   -0.017328
      4          1           0       -1.663846    0.849173    0.470053
      5          1           0       -2.279147    0.736957   -1.176135
      6          1           0       -3.951249    1.452485    1.282538
      7          1           0       -4.565292    1.340550   -0.363069
      8          1           0       -3.023913    3.200905   -1.070109
      9          1           0       -2.406381    3.313476    0.584848
     10          1           0       -4.093749    3.729346    0.239665
     11          6           0       -2.936332   -0.855305    0.119635
     12          6           0       -1.818502   -1.838034   -0.230627
     13          6           0       -2.213156   -3.294524    0.015705
     14          1           0       -3.214087   -0.987522    1.174512
     15          1           0       -3.829388   -1.099737   -0.471676
     16          1           0       -0.927943   -1.591115    0.361446
     17          1           0       -1.541985   -1.703049   -1.284161
     18          1           0       -3.086853   -3.564040   -0.586471
     19          1           0       -2.469322   -3.451470    1.068486
     20          1           0       -1.399485   -3.979910   -0.241288
     21          6           0        2.880745   -0.548581    0.334503
     22          6           0        2.326778   -1.736249   -0.453249
     23          6           0        2.603018   -3.077396    0.227054
     24          1           0        3.963617   -0.677832    0.467274
     25          1           0        2.440305   -0.547731    1.341183
     26          1           0        2.767081   -1.734061   -1.458606
     27          1           0        1.245130   -1.604060   -0.584326
     28          1           0        2.149435   -3.104763    1.223102
     29          1           0        3.680034   -3.235502    0.343856
     30          1           0        2.198445   -3.912670   -0.353030
     31          6           0        2.612489    0.799146   -0.332879
     32          6           0        3.166456    1.986813    0.454871
     33          6           0        2.890216    3.327960   -0.225431
     34          1           0        3.052929    0.798296   -1.339560
     35          1           0        1.529618    0.928397   -0.465652
     36          1           0        4.248104    1.854625    0.585949
     37          1           0        2.726153    1.984625    1.460229
     38          1           0        1.813202    3.486066   -0.342233
     39          1           0        3.343800    3.355327   -1.221480
     40          1           0        3.294790    4.163234    0.354653
 ---------------------------------------------------------------------

 SCF Done:  E(RHF) =  -470.733204121     A.U. after   11 cycles
 E2 =    -0.1583448191D+01 EUMP2 =    -0.47231665231189D+03

 The electronic state is 1-A.
 Alpha  occ. eigenvalues --  -11.21669 -11.21661 -11.21580 -11.21482 -11.21479
 Alpha  occ. eigenvalues --  -11.21420 -11.21366 -11.21307 -11.21120 -11.21119
 Alpha  occ. eigenvalues --  -11.21047 -11.21040  -1.08509  -1.08385  -1.03606
 Alpha  occ. eigenvalues --   -1.03477  -0.96041  -0.95941  -0.87059  -0.86955
 Alpha  occ. eigenvalues --   -0.79736  -0.79494  -0.78383  -0.78137  -0.65196
 Alpha  occ. eigenvalues --   -0.64971  -0.61084  -0.60827  -0.59450  -0.59260
 Alpha  occ. eigenvalues --   -0.57692  -0.57503  -0.55339  -0.55212  -0.52739
 Alpha  occ. eigenvalues --   -0.52626  -0.52480  -0.52353  -0.50005  -0.49874
 Alpha  occ. eigenvalues --   -0.48174  -0.47749  -0.46792  -0.46494  -0.46119
 Alpha  occ. eigenvalues --   -0.45789  -0.45713  -0.45293  -0.43848  -0.43735
 Alpha virt. eigenvalues --    0.20521   0.22760   0.23511   0.25244   0.25391
 Alpha virt. eigenvalues --    0.26494   0.26867   0.27249   0.28863   0.30062
 Alpha virt. eigenvalues --    0.30332   0.30618   0.31457   0.31729   0.32599

 Mulliken charges:
               1
     1  C   -0.299597
     2  C   -0.299652
     3  C   -0.475805
     4  H    0.149465
     5  H    0.149974
     6  H    0.152097
     7  H    0.152322
     8  H    0.155434
     9  H    0.154920
    10  H    0.160617
    11  C   -0.297581
    12  C   -0.304461
    13  C   -0.476219
    14  H    0.149622
    15  H    0.150056
    16  H    0.155564
    17  H    0.152730
    18  H    0.155442
    19  H    0.155259
    20  H    0.161407
    21  C   -0.297909
    22  C   -0.308821
    23  C   -0.475486
    24  H    0.149511
    25  H    0.148306
    26  H    0.151342
    27  H    0.162455
    28  H    0.154627
    29  H    0.155099
    30  H    0.159704
    31  C   -0.299865
    32  C   -0.299471
    33  C   -0.475799
    34  H    0.149519
    35  H    0.151183
    36  H    0.151913
    37  H    0.151354
    38  H    0.155477
    39  H    0.155170
    40  H    0.160096
 Sum of Mulliken charges =  -0.00000

 Dipole moment (field-independent basis, Debye):
    X=             -0.0623    Y=             -0.0050    Z=             -0.0165  Tot=              0.0647
 Quadrupole moment (field-independent basis, Debye-Ang):
   XX=            -83.9298   YY=            -87.0856   ZZ=            -83.7581
   XY=             -0.0122   XZ=             -0.1443   YZ=              0.6248

 Normal termination of Gaussian 16 at Thu May  6 05:16:29 2021.
