 Gaussian 16, Revision A.03,
 Gaussian 16:  EM64L-G16RevA.03 25-Dec-2016

 -------------
 #p 6-31g* mp2
 -------------

 ------------------------------------------------------
 Input file generated by CHIRIPA (05-May-2021 14:53:16)
 ------------------------------------------------------
 Symbolic Z-matrix:
 Charge =  0 Multiplicity = 1

                         Standard orientation:
 ---------------------------------------------------------------------
 Center     Atomic      Atomic             Coordinates (Angstroms)
 Number     Number       Type             X           Y           Z
 ---------------------------------------------------------------------
      1          6           0       -3.353717   -0.358993   -0.504140
      2          6           0       -4.348146   -1.497019   -0.271776
      3          6           0       -4.390122   -2.491573   -1.432334
      4          1           0       -3.619123    0.167824   -1.430945
      5          1           0       -2.352229   -0.782895   -0.661378
      6          1           0       -5.347217   -1.071027   -0.113648
      7          1           0       -4.080455   -2.021069    0.654684
      8          1           0       -3.405295   -2.943791   -1.587952
      9          1           0       -4.679255   -1.988351   -2.360650
     10          1           0       -5.107442   -3.296760   -1.245289
     11          6           0       -3.300340    0.643450    0.647375
     12          6           0       -2.305911    1.781476    0.415012
     13          6           0       -2.263935    2.776030    1.575570
     14          1           0       -4.301828    1.067352    0.804614
     15          1           0       -3.034934    0.116632    1.574180
     16          1           0       -2.573602    2.305526   -0.511449
     17          1           0       -1.306840    1.355484    0.256884
     18          1           0       -1.974802    2.272808    2.503886
     19          1           0       -3.248762    3.228248    1.731188
     20          1           0       -1.546615    3.581216    1.388524
     21          6           0        2.818015   -1.786122    1.818193
     22          6           0        1.846438   -0.782183    1.886493
     23          6           0        1.716192    0.151256    0.853887
     24          6           0        2.578091    0.050818   -0.237136
     25          6           0        3.556006   -0.937885   -0.334293
     26          6           0        3.668200   -1.860638    0.709971
     27          1           0        2.912182   -2.507089    2.624874
     28          1           0        1.184801   -0.721890    2.745938
     29          1           0        0.972773    0.938661    0.881080
     30          1           0        4.201098   -0.972457   -1.203823
     31          1           0        4.423657   -2.639241    0.654236
     32          7           0        2.449761    1.033351   -1.336482
     33          8           0        3.221304    0.923310   -2.286876
     34          8           0        1.580063    1.894898   -1.226938
 ---------------------------------------------------------------------

 SCF Done:  E(RHF) =  -669.535534509     A.U. after   15 cycles
 E2 =    -0.2091625077D+01 EUMP2 =    -0.67162715958564D+03

 The electronic state is 1-A.
 Alpha  occ. eigenvalues --  -20.60813 -20.60808 -15.85859 -11.31232 -11.27799
 Alpha  occ. eigenvalues --  -11.27785 -11.27545 -11.26824 -11.26814 -11.21624
 Alpha  occ. eigenvalues --  -11.21528 -11.21419 -11.21330 -11.21106 -11.21067
 Alpha  occ. eigenvalues --   -1.59883  -1.39436  -1.19406  -1.08800  -1.08432
 Alpha  occ. eigenvalues --   -1.04811  -1.03531  -0.95989  -0.95633  -0.87003
 Alpha  occ. eigenvalues --   -0.86210  -0.82463  -0.79580  -0.78235  -0.77503
 Alpha  occ. eigenvalues --   -0.72078  -0.71203  -0.70522  -0.65125  -0.65058
 Alpha  occ. eigenvalues --   -0.64786  -0.62196  -0.60915  -0.59334  -0.57576
 Alpha  occ. eigenvalues --   -0.55353  -0.55257  -0.53139  -0.52912  -0.52666
 Alpha  occ. eigenvalues --   -0.52401  -0.49944  -0.48843  -0.48836  -0.47880
 Alpha  occ. eigenvalues --   -0.46619  -0.45766  -0.45710  -0.44822  -0.43778
 Alpha  occ. eigenvalues --   -0.37387  -0.36410
 Alpha virt. eigenvalues --    0.04991   0.11182   0.16513   0.20306   0.22937
 Alpha virt. eigenvalues --    0.23913   0.26193   0.27092   0.27702   0.27891
 Alpha virt. eigenvalues --    0.29126   0.30488   0.31439   0.31727   0.32052

 Mulliken charges:
               1
     1  C   -0.298149
     2  C   -0.299338
     3  C   -0.475644
     4  H    0.153340
     5  H    0.149359
     6  H    0.152180
     7  H    0.149049
     8  H    0.154910
     9  H    0.156937
    10  H    0.159496
    11  C   -0.297801
    12  C   -0.304878
    13  C   -0.477748
    14  H    0.150292
    15  H    0.143143
    16  H    0.160131
    17  H    0.153698
    18  H    0.146656
    19  H    0.156734
    20  H    0.166470
    21  C   -0.170674
    22  C   -0.220632
    23  C   -0.176589
    24  C    0.157182
    25  C   -0.170536
    26  C   -0.218568
    27  H    0.225781
    28  H    0.223723
    29  H    0.285536
    30  H    0.275765
    31  H    0.223659
    32  N    0.487836
    33  O   -0.459941
    34  O   -0.461378
 Sum of Mulliken charges =  -0.00000

 Dipole moment (field-independent basis, Debye):
    X=              0.4563    Y=             -3.3913    Z=              3.7510  Tot=              5.0773
 Quadrupole moment (field-independent basis, Debye-Ang):
   XX=            -89.3036   YY=            -94.8227   ZZ=            -96.4750
   XY=            -11.8285   XZ=              8.4298   YZ=              1.1774

 Normal termination of Gaussian 16 at Thu May  6 05:57:10 2021.
