 Gaussian 16, Revision A.03,
 Gaussian 16:  EM64L-G16RevA.03 25-Dec-2016

 -------------
 #p 6-31g* mp2
 -------------

 ------------------------------------------------------
 Input file generated by CHIRIPA (05-May-2021 14:57:22)
 ------------------------------------------------------
 Symbolic Z-matrix:
 Charge =  0 Multiplicity = 1

                         Standard orientation:
 ---------------------------------------------------------------------
 Center     Atomic      Atomic             Coordinates (Angstroms)
 Number     Number       Type             X           Y           Z
 ---------------------------------------------------------------------
      1          6           0        1.367182   -0.913442    1.222822
      2          6           0        2.341032   -0.269015    1.992789
      3          6           0        3.531303    0.172757    1.407434
      4          6           0        3.715585   -0.047404    0.043301
      5          6           0        2.764281   -0.686344   -0.750468
      6          6           0        1.581536   -1.119686   -0.143939
      7          1           0        0.445474   -1.253348    1.685764
      8          1           0        2.177270   -0.107486    3.054455
      9          1           0        4.301963    0.674403    1.980018
     10          1           0        2.956068   -0.833062   -1.806455
     11          1           0        0.826985   -1.619869   -0.744369
     12          7           0        4.971687    0.415818   -0.587596
     13          8           0        5.109944    0.209781   -1.791370
     14          8           0        5.794180    0.976158    0.133627
     15          6           0       -3.665299    2.639945   -0.046710
     16          6           0       -2.425302    2.023108   -0.242771
     17          6           0       -2.326601    0.629725   -0.300163
     18          6           0       -3.493411   -0.119508   -0.157003
     19          6           0       -4.743338    0.465610    0.039489
     20          6           0       -4.818326    1.860602    0.093548
     21          1           0       -3.732762    3.722983   -0.003422
     22          1           0       -1.528179    2.625836   -0.352013
     23          1           0       -1.379421    0.126201   -0.450931
     24          1           0       -5.620074   -0.161773    0.145057
     25          1           0       -5.782664    2.336923    0.245918
     26          7           0       -3.401473   -1.595470   -0.215996
     27          8           0       -4.444260   -2.233128   -0.087061
     28          8           0       -2.288364   -2.086725   -0.390054
 ---------------------------------------------------------------------

 SCF Done:  E(RHF) =  -868.339997874     A.U. after   16 cycles
 E2 =    -0.2599828414D+01 EUMP2 =    -0.87093982628818D+03

 The electronic state is 1-A.
 Alpha  occ. eigenvalues --  -20.61803 -20.61732 -20.60778 -20.60773 -15.86802
 Alpha  occ. eigenvalues --  -15.85828 -11.31930 -11.31167 -11.28474 -11.28438
 Alpha  occ. eigenvalues --  -11.28128 -11.27746 -11.27695 -11.27409 -11.27399
 Alpha  occ. eigenvalues --  -11.27363 -11.26721 -11.26571  -1.60825  -1.59855
 Alpha  occ. eigenvalues --   -1.40394  -1.39409  -1.20073  -1.19324  -1.09504
 Alpha  occ. eigenvalues --   -1.08704  -1.05435  -1.04707  -0.96383  -0.95545
 Alpha  occ. eigenvalues --   -0.86849  -0.86082  -0.83225  -0.82370  -0.78318
 Alpha  occ. eigenvalues --   -0.77434  -0.73033  -0.72136  -0.72042  -0.71184
 Alpha  occ. eigenvalues --   -0.71174  -0.70359  -0.65726  -0.65442  -0.64947
 Alpha  occ. eigenvalues --   -0.64636  -0.62793  -0.62011  -0.55929  -0.55127
 Alpha  occ. eigenvalues --   -0.53783  -0.53550  -0.53027  -0.52742  -0.49797
 Alpha  occ. eigenvalues --   -0.49737  -0.48804  -0.48795  -0.45845  -0.44821
 Alpha  occ. eigenvalues --   -0.38033  -0.37316  -0.37011  -0.36335
 Alpha virt. eigenvalues --    0.04186   0.05075   0.10599   0.11126   0.15753
 Alpha virt. eigenvalues --    0.16585   0.20374   0.21820   0.25997   0.27113
 Alpha virt. eigenvalues --    0.28196   0.28725   0.30625   0.31216   0.31711

 Mulliken charges:
               1
     1  C   -0.176979
     2  C   -0.219559
     3  C   -0.172010
     4  C    0.157942
     5  C   -0.172942
     6  C   -0.233667
     7  H    0.234807
     8  H    0.223108
     9  H    0.274919
    10  H    0.276298
    11  H    0.242925
    12  N    0.488003
    13  O   -0.460259
    14  O   -0.461072
    15  C   -0.169946
    16  C   -0.220604
    17  C   -0.175648
    18  C    0.157407
    19  C   -0.170144
    20  C   -0.218529
    21  H    0.228669
    22  H    0.227977
    23  H    0.273861
    24  H    0.276871
    25  H    0.225972
    26  N    0.490953
    27  O   -0.454049
    28  O   -0.474303
 Sum of Mulliken charges =  -0.00000

 Dipole moment (field-independent basis, Debye):
    X=             -5.0185    Y=              3.6029    Z=              2.4380  Tot=              6.6416
 Quadrupole moment (field-independent basis, Debye-Ang):
   XX=           -129.9764   YY=           -106.0811   ZZ=           -101.6727
   XY=            -23.6180   XZ=              8.1625   YZ=              0.6589

 Normal termination of Gaussian 16 at Fri May  7 00:10:37 2021.
