 Gaussian 16, Revision A.03,
 Gaussian 16:  EM64L-G16RevA.03 25-Dec-2016

 -------------
 #p 6-31g* mp2
 -------------

 ------------------------------------------------------
 Input file generated by CHIRIPA (05-May-2021 14:51:08)
 ------------------------------------------------------
 Symbolic Z-matrix:
 Charge =  0 Multiplicity = 1

                         Standard orientation:
 ---------------------------------------------------------------------
 Center     Atomic      Atomic             Coordinates (Angstroms)
 Number     Number       Type             X           Y           Z
 ---------------------------------------------------------------------
      1          6           0       -3.479311   -0.570638   -0.531521
      2          6           0       -3.264807   -1.704732    0.471376
      3          6           0       -4.149662   -2.919174    0.188606
      4          1           0       -4.535467   -0.268715   -0.513576
      5          1           0       -3.278133   -0.943993   -1.545192
      6          1           0       -3.464989   -1.328978    1.482984
      7          1           0       -2.209000   -2.003860    0.451178
      8          1           0       -3.944998   -3.321024   -0.809005
      9          1           0       -5.208124   -2.642307    0.228663
     10          1           0       -3.980090   -3.717871    0.917433
     11          6           0       -2.601787    0.650449   -0.262022
     12          6           0       -2.816291    1.784543   -1.264919
     13          6           0       -1.931436    2.998985   -0.982150
     14          1           0       -2.802965    1.023804    0.751648
     15          1           0       -1.545631    0.348526   -0.279968
     16          1           0       -3.872099    2.083671   -1.244722
     17          1           0       -2.616109    1.408789   -2.276528
     18          1           0       -0.872974    2.722118   -1.022207
     19          1           0       -2.136100    3.400835    0.015462
     20          1           0       -2.101008    3.797682   -1.710977
     21          6           0        2.802954    0.450990    0.931564
     22          6           0        1.346014    0.239419    1.344538
     23          6           0        0.885352    1.229078    2.415127
     24          1           0        3.445587    0.359935    1.817948
     25          1           0        2.926139    1.477833    0.560331
     26          1           0        1.225310   -0.787152    1.713587
     27          1           0        0.706793    0.330799    0.457035
     28          1           0        0.977130    2.258307    2.053376
     29          1           0        1.498594    1.134005    3.317068
     30          1           0       -0.158968    1.059883    2.695534
     31          6           0        3.278144   -0.530801   -0.138020
     32          6           0        4.735085   -0.319230   -0.550994
     33          6           0        5.195746   -1.308889   -1.621583
     34          1           0        3.154959   -1.557644    0.233213
     35          1           0        2.635511   -0.439745   -1.024404
     36          1           0        5.374306   -0.410609    0.336509
     37          1           0        4.855788    0.707342   -0.920044
     38          1           0        4.582503   -1.213815   -2.523524
     39          1           0        5.103968   -2.338118   -1.259832
     40          1           0        6.240065   -1.139694   -1.901991
 ---------------------------------------------------------------------

 SCF Done:  E(RHF) =  -470.733292193     A.U. after   11 cycles
 E2 =    -0.1583308099D+01 EUMP2 =    -0.47231660029217D+03

 The electronic state is 1-A.
 Alpha  occ. eigenvalues --  -11.21617 -11.21615 -11.21593 -11.21582 -11.21417
 Alpha  occ. eigenvalues --  -11.21397 -11.21354 -11.21336 -11.21099 -11.21086
 Alpha  occ. eigenvalues --  -11.21066 -11.21026  -1.08457  -1.08414  -1.03549
 Alpha  occ. eigenvalues --   -1.03513  -0.95991  -0.95966  -0.87003  -0.86987
 Alpha  occ. eigenvalues --   -0.79626  -0.79572  -0.78348  -0.78153  -0.65168
 Alpha  occ. eigenvalues --   -0.64980  -0.61013  -0.60854  -0.59388  -0.59307
 Alpha  occ. eigenvalues --   -0.57664  -0.57515  -0.55292  -0.55245  -0.52692
 Alpha  occ. eigenvalues --   -0.52656  -0.52431  -0.52373  -0.49975  -0.49880
 Alpha  occ. eigenvalues --   -0.47994  -0.47875  -0.46820  -0.46545  -0.46046
 Alpha  occ. eigenvalues --   -0.45747  -0.45740  -0.45280  -0.43788  -0.43777
 Alpha virt. eigenvalues --    0.20650   0.23145   0.23723   0.24857   0.25312
 Alpha virt. eigenvalues --    0.26330   0.26761   0.27863   0.28210   0.29379
 Alpha virt. eigenvalues --    0.30560   0.31467   0.31750   0.31947   0.32212

 Mulliken charges:
               1
     1  C   -0.297636
     2  C   -0.300042
     3  C   -0.475679
     4  H    0.149603
     5  H    0.149305
     6  H    0.151612
     7  H    0.152696
     8  H    0.155190
     9  H    0.155144
    10  H    0.160217
    11  C   -0.306831
    12  C   -0.299337
    13  C   -0.476336
    14  H    0.149683
    15  H    0.158369
    16  H    0.152094
    17  H    0.151580
    18  H    0.154746
    19  H    0.155879
    20  H    0.160306
    21  C   -0.297673
    22  C   -0.305973
    23  C   -0.476060
    24  H    0.149773
    25  H    0.149451
    26  H    0.151718
    27  H    0.156865
    28  H    0.155549
    29  H    0.154740
    30  H    0.161574
    31  C   -0.298222
    32  C   -0.299636
    33  C   -0.475719
    34  H    0.149524
    35  H    0.148829
    36  H    0.152094
    37  H    0.152010
    38  H    0.155061
    39  H    0.155182
    40  H    0.160350
 Sum of Mulliken charges =  -0.00000

 Dipole moment (field-independent basis, Debye):
    X=             -0.0063    Y=              0.0030    Z=              0.0079  Tot=              0.0106
 Quadrupole moment (field-independent basis, Debye-Ang):
   XX=            -84.7520   YY=            -85.5356   ZZ=            -84.4981
   XY=             -0.7449   XZ=              0.0990   YZ=             -0.7996

 Normal termination of Gaussian 16 at Thu May  6 03:41:34 2021.
