 Gaussian 16, Revision A.03,
 Gaussian 16:  EM64L-G16RevA.03 25-Dec-2016

 -------------
 #p 6-31g* mp2
 -------------

 ------------------------------------------------------
 Input file generated by CHIRIPA (05-May-2021 14:55:25)
 ------------------------------------------------------
 Symbolic Z-matrix:
 Charge =  0 Multiplicity = 1

                         Standard orientation:
 ---------------------------------------------------------------------
 Center     Atomic      Atomic             Coordinates (Angstroms)
 Number     Number       Type             X           Y           Z
 ---------------------------------------------------------------------
      1          6           0       -1.430931   -1.141199    2.076012
      2          6           0       -2.482360   -1.881618    1.525742
      3          6           0       -3.224984   -1.373254    0.455871
      4          6           0       -2.887379   -0.115405   -0.041249
      5          6           0       -1.845499    0.646415    0.485445
      6          6           0       -1.116410    0.118234    1.555026
      7          1           0       -0.859300   -1.543805    2.907001
      8          1           0       -2.728863   -2.859992    1.928317
      9          1           0       -4.043982   -1.925177    0.010853
     10          1           0       -1.623397    1.618739    0.062746
     11          1           0       -0.300382    0.695484    1.980379
     12          7           0       -3.666397    0.433266   -1.173720
     13          8           0       -3.349021    1.543938   -1.593623
     14          8           0       -4.579617   -0.257746   -1.620004
     15          6           0        3.361540    0.992833   -0.336334
     16          6           0        2.815659    1.750076    0.874692
     17          6           0        2.480287    3.207898    0.558349
     18          1           0        4.260010    1.505219   -0.706682
     19          1           0        2.622255    1.032098   -1.148313
     20          1           0        3.555172    1.708215    1.684620
     21          1           0        1.918493    1.235720    1.242318
     22          1           0        1.725304    3.266686   -0.232312
     23          1           0        3.371283    3.741865    0.212503
     24          1           0        2.091709    3.730452    1.438010
     25          6           0        3.701467   -0.465901   -0.035879
     26          6           0        4.247349   -1.223143   -1.246904
     27          6           0        4.582720   -2.680966   -0.930562
     28          1           0        4.440752   -0.505166    0.776100
     29          1           0        2.802997   -0.978285    0.334470
     30          1           0        5.144514   -0.708787   -1.614530
     31          1           0        3.507835   -1.181282   -2.056832
     32          1           0        3.691725   -3.214931   -0.584716
     33          1           0        5.337703   -2.739753   -0.139901
     34          1           0        4.971299   -3.203519   -1.810223
 ---------------------------------------------------------------------

 SCF Done:  E(RHF) =  -669.535573435     A.U. after   15 cycles
 E2 =    -0.2091359503D+01 EUMP2 =    -0.67162693293758D+03

 The electronic state is 1-A.
 Alpha  occ. eigenvalues --  -20.60789 -20.60784 -15.85843 -11.31216 -11.27792
 Alpha  occ. eigenvalues --  -11.27787 -11.27532 -11.26802 -11.26779 -11.22374
 Alpha  occ. eigenvalues --  -11.21962 -11.21915 -11.21844 -11.21709 -11.21409
 Alpha  occ. eigenvalues --   -1.59865  -1.39418  -1.19392  -1.08960  -1.08783
 Alpha  occ. eigenvalues --   -1.04797  -1.04059  -0.96484  -0.95617  -0.87500
 Alpha  occ. eigenvalues --   -0.86194  -0.82451  -0.80139  -0.78766  -0.77494
 Alpha  occ. eigenvalues --   -0.72061  -0.71188  -0.70496  -0.65631  -0.65042
 Alpha  occ. eigenvalues --   -0.64787  -0.62194  -0.61409  -0.59864  -0.58099
 Alpha  occ. eigenvalues --   -0.55765  -0.55291  -0.53194  -0.53121  -0.52939
 Alpha  occ. eigenvalues --   -0.52867  -0.50420  -0.48828  -0.48815  -0.48433
 Alpha  occ. eigenvalues --   -0.47165  -0.46303  -0.46206  -0.44822  -0.44301
 Alpha  occ. eigenvalues --   -0.37371  -0.36393
 Alpha virt. eigenvalues --    0.05034   0.11181   0.16450   0.19784   0.22772
 Alpha virt. eigenvalues --    0.23741   0.25429   0.26439   0.27225   0.28465
 Alpha virt. eigenvalues --    0.28670   0.29810   0.31218   0.31417   0.32250

 Mulliken charges:
               1
     1  C   -0.171951
     2  C   -0.218629
     3  C   -0.170775
     4  C    0.158555
     5  C   -0.172713
     6  C   -0.222802
     7  H    0.226205
     8  H    0.223580
     9  H    0.275751
    10  H    0.275940
    11  H    0.230408
    12  N    0.488101
    13  O   -0.460392
    14  O   -0.460369
    15  C   -0.298315
    16  C   -0.304095
    17  C   -0.477504
    18  H    0.152560
    19  H    0.152924
    20  H    0.153812
    21  H    0.142764
    22  H    0.157051
    23  H    0.160095
    24  H    0.159097
    25  C   -0.298571
    26  C   -0.300295
    27  C   -0.475916
    28  H    0.149104
    29  H    0.147290
    30  H    0.153257
    31  H    0.154564
    32  H    0.154248
    33  H    0.154818
    34  H    0.162205
 Sum of Mulliken charges =  -0.00000

 Dipole moment (field-independent basis, Debye):
    X=              2.8511    Y=             -1.9256    Z=              3.9086  Tot=              5.2071
 Quadrupole moment (field-independent basis, Debye-Ang):
   XX=           -108.2791   YY=            -91.9928   ZZ=            -95.7561
   XY=              8.7718   XZ=            -11.6949   YZ=             -0.3174

 Normal termination of Gaussian 16 at Thu May  6 17:44:23 2021.
