 Gaussian 16, Revision A.03,
 Gaussian 16:  EM64L-G16RevA.03 25-Dec-2016

 -------------
 #p 6-31g* mp2
 -------------

 ------------------------------------------------------
 Input file generated by CHIRIPA (05-May-2021 14:55:19)
 ------------------------------------------------------
 Symbolic Z-matrix:
 Charge =  0 Multiplicity = 1

                         Standard orientation:
 ---------------------------------------------------------------------
 Center     Atomic      Atomic             Coordinates (Angstroms)
 Number     Number       Type             X           Y           Z
 ---------------------------------------------------------------------
      1          6           0        1.129637   -1.277299    1.433832
      2          6           0        0.833581   -0.410436    0.376751
      3          6           0        1.859951    0.166698   -0.376926
      4          6           0        3.177050   -0.146394   -0.044491
      5          6           0        3.504110   -1.006342    1.002796
      6          6           0        2.461608   -1.571966    1.742936
      7          1           0        0.326062   -1.721160    2.014049
      8          1           0       -0.199922   -0.179789    0.134434
      9          1           0        1.659072    0.841085   -1.200496
     10          1           0        4.544081   -1.217250    1.220505
     11          1           0        2.694497   -2.244838    2.563333
     12          7           0        4.272161    0.458500   -0.835210
     13          8           0        5.424319    0.166615   -0.522203
     14          8           0        3.957616    1.213047   -1.753010
     15          6           0       -3.732149   -0.316360   -0.527143
     16          6           0       -4.840269   -1.353629   -0.342407
     17          6           0       -4.619202   -2.611055   -1.183717
     18          1           0       -3.668584   -0.042237   -1.589105
     19          1           0       -2.766905   -0.770253   -0.263174
     20          1           0       -5.803304   -0.897499   -0.605322
     21          1           0       -4.901332   -1.625172    0.719267
     22          1           0       -3.672609   -3.091849   -0.916512
     23          1           0       -4.579706   -2.360041   -2.248628
     24          1           0       -5.422979   -3.339126   -1.036361
     25          6           0       -3.939052    0.946344    0.307422
     26          6           0       -2.830932    1.983613    0.122685
     27          6           0       -3.051999    3.241038    0.963996
     28          1           0       -4.904296    1.400236    0.043452
     29          1           0       -4.002617    0.672221    1.369383
     30          1           0       -2.769869    2.255155   -0.938989
     31          1           0       -1.867897    1.527482    0.385601
     32          1           0       -3.091495    2.990024    2.028905
     33          1           0       -3.998592    3.721832    0.696790
     34          1           0       -2.248221    3.969110    0.816640
 ---------------------------------------------------------------------

 SCF Done:  E(RHF) =  -669.535390347     A.U. after   15 cycles
 E2 =    -0.2091601058D+01 EUMP2 =    -0.67162699140532D+03

 The electronic state is 1-A.
 Alpha  occ. eigenvalues --  -20.60740 -20.60735 -15.85793 -11.31159 -11.27736
 Alpha  occ. eigenvalues --  -11.27722 -11.27480 -11.26751 -11.26704 -11.22517
 Alpha  occ. eigenvalues --  -11.22388 -11.22330 -11.22222 -11.21730 -11.21729
 Alpha  occ. eigenvalues --   -1.59816  -1.39369  -1.19334  -1.09299  -1.08730
 Alpha  occ. eigenvalues --   -1.04736  -1.04308  -0.96737  -0.95564  -0.87749
 Alpha  occ. eigenvalues --   -0.86140  -0.82398  -0.80387  -0.79142  -0.77437
 Alpha  occ. eigenvalues --   -0.72012  -0.71138  -0.70447  -0.65996  -0.64985
 Alpha  occ. eigenvalues --   -0.64712  -0.62115  -0.61677  -0.60102  -0.58355
 Alpha  occ. eigenvalues --   -0.56024  -0.55247  -0.53413  -0.53158  -0.53061
 Alpha  occ. eigenvalues --   -0.52846  -0.50681  -0.48787  -0.48766  -0.48678
 Alpha  occ. eigenvalues --   -0.47428  -0.46627  -0.46573  -0.44774  -0.44583
 Alpha  occ. eigenvalues --   -0.37318  -0.36333
 Alpha virt. eigenvalues --    0.05090   0.11252   0.16534   0.19122   0.22710
 Alpha virt. eigenvalues --    0.23593   0.24535   0.26226   0.27192   0.28138
 Alpha virt. eigenvalues --    0.29445   0.30358   0.31054   0.31330   0.32109

 Mulliken charges:
               1
     1  C   -0.173088
     2  C   -0.228925
     3  C   -0.173365
     4  C    0.158923
     5  C   -0.171042
     6  C   -0.218507
     7  H    0.224967
     8  H    0.238283
     9  H    0.276271
    10  H    0.275545
    11  H    0.223244
    12  N    0.488048
    13  O   -0.460624
    14  O   -0.460347
    15  C   -0.301232
    16  C   -0.300010
    17  C   -0.476046
    18  H    0.153367
    19  H    0.141033
    20  H    0.155455
    21  H    0.151629
    22  H    0.153410
    23  H    0.157538
    24  H    0.162858
    25  C   -0.298811
    26  C   -0.304989
    27  C   -0.475615
    28  H    0.154167
    29  H    0.149444
    30  H    0.155153
    31  H    0.145365
    32  H    0.155818
    33  H    0.158213
    34  H    0.163871
 Sum of Mulliken charges =  -0.00000

 Dipole moment (field-independent basis, Debye):
    X=             -4.0757    Y=             -2.0649    Z=              2.7536  Tot=              5.3346
 Quadrupole moment (field-independent basis, Debye-Ang):
   XX=           -116.1061   YY=            -93.9613   ZZ=            -93.5707
   XY=             -8.4922   XZ=             11.8497   YZ=             -2.7458

 Normal termination of Gaussian 16 at Thu May  6 04:28:25 2021.
