 Gaussian 16, Revision A.03,
 Gaussian 16:  EM64L-G16RevA.03 25-Dec-2016

 -------------
 #p 6-31g* mp2
 -------------

 ------------------------------------------------------
 Input file generated by CHIRIPA (05-May-2021 14:53:18)
 ------------------------------------------------------
 Symbolic Z-matrix:
 Charge =  0 Multiplicity = 1

                         Standard orientation:
 ---------------------------------------------------------------------
 Center     Atomic      Atomic             Coordinates (Angstroms)
 Number     Number       Type             X           Y           Z
 ---------------------------------------------------------------------
      1          6           0       -2.700705    0.379368    0.726458
      2          6           0       -2.643981    1.851928    1.134298
      3          6           0       -1.433819    2.176424    2.010657
      4          1           0       -2.723141   -0.244326    1.630586
      5          1           0       -1.777861    0.118908    0.189883
      6          1           0       -3.567262    2.109890    1.668737
      7          1           0       -2.621871    2.472196    0.229094
      8          1           0       -0.502870    1.946775    1.482268
      9          1           0       -1.453633    1.582410    2.930090
     10          1           0       -1.412956    3.234283    2.290583
     11          6           0       -3.904935    0.039418   -0.149894
     12          6           0       -3.961658   -1.433142   -0.557734
     13          6           0       -5.171820   -1.757638   -1.434093
     14          1           0       -4.827779    0.299878    0.386682
     15          1           0       -3.882498    0.663112   -1.054022
     16          1           0       -3.983769   -2.053410    0.347470
     17          1           0       -3.038378   -1.691104   -1.092172
     18          1           0       -5.152007   -1.163624   -2.353525
     19          1           0       -6.102769   -1.527989   -0.905703
     20          1           0       -5.192683   -2.815497   -1.714019
     21          6           0        2.073533    1.946616   -1.512122
     22          6           0        3.399723    1.546562   -1.317975
     23          6           0        3.692280    0.379166   -0.606535
     24          6           0        2.629323   -0.367596   -0.100807
     25          6           0        1.297610    0.004696   -0.277530
     26          6           0        1.028550    1.175765   -0.992197
     27          1           0        1.855394    2.854905   -2.066039
     28          1           0        4.213288    2.143249   -1.720618
     29          1           0        4.709800    0.046256   -0.441486
     30          1           0        0.507870   -0.610828    0.135820
     31          1           0       -0.002348    1.484021   -1.141429
     32          7           0        2.926601   -1.605410    0.654070
     33          8           0        1.972186   -2.245817    1.089507
     34          8           0        4.108396   -1.911763    0.796012
 ---------------------------------------------------------------------

 SCF Done:  E(RHF) =  -669.534696746     A.U. after   15 cycles
 E2 =    -0.2093448275D+01 EUMP2 =    -0.67162814502048D+03

 The electronic state is 1-A.
 Alpha  occ. eigenvalues --  -20.60765 -20.60759 -15.85818 -11.31198 -11.27783
 Alpha  occ. eigenvalues --  -11.27754 -11.27530 -11.26798 -11.26782 -11.22274
 Alpha  occ. eigenvalues --  -11.22139 -11.21977 -11.21907 -11.21513 -11.21353
 Alpha  occ. eigenvalues --   -1.59839  -1.39391  -1.19387  -1.09028  -1.08773
 Alpha  occ. eigenvalues --   -1.04808  -1.04017  -0.96467  -0.95605  -0.87478
 Alpha  occ. eigenvalues --   -0.86186  -0.82456  -0.80090  -0.78859  -0.77471
 Alpha  occ. eigenvalues --   -0.72037  -0.71162  -0.70497  -0.65757  -0.65023
 Alpha  occ. eigenvalues --   -0.64784  -0.62227  -0.61317  -0.59826  -0.58078
 Alpha  occ. eigenvalues --   -0.55798  -0.55289  -0.53184  -0.53119  -0.52924
 Alpha  occ. eigenvalues --   -0.52766  -0.50412  -0.48798  -0.48791  -0.48380
 Alpha  occ. eigenvalues --   -0.47140  -0.46345  -0.46294  -0.44793  -0.44304
 Alpha  occ. eigenvalues --   -0.37363  -0.36354
 Alpha virt. eigenvalues --    0.05025   0.11235   0.16382   0.19213   0.22922
 Alpha virt. eigenvalues --    0.23912   0.24922   0.26100   0.27592   0.28218
 Alpha virt. eigenvalues --    0.29992   0.30302   0.31265   0.31551   0.31965

 Mulliken charges:
               1
     1  C   -0.304477
     2  C   -0.301105
     3  C   -0.482521
     4  H    0.158218
     5  H    0.140142
     6  H    0.156756
     7  H    0.145587
     8  H    0.156426
     9  H    0.160617
    10  H    0.161321
    11  C   -0.297809
    12  C   -0.300316
    13  C   -0.476113
    14  H    0.152870
    15  H    0.146713
    16  H    0.156278
    17  H    0.150961
    18  H    0.154196
    19  H    0.156100
    20  H    0.163099
    21  C   -0.171665
    22  C   -0.218810
    23  C   -0.170450
    24  C    0.160307
    25  C   -0.177240
    26  C   -0.221810
    27  H    0.225993
    28  H    0.223712
    29  H    0.275794
    30  H    0.281893
    31  H    0.227430
    32  N    0.488572
    33  O   -0.460165
    34  O   -0.460504
 Sum of Mulliken charges =  -0.00000

 Dipole moment (field-independent basis, Debye):
    X=             -1.1422    Y=              4.2898    Z=             -2.5825  Tot=              5.1358
 Quadrupole moment (field-independent basis, Debye-Ang):
   XX=            -95.1252   YY=            -98.6042   ZZ=            -94.3900
   XY=             12.9224   XZ=             -9.0132   YZ=             -0.0569

 Normal termination of Gaussian 16 at Thu May  6 17:21:57 2021.
