 Gaussian 16, Revision A.03,
 Gaussian 16:  EM64L-G16RevA.03 25-Dec-2016

 -------------
 #p 6-31g* mp2
 -------------

 ------------------------------------------------------
 Input file generated by CHIRIPA (05-May-2021 14:57:26)
 ------------------------------------------------------
 Symbolic Z-matrix:
 Charge =  0 Multiplicity = 1

                         Standard orientation:
 ---------------------------------------------------------------------
 Center     Atomic      Atomic             Coordinates (Angstroms)
 Number     Number       Type             X           Y           Z
 ---------------------------------------------------------------------
      1          6           0       -2.107206    1.177536   -0.106685
      2          6           0       -2.181969   -0.113515    0.426344
      3          6           0       -3.407724   -0.781999    0.498468
      4          6           0       -4.543913   -0.126716    0.026271
      5          6           0       -4.501817    1.159246   -0.510217
      6          6           0       -3.265327    1.808683   -0.572443
      7          1           0       -1.150841    1.689432   -0.158868
      8          1           0       -1.284192   -0.606119    0.788812
      9          1           0       -3.494185   -1.781790    0.906340
     10          1           0       -5.413992    1.624515   -0.863600
     11          1           0       -3.210261    2.811298   -0.986902
     12          7           0       -5.847247   -0.824328    0.097387
     13          8           0       -6.833687   -0.225256   -0.325324
     14          8           0       -5.857681   -1.956980    0.574491
     15          6           0        2.840757    2.032138    0.247615
     16          6           0        4.209736    2.131503    0.516953
     17          6           0        5.043883    1.018570    0.375081
     18          6           0        4.472996   -0.183583   -0.039896
     19          6           0        3.112830   -0.314311   -0.315845
     20          6           0        2.297630    0.811700   -0.167193
     21          1           0        2.200131    2.901771    0.360458
     22          1           0        4.634287    3.078035    0.839254
     23          1           0        6.107038    1.067499    0.576886
     24          1           0        2.718615   -1.271309   -0.635481
     25          1           0        1.234812    0.731598   -0.377067
     26          7           0        5.346041   -1.368718   -0.193679
     27          8           0        4.818605   -2.416462   -0.560666
     28          8           0        6.541237   -1.227441    0.055686
 ---------------------------------------------------------------------

 SCF Done:  E(RHF) =  -868.336183364     A.U. after   16 cycles
 E2 =    -0.2599900557D+01 EUMP2 =    -0.87093608392169D+03

 The electronic state is 1-A.
 Alpha  occ. eigenvalues --  -20.61364 -20.61357 -20.61243 -20.61237 -15.86425
 Alpha  occ. eigenvalues --  -15.86301 -11.31950 -11.31836 -11.28601 -11.28517
 Alpha  occ. eigenvalues --  -11.28411 -11.28402 -11.28394 -11.28346 -11.27746
 Alpha  occ. eigenvalues --  -11.27558 -11.27546 -11.27506  -1.60435  -1.60314
 Alpha  occ. eigenvalues --   -1.39984  -1.39862  -1.20161  -1.20037  -1.09539
 Alpha  occ. eigenvalues --   -1.09434  -1.05600  -1.05455  -0.96337  -0.96236
 Alpha  occ. eigenvalues --   -0.87011  -0.86862  -0.83173  -0.83050  -0.78187
 Alpha  occ. eigenvalues --   -0.78036  -0.72641  -0.72518  -0.71761  -0.71637
 Alpha  occ. eigenvalues --   -0.71320  -0.71221  -0.65826  -0.65770  -0.65658
 Alpha  occ. eigenvalues --   -0.65404  -0.62964  -0.62770  -0.56169  -0.56044
 Alpha  occ. eigenvalues --   -0.53905  -0.53799  -0.53689  -0.53552  -0.49413
 Alpha  occ. eigenvalues --   -0.49383  -0.49292  -0.49260  -0.45354  -0.45229
 Alpha  occ. eigenvalues --   -0.38161  -0.38074  -0.37197  -0.37041
 Alpha virt. eigenvalues --    0.04376   0.04475   0.10432   0.10570   0.15793
 Alpha virt. eigenvalues --    0.15875   0.17358   0.22079   0.24773   0.25629
 Alpha virt. eigenvalues --    0.27599   0.28986   0.30227   0.30528   0.32041

 Mulliken charges:
               1
     1  C   -0.173035
     2  C   -0.219348
     3  C   -0.169570
     4  C    0.159506
     5  C   -0.169965
     6  C   -0.217378
     7  H    0.216152
     8  H    0.221788
     9  H    0.278721
    10  H    0.277885
    11  H    0.224443
    12  N    0.487880
    13  O   -0.458635
    14  O   -0.458091
    15  C   -0.170590
    16  C   -0.218086
    17  C   -0.169509
    18  C    0.159501
    19  C   -0.170728
    20  C   -0.223520
    21  H    0.222465
    22  H    0.226124
    23  H    0.278441
    24  H    0.277091
    25  H    0.217507
    26  N    0.487921
    27  O   -0.458944
    28  O   -0.458025
 Sum of Mulliken charges =  -0.00000

 Dipole moment (field-independent basis, Debye):
    X=              1.5261    Y=              6.5551    Z=              0.3153  Tot=              6.7378
 Quadrupole moment (field-independent basis, Debye-Ang):
   XX=           -168.1535   YY=           -102.8607   ZZ=           -105.1647
   XY=              8.1338   XZ=              6.2678   YZ=             -1.1834

 Normal termination of Gaussian 16 at Fri May  7 09:41:01 2021.
