 Gaussian 16, Revision A.03,
 Gaussian 16:  EM64L-G16RevA.03 25-Dec-2016

 -------------
 #p 6-31g* mp2
 -------------

 ------------------------------------------------------
 Input file generated by CHIRIPA (05-May-2021 14:53:16)
 ------------------------------------------------------
 Symbolic Z-matrix:
 Charge =  0 Multiplicity = 1

                         Standard orientation:
 ---------------------------------------------------------------------
 Center     Atomic      Atomic             Coordinates (Angstroms)
 Number     Number       Type             X           Y           Z
 ---------------------------------------------------------------------
      1          6           0       -4.052965   -0.525611    0.288436
      2          6           0       -4.693877    0.374654   -0.768323
      3          6           0       -6.213735    0.462866   -0.626749
      4          1           0       -4.488337   -1.531720    0.216736
      5          1           0       -4.307638   -0.145290    1.287382
      6          1           0       -4.436924   -0.006453   -1.764992
      7          1           0       -4.256791    1.378687   -0.694226
      8          1           0       -6.486577    0.864226    0.354611
      9          1           0       -6.667734   -0.528784   -0.722239
     10          1           0       -6.651263    1.111428   -1.392122
     11          6           0       -2.533895   -0.623870    0.159992
     12          6           0       -1.892983   -1.524135    1.216752
     13          6           0       -0.373124   -1.612347    1.075178
     14          1           0       -2.279222   -1.004191   -0.838953
     15          1           0       -2.098522    0.382239    0.231692
     16          1           0       -2.330069   -2.528167    1.142654
     17          1           0       -2.149935   -1.143028    2.213421
     18          1           0        0.080874   -0.620697    1.170667
     19          1           0       -0.100283   -2.013707    0.093817
     20          1           0        0.064403   -2.260909    1.840551
     21          6           0        0.750157    2.121924    0.319379
     22          6           0        0.686754    1.339305   -0.838209
     23          6           0        1.691119    0.409215   -1.122340
     24          6           0        2.749217    0.287285   -0.222978
     25          6           0        2.840657    1.052506    0.938644
     26          6           0        1.825012    1.976284    1.202553
     27          1           0       -0.034440    2.841988    0.532244
     28          1           0       -0.146808    1.450268   -1.525891
     29          1           0        1.666978   -0.209476   -2.011192
     30          1           0        3.684073    0.919308    1.605221
     31          1           0        1.876867    2.582733    2.102317
     32          7           0        3.818464   -0.694018   -0.513071
     33          8           0        4.740113   -0.782369    0.295257
     34          8           0        3.714646   -1.356229   -1.543282
 ---------------------------------------------------------------------

 SCF Done:  E(RHF) =  -669.533532726     A.U. after   15 cycles
 E2 =    -0.2095335560D+01 EUMP2 =    -0.67162886828650D+03

 The electronic state is 1-A.
 Alpha  occ. eigenvalues --  -20.60784 -20.60779 -15.85837 -11.31232 -11.27825
 Alpha  occ. eigenvalues --  -11.27747 -11.27545 -11.26863 -11.26756 -11.22179
 Alpha  occ. eigenvalues --  -11.21919 -11.21851 -11.21823 -11.21538 -11.20970
 Alpha  occ. eigenvalues --   -1.59856  -1.39410  -1.19429  -1.08900  -1.08791
 Alpha  occ. eigenvalues --   -1.04824  -1.03879  -0.96321  -0.95633  -0.87341
 Alpha  occ. eigenvalues --   -0.86211  -0.82459  -0.79975  -0.78732  -0.77497
 Alpha  occ. eigenvalues --   -0.72057  -0.71176  -0.70526  -0.65533  -0.65059
 Alpha  occ. eigenvalues --   -0.64809  -0.62161  -0.61306  -0.59715  -0.58004
 Alpha  occ. eigenvalues --   -0.55680  -0.55322  -0.53641  -0.52983  -0.52911
 Alpha  occ. eigenvalues --   -0.52329  -0.50207  -0.48817  -0.48809  -0.48168
 Alpha  occ. eigenvalues --   -0.46979  -0.46205  -0.46150  -0.44807  -0.44164
 Alpha  occ. eigenvalues --   -0.37382  -0.36348
 Alpha virt. eigenvalues --    0.05007   0.11115   0.16434   0.20655   0.22720
 Alpha virt. eigenvalues --    0.24115   0.25764   0.26053   0.27529   0.28125
 Alpha virt. eigenvalues --    0.28991   0.30748   0.31100   0.31553   0.31834

 Mulliken charges:
               1
     1  C   -0.298076
     2  C   -0.299182
     3  C   -0.475717
     4  H    0.152497
     5  H    0.149640
     6  H    0.151771
     7  H    0.146081
     8  H    0.155629
     9  H    0.157339
    10  H    0.160714
    11  C   -0.298473
    12  C   -0.299235
    13  C   -0.482081
    14  H    0.147054
    15  H    0.142204
    16  H    0.153396
    17  H    0.150220
    18  H    0.164841
    19  H    0.153577
    20  H    0.160740
    21  C   -0.175076
    22  C   -0.214370
    23  C   -0.169569
    24  C    0.161642
    25  C   -0.171736
    26  C   -0.218129
    27  H    0.225723
    28  H    0.225596
    29  H    0.275311
    30  H    0.276107
    31  H    0.224005
    32  N    0.488219
    33  O   -0.460312
    34  O   -0.460351
 Sum of Mulliken charges =  -0.00000

 Dipole moment (field-independent basis, Debye):
    X=             -3.7031    Y=              3.4460    Z=              1.0201  Tot=              5.1602
 Quadrupole moment (field-independent basis, Debye-Ang):
   XX=           -115.9733   YY=            -92.5069   ZZ=            -91.5612
   XY=              9.5944   XZ=              6.0234   YZ=              1.4129

 Normal termination of Gaussian 16 at Thu May  6 05:54:51 2021.
