 Gaussian 16, Revision A.03,
 Gaussian 16:  EM64L-G16RevA.03 25-Dec-2016

 -------------
 #p 6-31g* mp2
 -------------

 ------------------------------------------------------
 Input file generated by CHIRIPA (05-May-2021 14:51:09)
 ------------------------------------------------------
 Symbolic Z-matrix:
 Charge =  0 Multiplicity = 1

                         Standard orientation:
 ---------------------------------------------------------------------
 Center     Atomic      Atomic             Coordinates (Angstroms)
 Number     Number       Type             X           Y           Z
 ---------------------------------------------------------------------
      1          6           0       -2.382200    1.210115    0.001324
      2          6           0       -1.840044    1.745798    1.326878
      3          6           0       -1.815983    3.273617    1.381518
      4          1           0       -1.767722    1.598271   -0.822507
      5          1           0       -3.397602    1.599593   -0.155715
      6          1           0       -0.826494    1.354314    1.482033
      7          1           0       -2.455768    1.356168    2.147663
      8          1           0       -2.824430    3.679659    1.252034
      9          1           0       -1.185898    3.677795    0.582622
     10          1           0       -1.424924    3.635033    2.337714
     11          6           0       -2.412471   -0.315642   -0.068521
     12          6           0       -2.954627   -0.851325   -1.394076
     13          6           0       -2.978688   -2.379143   -1.448715
     14          1           0       -1.397069   -0.705120    0.088517
     15          1           0       -3.026949   -0.703798    0.755309
     16          1           0       -2.338903   -0.461694   -2.214861
     17          1           0       -3.968177   -0.459841   -1.549231
     18          1           0       -3.608773   -2.783322   -0.649819
     19          1           0       -1.970241   -2.785186   -1.319231
     20          1           0       -3.369747   -2.740560   -2.404911
     21          6           0        2.791400    0.206357    0.002605
     22          6           0        2.711880    0.898387   -1.358555
     23          6           0        3.505261    2.204601   -1.404876
     24          1           0        2.419108    0.890815    0.777113
     25          1           0        3.844600    0.005461    0.243030
     26          1           0        1.659047    1.096673   -1.596968
     27          1           0        3.084224    0.212133   -2.129938
     28          1           0        4.563333    2.020411   -1.192364
     29          1           0        3.130057    2.909977   -0.656366
     30          1           0        3.434672    2.682585   -2.386919
     31          6           0        2.003271   -1.100831    0.064593
     32          6           0        2.082791   -1.792860    1.425753
     33          6           0        1.289409   -3.099074    1.472073
     34          1           0        0.950071   -0.899934   -0.175833
     35          1           0        2.375563   -1.785288   -0.709915
     36          1           0        1.710446   -1.106606    2.197135
     37          1           0        3.135625   -1.991145    1.664165
     38          1           0        1.664615   -3.804450    0.723563
     39          1           0        0.231338   -2.914885    1.259561
     40          1           0        1.359999   -3.577058    2.454115
 ---------------------------------------------------------------------

 SCF Done:  E(RHF) =  -470.733428534     A.U. after   11 cycles
 E2 =    -0.1584025541D+01 EUMP2 =    -0.47231745407502D+03

 The electronic state is 1-A.
 Alpha  occ. eigenvalues --  -11.21680 -11.21666 -11.21639 -11.21637 -11.21469
 Alpha  occ. eigenvalues --  -11.21461 -11.21407 -11.21401 -11.21130 -11.21116
 Alpha  occ. eigenvalues --  -11.21087 -11.21085  -1.08522  -1.08460  -1.03586
 Alpha  occ. eigenvalues --   -1.03568  -0.96035  -0.96015  -0.87053  -0.87028
 Alpha  occ. eigenvalues --   -0.79662  -0.79620  -0.78397  -0.78223  -0.65395
 Alpha  occ. eigenvalues --   -0.64870  -0.61039  -0.60911  -0.59415  -0.59371
 Alpha  occ. eigenvalues --   -0.57663  -0.57610  -0.55385  -0.55247  -0.52718
 Alpha  occ. eigenvalues --   -0.52712  -0.52483  -0.52417  -0.50052  -0.49891
 Alpha  occ. eigenvalues --   -0.48038  -0.47904  -0.46811  -0.46643  -0.46222
 Alpha  occ. eigenvalues --   -0.45811  -0.45797  -0.45223  -0.43839  -0.43829
 Alpha virt. eigenvalues --    0.18715   0.22248   0.23546   0.24772   0.25581
 Alpha virt. eigenvalues --    0.26478   0.26966   0.27455   0.28307   0.30536
 Alpha virt. eigenvalues --    0.31443   0.31516   0.31721   0.31951   0.32118

 Mulliken charges:
               1
     1  C   -0.298264
     2  C   -0.300946
     3  C   -0.475792
     4  H    0.149521
     5  H    0.150205
     6  H    0.151822
     7  H    0.152430
     8  H    0.155593
     9  H    0.155211
    10  H    0.160414
    11  C   -0.308741
    12  C   -0.299207
    13  C   -0.476917
    14  H    0.158300
    15  H    0.150139
    16  H    0.152039
    17  H    0.152210
    18  H    0.155244
    19  H    0.156338
    20  H    0.160555
    21  C   -0.298513
    22  C   -0.299882
    23  C   -0.475829
    24  H    0.150030
    25  H    0.150041
    26  H    0.151169
    27  H    0.152268
    28  H    0.155472
    29  H    0.155366
    30  H    0.160395
    31  C   -0.307014
    32  C   -0.299391
    33  C   -0.478557
    34  H    0.156469
    35  H    0.149980
    36  H    0.152192
    37  H    0.152277
    38  H    0.155138
    39  H    0.157560
    40  H    0.160676
 Sum of Mulliken charges =  -0.00000

 Dipole moment (field-independent basis, Debye):
    X=             -0.0046    Y=             -0.0037    Z=              0.0008  Tot=              0.0059
 Quadrupole moment (field-independent basis, Debye-Ang):
   XX=            -83.3539   YY=            -86.6055   ZZ=            -84.5884
   XY=             -1.0372   XZ=             -0.5529   YZ=              0.1420

 Normal termination of Gaussian 16 at Wed May  5 18:09:15 2021.
