 Gaussian 16, Revision A.03,
 Gaussian 16:  EM64L-G16RevA.03 25-Dec-2016

 -------------
 #p 6-31g* mp2
 -------------

 ------------------------------------------------------
 Input file generated by CHIRIPA (05-May-2021 14:57:25)
 ------------------------------------------------------
 Symbolic Z-matrix:
 Charge =  0 Multiplicity = 1

                         Standard orientation:
 ---------------------------------------------------------------------
 Center     Atomic      Atomic             Coordinates (Angstroms)
 Number     Number       Type             X           Y           Z
 ---------------------------------------------------------------------
      1          6           0       -4.857444   -2.177819    0.631146
      2          6           0       -4.929003   -1.721735   -0.689228
      3          6           0       -4.358596   -0.497186   -1.049318
      4          6           0       -3.721422    0.248973   -0.059092
      5          6           0       -3.633579   -0.178359    1.264903
      6          6           0       -4.211100   -1.406036    1.602285
      7          1           0       -5.303313   -3.130293    0.902052
      8          1           0       -5.430334   -2.319004   -1.445523
      9          1           0       -4.399394   -0.120209   -2.064031
     10          1           0       -3.127205    0.439237    1.996735
     11          1           0       -4.153995   -1.757732    2.628488
     12          7           0       -3.113792    1.547003   -0.428283
     13          8           0       -2.558032    2.185620    0.462748
     14          8           0       -3.204798    1.901205   -1.601695
     15          6           0        1.485392    0.899504    0.184878
     16          6           0        1.798746   -0.002993   -0.836801
     17          6           0        3.089869   -0.527184   -0.949823
     18          6           0        4.047420   -0.125390   -0.019798
     19          6           0        3.766087    0.771997    1.009200
     20          6           0        2.468329    1.283442    1.103000
     21          1           0        0.479839    1.301756    0.265210
     22          1           0        1.037397   -0.302946   -1.551240
     23          1           0        3.359696   -1.227448   -1.731004
     24          1           0        4.546256    1.052229    1.706497
     25          1           0        2.227829    1.984167    1.897473
     26          7           0        5.417786   -0.673580   -0.129275
     27          8           0        6.243475   -0.303746    0.702649
     28          8           0        5.640242   -1.462705   -1.044934
 ---------------------------------------------------------------------

 SCF Done:  E(RHF) =  -868.339838875     A.U. after   16 cycles
 E2 =    -0.2598463441D+01 EUMP2 =    -0.87093830231663D+03

 The electronic state is 1-A.
 Alpha  occ. eigenvalues --  -20.61974 -20.61931 -20.60405 -20.60399 -15.86965
 Alpha  occ. eigenvalues --  -15.85456 -11.32074 -11.30698 -11.28616 -11.28593
 Alpha  occ. eigenvalues --  -11.28271 -11.27546 -11.27534 -11.27280 -11.27265
 Alpha  occ. eigenvalues --  -11.26822 -11.26214 -11.26184  -1.61017  -1.59484
 Alpha  occ. eigenvalues --   -1.40575  -1.39041  -1.20218  -1.18852  -1.09655
 Alpha  occ. eigenvalues --   -1.08239  -1.05574  -1.04249  -0.96531  -0.95097
 Alpha  occ. eigenvalues --   -0.86983  -0.85634  -0.83368  -0.81945  -0.78455
 Alpha  occ. eigenvalues --   -0.77038  -0.73179  -0.72341  -0.71675  -0.71306
 Alpha  occ. eigenvalues --   -0.70808  -0.69860  -0.65864  -0.65561  -0.64491
 Alpha  occ. eigenvalues --   -0.64238  -0.62922  -0.61608  -0.56065  -0.54624
 Alpha  occ. eigenvalues --   -0.53923  -0.53653  -0.52577  -0.52328  -0.49961
 Alpha  occ. eigenvalues --   -0.49914  -0.48438  -0.48421  -0.46015  -0.44475
 Alpha  occ. eigenvalues --   -0.38177  -0.37168  -0.36783  -0.35872
 Alpha virt. eigenvalues --    0.04017   0.05508   0.10486   0.11795   0.15550
 Alpha virt. eigenvalues --    0.17045   0.20672   0.22064   0.26611   0.27447
 Alpha virt. eigenvalues --    0.27825   0.28876   0.30361   0.31356   0.32264

 Mulliken charges:
               1
     1  C   -0.169676
     2  C   -0.218425
     3  C   -0.171508
     4  C    0.155820
     5  C   -0.171786
     6  C   -0.218019
     7  H    0.229038
     8  H    0.226398
     9  H    0.276654
    10  H    0.274482
    11  H    0.226356
    12  N    0.486411
    13  O   -0.465954
    14  O   -0.455462
    15  C   -0.177468
    16  C   -0.219850
    17  C   -0.171627
    18  C    0.157392
    19  C   -0.171634
    20  C   -0.220598
    21  H    0.241045
    22  H    0.222385
    23  H    0.273316
    24  H    0.273828
    25  H    0.224675
    26  N    0.488235
    27  O   -0.461795
    28  O   -0.462233
 Sum of Mulliken charges =  -0.00000

 Dipole moment (field-independent basis, Debye):
    X=             -7.4119    Y=             -2.6883    Z=              1.6892  Tot=              8.0632
 Quadrupole moment (field-independent basis, Debye-Ang):
   XX=           -128.2988   YY=           -107.0639   ZZ=            -97.5094
   XY=             26.9365   XZ=             -0.1142   YZ=              3.5362

 Normal termination of Gaussian 16 at Fri May  7 00:24:59 2021.
