 Gaussian 16, Revision A.03,
 Gaussian 16:  EM64L-G16RevA.03 25-Dec-2016

 -------------
 #p 6-31g* mp2
 -------------

 ------------------------------------------------------
 Input file generated by CHIRIPA (05-May-2021 14:57:26)
 ------------------------------------------------------
 Symbolic Z-matrix:
 Charge =  0 Multiplicity = 1

                         Standard orientation:
 ---------------------------------------------------------------------
 Center     Atomic      Atomic             Coordinates (Angstroms)
 Number     Number       Type             X           Y           Z
 ---------------------------------------------------------------------
      1          6           0        0.713667    1.584444   -0.805630
      2          6           0        1.657488    2.239790   -0.007980
      3          6           0        2.864842    1.616276    0.320765
      4          6           0        3.096643    0.331279   -0.167436
      5          6           0        2.176141   -0.347742   -0.964240
      6          6           0        0.975544    0.295043   -1.280377
      7          1           0       -0.221610    2.076290   -1.056110
      8          1           0        1.456803    3.241187    0.362121
      9          1           0        3.613032    2.100607    0.936439
     10          1           0        2.404567   -1.345659   -1.318362
     11          1           0        0.244397   -0.216320   -1.900035
     12          7           0        4.371238   -0.339008    0.173918
     13          8           0        4.551500   -1.471368   -0.268694
     14          8           0        5.165869    0.280672    0.877619
     15          6           0       -0.949898   -2.015043    0.597807
     16          6           0       -1.374543   -1.170102    1.628472
     17          6           0       -2.446509   -0.294317    1.432425
     18          6           0       -3.073805   -0.289650    0.187528
     19          6           0       -2.674072   -1.119308   -0.858977
     20          6           0       -1.599873   -1.987000   -0.640445
     21          1           0       -0.116302   -2.692231    0.758835
     22          1           0       -0.871641   -1.189729    2.591151
     23          1           0       -2.795860    0.370555    2.213014
     24          1           0       -3.195163   -1.077061   -1.807711
     25          1           0       -1.272248   -2.642065   -1.442690
     26          7           0       -4.209830    0.633220   -0.031921
     27          8           0       -4.745784    0.618181   -1.137888
     28          8           0       -4.542783    1.354131    0.906199
 ---------------------------------------------------------------------

 SCF Done:  E(RHF) =  -868.336366850     A.U. after   16 cycles
 E2 =    -0.2603495695D+01 EUMP2 =    -0.87093986254546D+03

 The electronic state is 1-A.
 Alpha  occ. eigenvalues --  -20.61559 -20.61552 -20.61227 -20.61209 -15.86615
 Alpha  occ. eigenvalues --  -15.86269 -11.32022 -11.31587 -11.28613 -11.28549
 Alpha  occ. eigenvalues --  -11.28225 -11.28124 -11.28061 -11.27722 -11.27581
 Alpha  occ. eigenvalues --  -11.27470 -11.27080 -11.27040  -1.60641  -1.60299
 Alpha  occ. eigenvalues --   -1.40190  -1.39854  -1.20193  -1.19709  -1.09558
 Alpha  occ. eigenvalues --   -1.09097  -1.05599  -1.05102  -0.96382  -0.95955
 Alpha  occ. eigenvalues --   -0.86980  -0.86492  -0.83213  -0.82798  -0.78278
 Alpha  occ. eigenvalues --   -0.77876  -0.72818  -0.72483  -0.71984  -0.71629
 Alpha  occ. eigenvalues --   -0.71229  -0.70779  -0.65815  -0.65582  -0.65346
 Alpha  occ. eigenvalues --   -0.65116  -0.62927  -0.62481  -0.56013  -0.55551
 Alpha  occ. eigenvalues --   -0.54364  -0.53655  -0.53288  -0.52890  -0.49584
 Alpha  occ. eigenvalues --   -0.49579  -0.49251  -0.49232  -0.45586  -0.45271
 Alpha  occ. eigenvalues --   -0.38434  -0.37625  -0.37226  -0.36315
 Alpha virt. eigenvalues --    0.04079   0.04787   0.10311   0.11018   0.15571
 Alpha virt. eigenvalues --    0.16283   0.20119   0.21603   0.25890   0.27071
 Alpha virt. eigenvalues --    0.27821   0.28495   0.29827   0.31350   0.31901

 Mulliken charges:
               1
     1  C   -0.173048
     2  C   -0.218782
     3  C   -0.173381
     4  C    0.158515
     5  C   -0.179764
     6  C   -0.207736
     7  H    0.229657
     8  H    0.225956
     9  H    0.275844
    10  H    0.269571
    11  H    0.222095
    12  N    0.487756
    13  O   -0.462892
    14  O   -0.458804
    15  C   -0.163682
    16  C   -0.215550
    17  C   -0.171415
    18  C    0.156238
    19  C   -0.177251
    20  C   -0.229270
    21  H    0.231503
    22  H    0.228471
    23  H    0.277414
    24  H    0.276291
    25  H    0.223740
    26  N    0.487076
    27  O   -0.459895
    28  O   -0.458656
 Sum of Mulliken charges =  -0.00000

 Dipole moment (field-independent basis, Debye):
    X=             -0.6126    Y=             -0.8526    Z=             -0.2357  Tot=              1.0760
 Quadrupole moment (field-independent basis, Debye-Ang):
   XX=           -158.7272   YY=            -98.1699   ZZ=            -98.9037
   XY=             16.3413   XZ=             -3.3835   YZ=              2.3795

 Normal termination of Gaussian 16 at Fri May  7 03:34:09 2021.
