 Gaussian 16, Revision A.03,
 Gaussian 16:  EM64L-G16RevA.03 25-Dec-2016

 -------------
 #p 6-31g* mp2
 -------------

 ------------------------------------------------------
 Input file generated by CHIRIPA (05-May-2021 14:57:27)
 ------------------------------------------------------
 Symbolic Z-matrix:
 Charge =  0 Multiplicity = 1

                         Standard orientation:
 ---------------------------------------------------------------------
 Center     Atomic      Atomic             Coordinates (Angstroms)
 Number     Number       Type             X           Y           Z
 ---------------------------------------------------------------------
      1          6           0       -2.747656    2.276683    0.841979
      2          6           0       -2.890219    1.241197    1.771476
      3          6           0       -3.037228   -0.081655    1.343695
      4          6           0       -3.037266   -0.334227   -0.027252
      5          6           0       -2.897261    0.675723   -0.977878
      6          6           0       -2.751625    1.991145   -0.527318
      7          1           0       -2.633989    3.301421    1.183137
      8          1           0       -2.887498    1.459998    2.835508
      9          1           0       -3.149391   -0.902468    2.041624
     10          1           0       -2.903790    0.426506   -2.032044
     11          1           0       -2.641097    2.793307   -1.251448
     12          7           0       -3.192172   -1.730739   -0.492182
     13          8           0       -3.188983   -1.926993   -1.705488
     14          8           0       -3.313843   -2.602627    0.365515
     15          6           0        0.929179    1.454327   -0.502883
     16          6           0        0.827430    0.180208    0.065264
     17          6           0        1.974610   -0.576864    0.320930
     18          6           0        3.213070   -0.026473   -0.005531
     19          6           0        3.347140    1.239969   -0.572488
     20          6           0        2.186492    1.979215   -0.819387
     21          1           0        0.032790    2.035516   -0.698084
     22          1           0       -0.147701   -0.229964    0.312094
     23          1           0        1.924688   -1.565886    0.759976
     24          1           0        4.333069    1.622113   -0.807705
     25          1           0        2.268536    2.968435   -1.260701
     26          7           0        4.434668   -0.818517    0.260491
     27          8           0        5.514041   -0.311050   -0.036269
     28          8           0        4.289650   -1.931790    0.760721
 ---------------------------------------------------------------------

 SCF Done:  E(RHF) =  -868.335999021     A.U. after   16 cycles
 E2 =    -0.2603880368D+01 EUMP2 =    -0.87093987938904D+03

 The electronic state is 1-A.
 Alpha  occ. eigenvalues --  -20.61820 -20.61812 -20.60683 -20.60671 -15.86884
 Alpha  occ. eigenvalues --  -15.85732 -11.32517 -11.31111 -11.29133 -11.29079
 Alpha  occ. eigenvalues --  -11.28869 -11.28178 -11.28088 -11.27709 -11.27639
 Alpha  occ. eigenvalues --  -11.27347 -11.26741 -11.26590  -1.60899  -1.59755
 Alpha  occ. eigenvalues --   -1.40438  -1.39308  -1.20770  -1.19282  -1.10077
 Alpha  occ. eigenvalues --   -1.08678  -1.06164  -1.04688  -0.96846  -0.95513
 Alpha  occ. eigenvalues --   -0.87525  -0.86091  -0.83654  -0.82346  -0.78666
 Alpha  occ. eigenvalues --   -0.77395  -0.73077  -0.72266  -0.71948  -0.71753
 Alpha  occ. eigenvalues --   -0.71079  -0.70440  -0.66349  -0.66100  -0.64932
 Alpha  occ. eigenvalues --   -0.64754  -0.63448  -0.62075  -0.56583  -0.55378
 Alpha  occ. eigenvalues --   -0.54408  -0.54180  -0.53028  -0.52648  -0.49866
 Alpha  occ. eigenvalues --   -0.49824  -0.48713  -0.48704  -0.45772  -0.44711
 Alpha  occ. eigenvalues --   -0.38754  -0.37851  -0.37183  -0.36271
 Alpha virt. eigenvalues --    0.03802   0.05168   0.09683   0.11359   0.15196
 Alpha virt. eigenvalues --    0.16681   0.20006   0.21789   0.25785   0.27144
 Alpha virt. eigenvalues --    0.27165   0.28922   0.29676   0.31161   0.31973

 Mulliken charges:
               1
     1  C   -0.170784
     2  C   -0.214274
     3  C   -0.178143
     4  C    0.152651
     5  C   -0.170943
     6  C   -0.232758
     7  H    0.230981
     8  H    0.230332
     9  H    0.281068
    10  H    0.281177
    11  H    0.226895
    12  N    0.487786
    13  O   -0.455683
    14  O   -0.456552
    15  C   -0.175767
    16  C   -0.224338
    17  C   -0.172758
    18  C    0.158516
    19  C   -0.171115
    20  C   -0.220109
    21  H    0.224006
    22  H    0.229648
    23  H    0.278097
    24  H    0.274736
    25  H    0.219932
    26  N    0.487952
    27  O   -0.461384
    28  O   -0.459169
 Sum of Mulliken charges =  -0.00000

 Dipole moment (field-independent basis, Debye):
    X=             -4.1594    Y=              7.5899    Z=              0.8114  Tot=              8.6928
 Quadrupole moment (field-independent basis, Debye-Ang):
   XX=           -134.7046   YY=           -105.7487   ZZ=           -100.1104
   XY=             -3.8395   XZ=             -9.6865   YZ=             -3.6854

 Normal termination of Gaussian 16 at Wed May  5 19:39:20 2021.
