 Gaussian 16, Revision A.03,
 Gaussian 16:  EM64L-G16RevA.03 25-Dec-2016

 -------------
 #p 6-31g* mp2
 -------------

 ------------------------------------------------------
 Input file generated by CHIRIPA (05-May-2021 14:53:16)
 ------------------------------------------------------
 Symbolic Z-matrix:
 Charge =  0 Multiplicity = 1

                         Standard orientation:
 ---------------------------------------------------------------------
 Center     Atomic      Atomic             Coordinates (Angstroms)
 Number     Number       Type             X           Y           Z
 ---------------------------------------------------------------------
      1          6           0       -3.477472    1.165583    0.449539
      2          6           0       -2.415490    2.067251   -0.180679
      3          6           0       -2.097081    3.293248    0.675674
      4          1           0       -4.394199    1.748529    0.613031
      5          1           0       -3.132005    0.841709    1.441080
      6          1           0       -2.762252    2.388208   -1.171314
      7          1           0       -1.501247    1.482041   -0.342866
      8          1           0       -1.726783    2.989795    1.660253
      9          1           0       -2.994953    3.901111    0.827098
     10          1           0       -1.335574    3.923932    0.206412
     11          6           0       -3.806566   -0.064278   -0.394776
     12          6           0       -4.868548   -0.965946    0.235442
     13          6           0       -5.186956   -2.191944   -0.620911
     14          1           0       -4.152033    0.259595   -1.386317
     15          1           0       -2.889838   -0.647224   -0.558268
     16          1           0       -5.782791   -0.380736    0.397629
     17          1           0       -4.521786   -1.286904    1.226077
     18          1           0       -4.289084   -2.799807   -0.772335
     19          1           0       -5.557254   -1.888491   -1.605490
     20          1           0       -5.948463   -2.822628   -0.151650
     21          6           0        1.035089   -2.153667    0.323008
     22          6           0        0.703959   -0.870607   -0.124909
     23          6           0        1.698727    0.092318   -0.319228
     24          6           0        3.020335   -0.263578   -0.054687
     25          6           0        3.381963   -1.533439    0.392491
     26          6           0        2.370680   -2.480412    0.579826
     27          1           0        0.255914   -2.895495    0.471248
     28          1           0       -0.332440   -0.614045   -0.325159
     29          1           0        1.470363    1.093107   -0.665191
     30          1           0        4.423941   -1.759612    0.583663
     31          1           0        2.630774   -3.476068    0.927769
     32          7           0        4.082193    0.747384   -0.256707
     33          8           0        5.239064    0.408865   -0.016515
     34          8           0        3.737501    1.859152   -0.651416
 ---------------------------------------------------------------------

 SCF Done:  E(RHF) =  -669.535139463     A.U. after   15 cycles
 E2 =    -0.2092083409D+01 EUMP2 =    -0.67162722287158D+03

 The electronic state is 1-A.
 Alpha  occ. eigenvalues --  -20.60742 -20.60737 -15.85795 -11.31162 -11.27733
 Alpha  occ. eigenvalues --  -11.27722 -11.27476 -11.26751 -11.26710 -11.22482
 Alpha  occ. eigenvalues --  -11.22422 -11.22356 -11.22199 -11.21823 -11.21615
 Alpha  occ. eigenvalues --   -1.59817  -1.39371  -1.19334  -1.09299  -1.08730
 Alpha  occ. eigenvalues --   -1.04742  -1.04306  -0.96734  -0.95565  -0.87742
 Alpha  occ. eigenvalues --   -0.86141  -0.82406  -0.80382  -0.79135  -0.77442
 Alpha  occ. eigenvalues --   -0.72014  -0.71140  -0.70448  -0.66027  -0.64988
 Alpha  occ. eigenvalues --   -0.64700  -0.62158  -0.61638  -0.60094  -0.58350
 Alpha  occ. eigenvalues --   -0.56027  -0.55245  -0.53399  -0.53147  -0.53067
 Alpha  occ. eigenvalues --   -0.52843  -0.50677  -0.48779  -0.48769  -0.48683
 Alpha  occ. eigenvalues --   -0.47436  -0.46638  -0.46556  -0.44776  -0.44578
 Alpha  occ. eigenvalues --   -0.37318  -0.36338
 Alpha virt. eigenvalues --    0.05085   0.11307   0.16544   0.18653   0.22756
 Alpha virt. eigenvalues --    0.23302   0.24695   0.26280   0.26372   0.27841
 Alpha virt. eigenvalues --    0.29496   0.30583   0.31078   0.31301   0.32108

 Mulliken charges:
               1
     1  C   -0.299663
     2  C   -0.303200
     3  C   -0.476873
     4  H    0.154600
     5  H    0.150401
     6  H    0.156291
     7  H    0.142110
     8  H    0.157314
     9  H    0.158134
    10  H    0.165285
    11  C   -0.301434
    12  C   -0.300198
    13  C   -0.475484
    14  H    0.154009
    15  H    0.140460
    16  H    0.155877
    17  H    0.151718
    18  H    0.151295
    19  H    0.157756
    20  H    0.163012
    21  C   -0.172663
    22  C   -0.228549
    23  C   -0.174151
    24  C    0.159096
    25  C   -0.171136
    26  C   -0.218544
    27  H    0.225303
    28  H    0.236768
    29  H    0.276488
    30  H    0.275532
    31  H    0.223313
    32  N    0.488122
    33  O   -0.460646
    34  O   -0.460342
 Sum of Mulliken charges =  -0.00000

 Dipole moment (field-independent basis, Debye):
    X=             -3.9655    Y=             -3.4366    Z=              0.7456  Tot=              5.3002
 Quadrupole moment (field-independent basis, Debye-Ang):
   XX=           -113.8399   YY=            -91.1215   ZZ=            -95.2206
   XY=            -13.4680   XZ=              3.6928   YZ=             -1.8266

 Normal termination of Gaussian 16 at Wed May  5 20:20:47 2021.
