 Gaussian 16, Revision A.03,
 Gaussian 16:  EM64L-G16RevA.03 25-Dec-2016

 -------------
 #p 6-31g* mp2
 -------------

 ------------------------------------------------------
 Input file generated by CHIRIPA (05-May-2021 14:55:24)
 ------------------------------------------------------
 Symbolic Z-matrix:
 Charge =  0 Multiplicity = 1

                         Standard orientation:
 ---------------------------------------------------------------------
 Center     Atomic      Atomic             Coordinates (Angstroms)
 Number     Number       Type             X           Y           Z
 ---------------------------------------------------------------------
      1          6           0        3.462490    1.090874   -1.578866
      2          6           0        3.824239    1.106569   -0.227788
      3          6           0        3.130776    0.326109    0.702018
      4          6           0        2.075976   -0.461869    0.244004
      5          6           0        1.691633   -0.499008   -1.095470
      6          6           0        2.399216    0.289548   -2.007639
      7          1           0        4.006673    1.700299   -2.294312
      8          1           0        4.649569    1.727928    0.108053
      9          1           0        3.389721    0.319287    1.753835
     10          1           0        0.864453   -1.128548   -1.400220
     11          1           0        2.116064    0.275370   -3.056290
     12          7           0        1.334364   -1.292393    1.219013
     13          8           0        0.408840   -1.978043    0.790146
     14          8           0        1.692655   -1.241981    2.393629
     15          6           0       -2.543622   -0.291217   -0.208399
     16          6           0       -3.599295   -1.277125   -0.709918
     17          6           0       -3.043765   -2.687687   -0.908658
     18          1           0       -1.710079   -0.261188   -0.923416
     19          1           0       -2.128800   -0.659915    0.739957
     20          1           0       -4.012987   -0.905978   -1.656346
     21          1           0       -4.430510   -1.304668    0.006279
     22          1           0       -2.648231   -3.082151    0.032910
     23          1           0       -2.228337   -2.681197   -1.639161
     24          1           0       -3.815228   -3.376131   -1.267476
     25          6           0       -3.083777    1.123188   -0.004878
     26          6           0       -2.028103    2.109096    0.496642
     27          6           0       -2.583633    3.519658    0.695382
     28          1           0       -3.498598    1.491885   -0.953234
     29          1           0       -3.917320    1.093159    0.710139
     30          1           0       -1.196888    2.136638   -0.219556
     31          1           0       -1.614411    1.737948    1.443070
     32          1           0       -3.399062    3.513167    1.425885
     33          1           0       -2.979167    3.914122   -0.246187
     34          1           0       -1.812171    4.208102    1.054199
 ---------------------------------------------------------------------

 SCF Done:  E(RHF) =  -669.535842173     A.U. after   15 cycles
 E2 =    -0.2092936121D+01 EUMP2 =    -0.67162877829398D+03

 The electronic state is 1-A.
 Alpha  occ. eigenvalues --  -20.60898 -20.60870 -15.85909 -11.31251 -11.27814
 Alpha  occ. eigenvalues --  -11.27810 -11.27554 -11.26829 -11.26819 -11.21297
 Alpha  occ. eigenvalues --  -11.20954 -11.20917 -11.20865 -11.20615 -11.20252
 Alpha  occ. eigenvalues --   -1.59946  -1.39501  -1.19418  -1.08820  -1.07894
 Alpha  occ. eigenvalues --   -1.04819  -1.03016  -0.95662  -0.95448  -0.86464
 Alpha  occ. eigenvalues --   -0.86217  -0.82500  -0.79106  -0.77809  -0.77410
 Alpha  occ. eigenvalues --   -0.72136  -0.71252  -0.70530  -0.65076  -0.64840
 Alpha  occ. eigenvalues --   -0.64522  -0.62169  -0.60422  -0.58836  -0.57055
 Alpha  occ. eigenvalues --   -0.55325  -0.54733  -0.53145  -0.52916  -0.52181
 Alpha  occ. eigenvalues --   -0.51858  -0.49386  -0.48916  -0.48902  -0.47405
 Alpha  occ. eigenvalues --   -0.46148  -0.45535  -0.45177  -0.44455  -0.43258
 Alpha  occ. eigenvalues --   -0.37390  -0.36411
 Alpha virt. eigenvalues --    0.04950   0.11169   0.16439   0.20760   0.23212
 Alpha virt. eigenvalues --    0.24178   0.26082   0.27593   0.27676   0.28324
 Alpha virt. eigenvalues --    0.29131   0.30745   0.31542   0.32153   0.32474

 Mulliken charges:
               1
     1  C   -0.170485
     2  C   -0.218441
     3  C   -0.170615
     4  C    0.158791
     5  C   -0.171156
     6  C   -0.219489
     7  H    0.225848
     8  H    0.223677
     9  H    0.275651
    10  H    0.277851
    11  H    0.223664
    12  N    0.488591
    13  O   -0.459233
    14  O   -0.460189
    15  C   -0.299732
    16  C   -0.300516
    17  C   -0.473850
    18  H    0.138323
    19  H    0.169437
    20  H    0.145715
    21  H    0.151214
    22  H    0.170921
    23  H    0.147613
    24  H    0.154947
    25  C   -0.297983
    26  C   -0.300286
    27  C   -0.474964
    28  H    0.145080
    29  H    0.149923
    30  H    0.147351
    31  H    0.155012
    32  H    0.156182
    33  H    0.153182
    34  H    0.157967
 Sum of Mulliken charges =  -0.00000

 Dipole moment (field-independent basis, Debye):
    X=              2.7476    Y=              2.7786    Z=             -3.2413  Tot=              5.0770
 Quadrupole moment (field-independent basis, Debye-Ang):
   XX=            -83.0168   YY=            -98.8605   ZZ=            -93.2736
   XY=              6.7740   XZ=             -4.8782   YZ=              3.0252

 Normal termination of Gaussian 16 at Wed May  5 23:59:45 2021.
