 Gaussian 16, Revision A.03,
 Gaussian 16:  EM64L-G16RevA.03 25-Dec-2016

 -------------
 #p 6-31g* mp2
 -------------

 ------------------------------------------------------
 Input file generated by CHIRIPA (05-May-2021 14:57:24)
 ------------------------------------------------------
 Symbolic Z-matrix:
 Charge =  0 Multiplicity = 1

                         Standard orientation:
 ---------------------------------------------------------------------
 Center     Atomic      Atomic             Coordinates (Angstroms)
 Number     Number       Type             X           Y           Z
 ---------------------------------------------------------------------
      1          6           0       -5.934171    1.289825    0.322101
      2          6           0       -6.136260   -0.025656   -0.108237
      3          6           0       -5.050654   -0.887030   -0.292744
      4          6           0       -3.770781   -0.397628   -0.036424
      5          6           0       -3.537029    0.907753    0.393264
      6          6           0       -4.637486    1.751517    0.571040
      7          1           0       -6.783264    1.952121    0.462816
      8          1           0       -7.142168   -0.386932   -0.302334
      9          1           0       -5.178511   -1.910077   -0.625077
     10          1           0       -2.522550    1.239231    0.578663
     11          1           0       -4.477544    2.772649    0.905332
     12          7           0       -2.613638   -1.300204   -0.228190
     13          8           0       -1.495979   -0.844844    0.004456
     14          8           0       -2.846237   -2.445914   -0.607511
     15          6           0        2.687427    2.394397   -0.368545
     16          6           0        1.997948    1.211810   -0.081095
     17          6           0        2.693555    0.017186    0.127603
     18          6           0        4.084664    0.041450    0.040913
     19          6           0        4.800131    1.203497   -0.243771
     20          6           0        4.083855    2.386481   -0.448824
     21          1           0        2.139034    3.317889   -0.529250
     22          1           0        0.913481    1.214984   -0.018129
     23          1           0        2.184951   -0.912624    0.351645
     24          1           0        5.881364    1.168998   -0.300005
     25          1           0        4.621951    3.303396   -0.671904
     26          7           0        4.832013   -1.217083    0.259923
     27          8           0        6.057428   -1.169251    0.178033
     28          8           0        4.178217   -2.227522    0.509325
 ---------------------------------------------------------------------

 SCF Done:  E(RHF) =  -868.338986862     A.U. after   16 cycles
 E2 =    -0.2598827614D+01 EUMP2 =    -0.87093781447560D+03

 The electronic state is 1-A.
 Alpha  occ. eigenvalues --  -20.61572 -20.61511 -20.60043 -20.60017 -15.86590
 Alpha  occ. eigenvalues --  -15.85081 -11.31826 -11.30395 -11.28438 -11.28332
 Alpha  occ. eigenvalues --  -11.28070 -11.27381 -11.27321 -11.27033 -11.26826
 Alpha  occ. eigenvalues --  -11.26783 -11.26080 -11.25876  -1.60595  -1.59110
 Alpha  occ. eigenvalues --   -1.40161  -1.38662  -1.19978  -1.18578  -1.09389
 Alpha  occ. eigenvalues --   -1.08009  -1.05368  -1.03946  -0.96251  -0.94840
 Alpha  occ. eigenvalues --   -0.86770  -0.85370  -0.83099  -0.81647  -0.78167
 Alpha  occ. eigenvalues --   -0.76681  -0.72820  -0.71901  -0.71302  -0.71087
 Alpha  occ. eigenvalues --   -0.70433  -0.69720  -0.65639  -0.65368  -0.64228
 Alpha  occ. eigenvalues --   -0.63948  -0.62727  -0.61261  -0.55857  -0.54533
 Alpha  occ. eigenvalues --   -0.53693  -0.53461  -0.52323  -0.52026  -0.49578
 Alpha  occ. eigenvalues --   -0.49526  -0.48067  -0.48048  -0.45590  -0.44077
 Alpha  occ. eigenvalues --   -0.37936  -0.36963  -0.36618  -0.35551
 Alpha virt. eigenvalues --    0.04376   0.05814   0.10694   0.12081   0.15897
 Alpha virt. eigenvalues --    0.17297   0.20203   0.22081   0.25434   0.27090
 Alpha virt. eigenvalues --    0.28746   0.29019   0.30214   0.31211   0.32726

 Mulliken charges:
               1
     1  C   -0.170113
     2  C   -0.218195
     3  C   -0.170111
     4  C    0.159162
     5  C   -0.170057
     6  C   -0.218189
     7  H    0.227635
     8  H    0.225926
     9  H    0.277764
    10  H    0.268800
    11  H    0.223669
    12  N    0.492593
    13  O   -0.473831
    14  O   -0.453022
    15  C   -0.172006
    16  C   -0.223492
    17  C   -0.172249
    18  C    0.157786
    19  C   -0.172274
    20  C   -0.218935
    21  H    0.219749
    22  H    0.233196
    23  H    0.287448
    24  H    0.273030
    25  H    0.219583
    26  N    0.487792
    27  O   -0.464095
    28  O   -0.457562
 Sum of Mulliken charges =  -0.00000

 Dipole moment (field-independent basis, Debye):
    X=             -7.2118    Y=              7.3765    Z=             -0.0996  Tot=             10.3166
 Quadrupole moment (field-independent basis, Debye-Ang):
   XX=            -90.1895   YY=           -104.0151   ZZ=           -106.1377
   XY=             12.2667   XZ=             -5.3067   YZ=              0.6620

 Normal termination of Gaussian 16 at Thu May  6 13:02:11 2021.
