 Gaussian 16, Revision A.03,
 Gaussian 16:  EM64L-G16RevA.03 25-Dec-2016

 -------------
 #p 6-31g* mp2
 -------------

 ------------------------------------------------------
 Input file generated by CHIRIPA (05-May-2021 14:53:17)
 ------------------------------------------------------
 Symbolic Z-matrix:
 Charge =  0 Multiplicity = 1

                         Standard orientation:
 ---------------------------------------------------------------------
 Center     Atomic      Atomic             Coordinates (Angstroms)
 Number     Number       Type             X           Y           Z
 ---------------------------------------------------------------------
      1          6           0        3.531997    0.944900   -0.365091
      2          6           0        2.125045    1.460379   -0.669641
      3          6           0        2.061667    2.985130   -0.764049
      4          1           0        3.881398    1.386930    0.578028
      5          1           0        4.220094    1.293663   -1.147576
      6          1           0        1.439546    1.109593    0.112443
      7          1           0        1.778877    1.016922   -1.612047
      8          1           0        2.722872    3.349837   -1.556764
      9          1           0        2.381613    3.443034    0.177524
     10          1           0        1.046844    3.332009   -0.982378
     11          6           0        3.611484   -0.577569   -0.267635
     12          6           0        5.018437   -1.093049    0.036914
     13          6           0        5.081815   -2.617799    0.131323
     14          1           0        2.923388   -0.926333    0.514849
     15          1           0        3.262084   -1.019599   -1.210755
     16          1           0        5.364605   -0.649591    0.979321
     17          1           0        5.703936   -0.742262   -0.745169
     18          1           0        4.761869   -3.075703   -0.810250
     19          1           0        4.420609   -2.982506    0.924038
     20          1           0        6.096638   -2.964679    0.349652
     21          6           0       -1.003199    1.161152    1.459457
     22          6           0       -2.043588    1.834930    0.811280
     23          6           0       -3.039259    1.122312    0.136473
     24          6           0       -2.963205   -0.269616    0.129959
     25          6           0       -1.939378   -0.969687    0.766330
     26          6           0       -0.954499   -0.236543    1.434956
     27          1           0       -0.233929    1.722704    1.981261
     28          1           0       -2.083955    2.920340    0.828652
     29          1           0       -3.855934    1.618543   -0.373637
     30          1           0       -1.925972   -2.052291    0.731572
     31          1           0       -0.147697   -0.762468    1.937466
     32          7           0       -4.011564   -1.034899   -0.581158
     33          8           0       -3.921906   -2.260671   -0.572174
     34          8           0       -4.903075   -0.394464   -1.134048
 ---------------------------------------------------------------------

 SCF Done:  E(RHF) =  -669.534721512     A.U. after   15 cycles
 E2 =    -0.2092888887D+01 EUMP2 =    -0.67162761039886D+03

 The electronic state is 1-A.
 Alpha  occ. eigenvalues --  -20.60787 -20.60782 -15.85843 -11.31221 -11.27808
 Alpha  occ. eigenvalues --  -11.27801 -11.27553 -11.26819 -11.26808 -11.22132
 Alpha  occ. eigenvalues --  -11.22102 -11.22001 -11.21941 -11.21773 -11.21506
 Alpha  occ. eigenvalues --   -1.59863  -1.39416  -1.19411  -1.09023  -1.08799
 Alpha  occ. eigenvalues --   -1.04813  -1.04094  -0.96558  -0.95637  -0.87569
 Alpha  occ. eigenvalues --   -0.86215  -0.82466  -0.80150  -0.78824  -0.77501
 Alpha  occ. eigenvalues --   -0.72061  -0.71186  -0.70545  -0.65674  -0.65063
 Alpha  occ. eigenvalues --   -0.64808  -0.62158  -0.61515  -0.59928  -0.58164
 Alpha  occ. eigenvalues --   -0.55884  -0.55298  -0.53293  -0.53108  -0.52968
 Alpha  occ. eigenvalues --   -0.52905  -0.50500  -0.48821  -0.48814  -0.48458
 Alpha  occ. eigenvalues --   -0.47194  -0.46363  -0.46301  -0.44819  -0.44353
 Alpha  occ. eigenvalues --   -0.37292  -0.36404
 Alpha virt. eigenvalues --    0.05009   0.11107   0.16438   0.19957   0.22851
 Alpha virt. eigenvalues --    0.23610   0.25287   0.26434   0.27133   0.28384
 Alpha virt. eigenvalues --    0.28740   0.30165   0.31032   0.31433   0.31802

 Mulliken charges:
               1
     1  C   -0.298466
     2  C   -0.304211
     3  C   -0.477399
     4  H    0.146803
     5  H    0.152014
     6  H    0.151109
     7  H    0.156387
     8  H    0.159410
     9  H    0.150642
    10  H    0.158674
    11  C   -0.296770
    12  C   -0.300033
    13  C   -0.475762
    14  H    0.141824
    15  H    0.153164
    16  H    0.151249
    17  H    0.154053
    18  H    0.157168
    19  H    0.153258
    20  H    0.162025
    21  C   -0.169269
    22  C   -0.219996
    23  C   -0.170779
    24  C    0.158418
    25  C   -0.170659
    26  C   -0.217341
    27  H    0.227143
    28  H    0.224001
    29  H    0.275879
    30  H    0.275993
    31  H    0.224059
    32  N    0.488089
    33  O   -0.460295
    34  O   -0.460383
 Sum of Mulliken charges =  -0.00000

 Dipole moment (field-independent basis, Debye):
    X=              3.7133    Y=              2.6639    Z=              2.4282  Tot=              5.1751
 Quadrupole moment (field-independent basis, Debye-Ang):
   XX=           -116.0036   YY=            -93.9704   ZZ=            -93.4286
   XY=            -11.2343   XZ=             -6.8255   YZ=             -1.4387

 Normal termination of Gaussian 16 at Thu May  6 09:06:24 2021.
