 Gaussian 16, Revision A.03,
 Gaussian 16:  EM64L-G16RevA.03 25-Dec-2016

 -------------
 #p 6-31g* mp2
 -------------

 ------------------------------------------------------
 Input file generated by CHIRIPA (05-May-2021 14:53:16)
 ------------------------------------------------------
 Symbolic Z-matrix:
 Charge =  0 Multiplicity = 1

                         Standard orientation:
 ---------------------------------------------------------------------
 Center     Atomic      Atomic             Coordinates (Angstroms)
 Number     Number       Type             X           Y           Z
 ---------------------------------------------------------------------
      1          6           0       -3.499005    0.750371    0.292996
      2          6           0       -3.679702    2.060975   -0.473588
      3          6           0       -3.646516    3.288259    0.437711
      4          1           0       -4.287680    0.665853    1.053124
      5          1           0       -2.543892    0.779683    0.835484
      6          1           0       -4.633547    2.028640   -1.015576
      7          1           0       -2.890619    2.142291   -1.232107
      8          1           0       -2.690828    3.348280    0.968426
      9          1           0       -4.443659    3.233983    1.186188
     10          1           0       -3.777537    4.214189   -0.130925
     11          6           0       -3.529897   -0.485552   -0.604371
     12          6           0       -3.349201   -1.796156    0.162213
     13          6           0       -3.382387   -3.023440   -0.749086
     14          1           0       -4.485011   -0.514864   -1.146859
     15          1           0       -2.741223   -0.401035   -1.364498
     16          1           0       -4.138284   -1.877473    0.920733
     17          1           0       -2.395356   -1.763821    0.704201
     18          1           0       -2.585244   -2.969164   -1.497563
     19          1           0       -4.338075   -3.083462   -1.279801
     20          1           0       -3.251365   -3.949371   -0.180450
     21          6           0        0.618321   -0.869120    1.241485
     22          6           0        1.767945   -0.640284    2.004715
     23          6           0        2.952219   -0.215871    1.394861
     24          6           0        2.951329   -0.029422    0.013368
     25          6           0        1.822299   -0.249014   -0.774262
     26          6           0        0.649113   -0.673100   -0.143127
     27          1           0       -0.297344   -1.198687    1.723500
     28          1           0        1.746952   -0.791696    3.080204
     29          1           0        3.856662   -0.031298    1.961723
     30          1           0        1.873992   -0.089453   -1.844443
     31          1           0       -0.242186   -0.850040   -0.738377
     32          7           0        4.199197    0.419712   -0.643522
     33          8           0        4.172440    0.576692   -1.862242
     34          8           0        5.180405    0.606257    0.072766
 ---------------------------------------------------------------------

 SCF Done:  E(RHF) =  -669.535132594     A.U. after   15 cycles
 E2 =    -0.2092768565D+01 EUMP2 =    -0.67162790115894D+03

 The electronic state is 1-A.
 Alpha  occ. eigenvalues --  -20.60767 -20.60762 -15.85821 -11.31194 -11.27760
 Alpha  occ. eigenvalues --  -11.27757 -11.27484 -11.26772 -11.26757 -11.22881
 Alpha  occ. eigenvalues --  -11.22512 -11.22331 -11.22271 -11.22119 -11.21613
 Alpha  occ. eigenvalues --   -1.59843  -1.39396  -1.19364  -1.09451  -1.08755
 Alpha  occ. eigenvalues --   -1.04769  -1.04450  -0.96873  -0.95594  -0.87889
 Alpha  occ. eigenvalues --   -0.86167  -0.82430  -0.80550  -0.79233  -0.77474
 Alpha  occ. eigenvalues --   -0.72039  -0.71166  -0.70505  -0.66237  -0.65010
 Alpha  occ. eigenvalues --   -0.64672  -0.62179  -0.61753  -0.60259  -0.58481
 Alpha  occ. eigenvalues --   -0.56172  -0.55296  -0.53545  -0.53286  -0.53086
 Alpha  occ. eigenvalues --   -0.52856  -0.50821  -0.48837  -0.48800  -0.48790
 Alpha  occ. eigenvalues --   -0.47611  -0.46748  -0.46677  -0.44800  -0.44715
 Alpha  occ. eigenvalues --   -0.37338  -0.36369
 Alpha virt. eigenvalues --    0.05050   0.11210   0.16516   0.18121   0.22753
 Alpha virt. eigenvalues --    0.23454   0.24425   0.25293   0.27112   0.28404
 Alpha virt. eigenvalues --    0.29485   0.29966   0.30992   0.31475   0.31805

 Mulliken charges:
               1
     1  C   -0.300342
     2  C   -0.299926
     3  C   -0.476600
     4  H    0.152263
     5  H    0.146338
     6  H    0.154083
     7  H    0.152750
     8  H    0.156582
     9  H    0.155693
    10  H    0.163431
    11  C   -0.301236
    12  C   -0.306370
    13  C   -0.475500
    14  H    0.156249
    15  H    0.144786
    16  H    0.157902
    17  H    0.142569
    18  H    0.153327
    19  H    0.160527
    20  H    0.163452
    21  C   -0.177307
    22  C   -0.218525
    23  C   -0.170869
    24  C    0.158648
    25  C   -0.172115
    26  C   -0.224690
    27  H    0.231565
    28  H    0.223827
    29  H    0.275609
    30  H    0.275806
    31  H    0.230810
    32  N    0.488036
    33  O   -0.460406
    34  O   -0.460366
 Sum of Mulliken charges =  -0.00000

 Dipole moment (field-independent basis, Debye):
    X=             -4.6171    Y=             -1.5469    Z=              2.2926  Tot=              5.3821
 Quadrupole moment (field-independent basis, Debye-Ang):
   XX=           -118.1184   YY=            -96.0093   ZZ=            -91.1183
   XY=             -4.4068   XZ=              9.2035   YZ=             -0.5212

 Normal termination of Gaussian 16 at Wed May  5 15:40:28 2021.
