 Gaussian 16, Revision A.03,
 Gaussian 16:  EM64L-G16RevA.03 25-Dec-2016

 -------------
 #p 6-31g* mp2
 -------------

 ------------------------------------------------------
 Input file generated by CHIRIPA (05-May-2021 14:55:19)
 ------------------------------------------------------
 Symbolic Z-matrix:
 Charge =  0 Multiplicity = 1

                         Standard orientation:
 ---------------------------------------------------------------------
 Center     Atomic      Atomic             Coordinates (Angstroms)
 Number     Number       Type             X           Y           Z
 ---------------------------------------------------------------------
      1          6           0        2.032594   -2.413044    1.072272
      2          6           0        2.770464   -2.201440   -0.097041
      3          6           0        2.852995   -0.925943   -0.663472
      4          6           0        2.182215    0.119909   -0.031383
      5          6           0        1.439084   -0.059064    1.134385
      6          6           0        1.370426   -1.343066    1.683176
      7          1           0        1.973870   -3.407184    1.505437
      8          1           0        3.285734   -3.030531   -0.573644
      9          1           0        3.417195   -0.734021   -1.568051
     10          1           0        0.936203    0.787094    1.586652
     11          1           0        0.796649   -1.504454    2.591349
     12          7           0        2.262243    1.474723   -0.621701
     13          8           0        1.662196    2.379506   -0.045552
     14          8           0        2.923502    1.606189   -1.649364
     15          6           0       -2.385512    0.662485    0.302431
     16          6           0       -2.887130    2.085727    0.055962
     17          6           0       -2.095267    3.135116    0.836687
     18          1           0       -2.441745    0.441663    1.377149
     19          1           0       -1.323702    0.602403    0.026126
     20          1           0       -3.948038    2.142752    0.331347
     21          1           0       -2.829876    2.303119   -1.018319
     22          1           0       -1.037514    3.107331    0.555643
     23          1           0       -2.162030    2.946054    1.912977
     24          1           0       -2.470604    4.145329    0.645764
     25          6           0       -3.167192   -0.397830   -0.471156
     26          6           0       -2.665574   -1.821072   -0.224688
     27          6           0       -3.457436   -2.870462   -1.005412
     28          1           0       -4.229002   -0.337749   -0.194852
     29          1           0       -3.110959   -0.177009   -1.545875
     30          1           0       -2.722828   -2.038464    0.849593
     31          1           0       -1.604665   -1.878097   -0.500072
     32          1           0       -3.390675   -2.681400   -2.081702
     33          1           0       -4.515190   -2.842676   -0.724369
     34          1           0       -3.082100   -3.880675   -0.814490
 ---------------------------------------------------------------------

 SCF Done:  E(RHF) =  -669.536206377     A.U. after   15 cycles
 E2 =    -0.2093424634D+01 EUMP2 =    -0.67162963101090D+03

 The electronic state is 1-A.
 Alpha  occ. eigenvalues --  -20.60975 -20.60963 -15.86000 -11.31284 -11.27850
 Alpha  occ. eigenvalues --  -11.27827 -11.27584 -11.26847 -11.26833 -11.21746
 Alpha  occ. eigenvalues --  -11.21383 -11.21294 -11.21246 -11.21208 -11.20349
 Alpha  occ. eigenvalues --   -1.60030  -1.39587  -1.19459  -1.08865  -1.08351
 Alpha  occ. eigenvalues --   -1.04844  -1.03371  -0.95809  -0.95712  -0.86829
 Alpha  occ. eigenvalues --   -0.86245  -0.82544  -0.79462  -0.78209  -0.77571
 Alpha  occ. eigenvalues --   -0.72225  -0.71345  -0.70560  -0.65122  -0.64992
 Alpha  occ. eigenvalues --   -0.64817  -0.62192  -0.60749  -0.59229  -0.57427
 Alpha  occ. eigenvalues --   -0.55353  -0.55078  -0.53205  -0.52934  -0.52487
 Alpha  occ. eigenvalues --   -0.52229  -0.49752  -0.48985  -0.48966  -0.47758
 Alpha  occ. eigenvalues --   -0.46495  -0.45734  -0.45667  -0.44861  -0.43648
 Alpha  occ. eigenvalues --   -0.37427  -0.36395
 Alpha virt. eigenvalues --    0.04886   0.11126   0.16351   0.21012   0.22968
 Alpha virt. eigenvalues --    0.24113   0.26400   0.26614   0.27587   0.28013
 Alpha virt. eigenvalues --    0.28974   0.30865   0.31584   0.31721   0.32254

 Mulliken charges:
               1
     1  C   -0.170706
     2  C   -0.218733
     3  C   -0.171042
     4  C    0.156791
     5  C   -0.170137
     6  C   -0.217693
     7  H    0.226255
     8  H    0.223822
     9  H    0.275681
    10  H    0.278747
    11  H    0.224645
    12  N    0.491248
    13  O   -0.463611
    14  O   -0.458591
    15  C   -0.302264
    16  C   -0.297861
    17  C   -0.489918
    18  H    0.141630
    19  H    0.152485
    20  H    0.148954
    21  H    0.154560
    22  H    0.182097
    23  H    0.146443
    24  H    0.160171
    25  C   -0.297750
    26  C   -0.300605
    27  C   -0.475303
    28  H    0.149464
    29  H    0.151880
    30  H    0.146381
    31  H    0.153396
    32  H    0.156677
    33  H    0.155769
    34  H    0.157118
 Sum of Mulliken charges =  -0.00000

 Dipole moment (field-independent basis, Debye):
    X=             -0.0911    Y=             -4.7076    Z=              1.9930  Tot=              5.1129
 Quadrupole moment (field-independent basis, Debye-Ang):
   XX=            -95.0703   YY=            -96.4616   ZZ=            -92.2160
   XY=            -12.1255   XZ=              1.6877   YZ=              1.1311

 Normal termination of Gaussian 16 at Thu May  6 04:28:52 2021.
