 Gaussian 16, Revision A.03,
 Gaussian 16:  EM64L-G16RevA.03 25-Dec-2016

 -------------
 #p 6-31g* mp2
 -------------

 ------------------------------------------------------
 Input file generated by CHIRIPA (05-May-2021 14:53:18)
 ------------------------------------------------------
 Symbolic Z-matrix:
 Charge =  0 Multiplicity = 1

                         Standard orientation:
 ---------------------------------------------------------------------
 Center     Atomic      Atomic             Coordinates (Angstroms)
 Number     Number       Type             X           Y           Z
 ---------------------------------------------------------------------
      1          6           0        3.262379   -0.247973   -0.099041
      2          6           0        2.644650   -1.304988   -1.015074
      3          6           0        1.117196   -1.242787   -1.043558
      4          1           0        2.869606   -0.379058    0.918550
      5          1           0        2.941217    0.748692   -0.432070
      6          1           0        2.967997   -2.299286   -0.681255
      7          1           0        3.039085   -1.171491   -2.030562
      8          1           0        0.778039   -0.263901   -1.397613
      9          1           0        0.706547   -1.398103   -0.040640
     10          1           0        0.696533   -2.007027   -1.704497
     11          6           0        4.788732   -0.297473   -0.059999
     12          6           0        5.406462    0.759542    0.856034
     13          6           0        6.933915    0.697342    0.884518
     14          1           0        5.109895   -1.294138    0.273030
     15          1           0        5.181505   -0.166387   -1.077589
     16          1           0        5.012027    0.626046    1.871522
     17          1           0        5.083115    1.753840    0.522216
     18          1           0        7.344565    0.852657   -0.118400
     19          1           0        7.273073   -0.281545    1.238573
     20          1           0        7.354578    1.461581    1.545457
     21          6           0       -3.649319   -2.169849    0.720360
     22          6           0       -4.298410   -1.112753    1.366696
     23          6           0       -4.026775    0.211508    1.010192
     24          6           0       -3.096206    0.443436   -0.001511
     25          6           0       -2.433100   -0.588306   -0.664149
     26          6           0       -2.720373   -1.904719   -0.291215
     27          1           0       -3.866406   -3.195518    1.003682
     28          1           0       -5.020308   -1.315676    2.152656
     29          1           0       -4.514807    1.048820    1.494083
     30          1           0       -1.718384   -0.354615   -1.443885
     31          1           0       -2.214763   -2.723687   -0.794896
     32          7           0       -2.800360    1.841218   -0.387622
     33          8           0       -1.976385    2.019030   -1.282096
     34          8           0       -3.398053    2.732519    0.211530
 ---------------------------------------------------------------------

 SCF Done:  E(RHF) =  -669.535498263     A.U. after   15 cycles
 E2 =    -0.2091781373D+01 EUMP2 =    -0.67162727963587D+03

 The electronic state is 1-A.
 Alpha  occ. eigenvalues --  -20.60739 -20.60733 -15.85786 -11.31097 -11.27694
 Alpha  occ. eigenvalues --  -11.27622 -11.27433 -11.26698 -11.26664 -11.21817
 Alpha  occ. eigenvalues --  -11.21539 -11.21501 -11.21420 -11.21355 -11.21014
 Alpha  occ. eigenvalues --   -1.59810  -1.39365  -1.19285  -1.08691  -1.08484
 Alpha  occ. eigenvalues --   -1.04683  -1.03640  -0.96123  -0.95525  -0.87161
 Alpha  occ. eigenvalues --   -0.86077  -0.82362  -0.79729  -0.78274  -0.77396
 Alpha  occ. eigenvalues --   -0.72007  -0.71129  -0.70399  -0.65114  -0.64936
 Alpha  occ. eigenvalues --   -0.64686  -0.62045  -0.61026  -0.59496  -0.57708
 Alpha  occ. eigenvalues --   -0.55411  -0.55186  -0.53133  -0.52855  -0.52782
 Alpha  occ. eigenvalues --   -0.52385  -0.50029  -0.48762  -0.48760  -0.48014
 Alpha  occ. eigenvalues --   -0.46710  -0.45823  -0.45720  -0.44776  -0.43896
 Alpha  occ. eigenvalues --   -0.37277  -0.36247
 Alpha virt. eigenvalues --    0.05096   0.11359   0.16554   0.20865   0.22866
 Alpha virt. eigenvalues --    0.24116   0.25972   0.26592   0.27327   0.28049
 Alpha virt. eigenvalues --    0.29146   0.29534   0.31421   0.31760   0.32475

 Mulliken charges:
               1
     1  C   -0.299832
     2  C   -0.299449
     3  C   -0.486993
     4  H    0.149387
     5  H    0.155693
     6  H    0.150646
     7  H    0.153983
     8  H    0.166385
     9  H    0.157540
    10  H    0.151002
    11  C   -0.298566
    12  C   -0.300038
    13  C   -0.475800
    14  H    0.148224
    15  H    0.150266
    16  H    0.151791
    17  H    0.154429
    18  H    0.155453
    19  H    0.154303
    20  H    0.160802
    21  C   -0.171028
    22  C   -0.219000
    23  C   -0.170934
    24  C    0.156551
    25  C   -0.168857
    26  C   -0.220869
    27  H    0.225182
    28  H    0.222982
    29  H    0.275197
    30  H    0.281262
    31  H    0.224292
    32  N    0.488488
    33  O   -0.462035
    34  O   -0.460455
 Sum of Mulliken charges =  -0.00000

 Dipole moment (field-independent basis, Debye):
    X=             -0.9487    Y=             -4.8430    Z=              1.3648  Tot=              5.1203
 Quadrupole moment (field-independent basis, Debye-Ang):
   XX=            -87.7908   YY=            -98.9601   ZZ=            -92.3350
   XY=             13.8910   XZ=             -7.0807   YZ=              1.2485

 Normal termination of Gaussian 16 at Thu May  6 09:10:42 2021.
