 Gaussian 16, Revision A.03,
 Gaussian 16:  EM64L-G16RevA.03 25-Dec-2016

 -------------
 #p 6-31g* mp2
 -------------

 ------------------------------------------------------
 Input file generated by CHIRIPA (05-May-2021 14:51:12)
 ------------------------------------------------------
 Symbolic Z-matrix:
 Charge =  0 Multiplicity = 1

                         Standard orientation:
 ---------------------------------------------------------------------
 Center     Atomic      Atomic             Coordinates (Angstroms)
 Number     Number       Type             X           Y           Z
 ---------------------------------------------------------------------
      1          6           0       -3.883962    0.147811    0.640958
      2          6           0       -2.906709    1.180425    0.078224
      3          6           0       -1.762887    1.498360    1.041751
      4          1           0       -4.294487    0.519778    1.589670
      5          1           0       -3.335767   -0.774555    0.877853
      6          1           0       -3.456827    2.100094   -0.158831
      7          1           0       -2.498608    0.806042   -0.869355
      8          1           0       -1.188892    0.594444    1.269932
      9          1           0       -2.152556    1.895849    1.984492
     10          1           0       -1.076264    2.238670    0.619436
     11          6           0       -5.032979   -0.180468   -0.310736
     12          6           0       -6.010232   -1.213083    0.251997
     13          6           0       -7.154054   -1.531017   -0.711529
     14          1           0       -5.581173    0.741898   -0.547632
     15          1           0       -4.622454   -0.552435   -1.259448
     16          1           0       -6.418333   -0.838699    1.199576
     17          1           0       -5.460114   -2.132751    0.489053
     18          1           0       -6.764385   -1.928506   -1.654271
     19          1           0       -7.728049   -0.627101   -0.939710
     20          1           0       -7.840677   -2.271327   -0.289215
     21          6           0        4.150255    0.689121   -0.354285
     22          6           0        2.622323    0.693918   -0.296131
     23          6           0        2.020483    2.046819   -0.677236
     24          1           0        4.538842    1.467095    0.317060
     25          1           0        4.472489    0.962147   -1.368689
     26          1           0        2.303050    0.419615    0.717495
     27          1           0        2.237334   -0.084286   -0.967546
     28          1           0        2.310389    2.324218   -1.695865
     29          1           0        2.376478    2.830981   -0.001249
     30          1           0        0.927246    2.027819   -0.628919
     31          6           0        4.766686   -0.656464    0.024063
     32          6           0        6.294618   -0.661261   -0.034091
     33          6           0        6.896458   -2.014162    0.347014
     34          1           0        4.444451   -0.929490    1.038468
     35          1           0        4.378099   -1.434438   -0.647281
     36          1           0        6.679606    0.116944    0.637325
     37          1           0        6.613891   -0.386957   -1.047717
     38          1           0        6.540463   -2.798324   -0.328972
     39          1           0        6.606552   -2.291561    1.365643
     40          1           0        7.989695   -1.995162    0.298696
 ---------------------------------------------------------------------

 SCF Done:  E(RHF) =  -470.733215847     A.U. after   11 cycles
 E2 =    -0.1582266784D+01 EUMP2 =    -0.47231548263138D+03

 The electronic state is 1-A.
 Alpha  occ. eigenvalues --  -11.21615 -11.21604 -11.21592 -11.21573 -11.21410
 Alpha  occ. eigenvalues --  -11.21388 -11.21350 -11.21328 -11.21073 -11.21067
 Alpha  occ. eigenvalues --  -11.21064 -11.21005  -1.08437  -1.08409  -1.03550
 Alpha  occ. eigenvalues --   -1.03495  -0.96023  -0.95923  -0.87055  -0.86927
 Alpha  occ. eigenvalues --   -0.79611  -0.79559  -0.78248  -0.78223  -0.65067
 Alpha  occ. eigenvalues --   -0.65039  -0.60947  -0.60897  -0.59632  -0.59129
 Alpha  occ. eigenvalues --   -0.57722  -0.57433  -0.55276  -0.55233  -0.52974
 Alpha  occ. eigenvalues --   -0.52516  -0.52432  -0.52181  -0.49919  -0.49897
 Alpha  occ. eigenvalues --   -0.47978  -0.47820  -0.46638  -0.46597  -0.45793
 Alpha  occ. eigenvalues --   -0.45764  -0.45716  -0.45687  -0.43928  -0.43601
 Alpha virt. eigenvalues --    0.21725   0.23028   0.23440   0.25108   0.26495
 Alpha virt. eigenvalues --    0.26698   0.27042   0.27282   0.27682   0.28999
 Alpha virt. eigenvalues --    0.30213   0.31180   0.31522   0.31857   0.32166

 Mulliken charges:
               1
     1  C   -0.298344
     2  C   -0.300249
     3  C   -0.480677
     4  H    0.149744
     5  H    0.149641
     6  H    0.152078
     7  H    0.152106
     8  H    0.155799
     9  H    0.155380
    10  H    0.164780
    11  C   -0.298299
    12  C   -0.299671
    13  C   -0.475709
    14  H    0.149556
    15  H    0.149665
    16  H    0.151948
    17  H    0.151949
    18  H    0.155180
    19  H    0.155195
    20  H    0.160263
    21  C   -0.298391
    22  C   -0.299191
    23  C   -0.481822
    24  H    0.149691
    25  H    0.149451
    26  H    0.152401
    27  H    0.151355
    28  H    0.154615
    29  H    0.154814
    30  H    0.166956
    31  C   -0.298242
    32  C   -0.299629
    33  C   -0.475693
    34  H    0.149503
    35  H    0.149473
    36  H    0.151970
    37  H    0.151899
    38  H    0.155108
    39  H    0.155172
    40  H    0.160227
 Sum of Mulliken charges =  -0.00000

 Dipole moment (field-independent basis, Debye):
    X=             -0.0191    Y=              0.0045    Z=              0.0091  Tot=              0.0216
 Quadrupole moment (field-independent basis, Debye-Ang):
   XX=            -85.6802   YY=            -85.0882   ZZ=            -84.0573
   XY=             -0.2014   XZ=             -0.8415   YZ=              0.6688

 Normal termination of Gaussian 16 at Wed May  5 23:10:01 2021.
