 Gaussian 16, Revision A.03,
 Gaussian 16:  EM64L-G16RevA.03 25-Dec-2016

 -------------
 #p 6-31g* mp2
 -------------

 ------------------------------------------------------
 Input file generated by CHIRIPA (05-May-2021 14:57:21)
 ------------------------------------------------------
 Symbolic Z-matrix:
 Charge =  0 Multiplicity = 1

                         Standard orientation:
 ---------------------------------------------------------------------
 Center     Atomic      Atomic             Coordinates (Angstroms)
 Number     Number       Type             X           Y           Z
 ---------------------------------------------------------------------
      1          6           0        1.577933    2.362204   -0.861397
      2          6           0        2.972786    2.329881   -0.762091
      3          6           0        3.625038    1.184639   -0.295682
      4          6           0        2.847851    0.084813    0.064391
      5          6           0        1.456588    0.086233   -0.023207
      6          6           0        0.825612    1.242252   -0.492289
      7          1           0        1.079511    3.256042   -1.224753
      8          1           0        3.559603    3.198170   -1.048035
      9          1           0        4.703530    1.132452   -0.208793
     10          1           0        0.898547   -0.794923    0.269319
     11          1           0       -0.257791    1.264508   -0.568363
     12          7           0        3.527100   -1.133308    0.559571
     13          8           0        2.819663   -2.089084    0.870478
     14          8           0        4.754070   -1.109230    0.627411
     15          6           0       -3.318197    0.956846    2.134590
     16          6           0       -2.477320   -0.159717    2.186882
     17          6           0       -2.147948   -0.855771    1.020019
     18          6           0       -2.679609   -0.405687   -0.187478
     19          6           0       -3.520063    0.703260   -0.272125
     20          6           0       -3.835973    1.384017    0.907417
     21          1           0       -3.568832    1.491616    3.045962
     22          1           0       -2.073749   -0.493729    3.138519
     23          1           0       -1.499323   -1.723277    1.031784
     24          1           0       -3.906976    1.012358   -1.235544
     25          1           0       -4.489255    2.250830    0.863795
     26          7           0       -2.338044   -1.134472   -1.429495
     27          8           0       -2.819430   -0.717800   -2.480823
     28          8           0       -1.595408   -2.108564   -1.328142
 ---------------------------------------------------------------------

 SCF Done:  E(RHF) =  -868.337346069     A.U. after   16 cycles
 E2 =    -0.2602747313D+01 EUMP2 =    -0.87094009338208D+03

 The electronic state is 1-A.
 Alpha  occ. eigenvalues --  -20.61571 -20.61554 -20.60559 -20.60552 -15.86602
 Alpha  occ. eigenvalues --  -15.85609 -11.32085 -11.30938 -11.28634 -11.28584
 Alpha  occ. eigenvalues --  -11.28293 -11.27640 -11.27575 -11.27527 -11.27480
 Alpha  occ. eigenvalues --  -11.27269 -11.26544 -11.26471  -1.60640  -1.59632
 Alpha  occ. eigenvalues --   -1.40185  -1.39187  -1.20261  -1.19114  -1.09607
 Alpha  occ. eigenvalues --   -1.08521  -1.05631  -1.04516  -0.96419  -0.95361
 Alpha  occ. eigenvalues --   -0.87016  -0.85922  -0.83219  -0.82202  -0.78284
 Alpha  occ. eigenvalues --   -0.77257  -0.72791  -0.72009  -0.71830  -0.71284
 Alpha  occ. eigenvalues --   -0.70951  -0.70234  -0.65856  -0.65584  -0.64773
 Alpha  occ. eigenvalues --   -0.64543  -0.62957  -0.61878  -0.56064  -0.55073
 Alpha  occ. eigenvalues --   -0.53995  -0.53671  -0.52839  -0.52547  -0.49572
 Alpha  occ. eigenvalues --   -0.49561  -0.48586  -0.48585  -0.45538  -0.44599
 Alpha  occ. eigenvalues --   -0.38212  -0.37270  -0.37102  -0.36080
 Alpha virt. eigenvalues --    0.04168   0.05301   0.10282   0.11540   0.15703
 Alpha virt. eigenvalues --    0.16784   0.20390   0.21637   0.25660   0.27047
 Alpha virt. eigenvalues --    0.27528   0.28705   0.30314   0.30688   0.31718

 Mulliken charges:
               1
     1  C   -0.171496
     2  C   -0.218872
     3  C   -0.170801
     4  C    0.158174
     5  C   -0.172091
     6  C   -0.221699
     7  H    0.224246
     8  H    0.222237
     9  H    0.274806
    10  H    0.276644
    11  H    0.225224
    12  N    0.488174
    13  O   -0.460794
    14  O   -0.461283
    15  C   -0.171260
    16  C   -0.215872
    17  C   -0.182573
    18  C    0.151110
    19  C   -0.178142
    20  C   -0.217313
    21  H    0.229573
    22  H    0.230641
    23  H    0.282806
    24  H    0.277442
    25  H    0.226274
    26  N    0.488856
    27  O   -0.457886
    28  O   -0.456122
 Sum of Mulliken charges =  -0.00000

 Dipole moment (field-independent basis, Debye):
    X=             -3.8414    Y=              6.7705    Z=              2.7290  Tot=              8.2488
 Quadrupole moment (field-independent basis, Debye-Ang):
   XX=           -106.7032   YY=           -103.9859   ZZ=           -105.9749
   XY=              5.7625   XZ=            -16.1014   YZ=             -4.2578

 Normal termination of Gaussian 16 at Wed May  5 17:43:48 2021.
