 Gaussian 16, Revision A.03,
 Gaussian 16:  EM64L-G16RevA.03 25-Dec-2016

 -------------
 #p 6-31g* mp2
 -------------

 ------------------------------------------------------
 Input file generated by CHIRIPA (05-May-2021 14:57:24)
 ------------------------------------------------------
 Symbolic Z-matrix:
 Charge =  0 Multiplicity = 1

                         Standard orientation:
 ---------------------------------------------------------------------
 Center     Atomic      Atomic             Coordinates (Angstroms)
 Number     Number       Type             X           Y           Z
 ---------------------------------------------------------------------
      1          6           0       -0.686335   -1.429543    0.926131
      2          6           0       -1.047772   -0.186838    1.456761
      3          6           0       -2.254639    0.417160    1.091787
      4          6           0       -3.079821   -0.252610    0.189693
      5          6           0       -2.747617   -1.491493   -0.356292
      6          6           0       -1.535913   -2.076764    0.022890
      7          1           0        0.253068   -1.891469    1.215170
      8          1           0       -0.389946    0.318107    2.158430
      9          1           0       -2.559075    1.378563    1.487313
     10          1           0       -3.424105   -1.970554   -1.053633
     11          1           0       -1.257797   -3.041934   -0.390804
     12          7           0       -4.360038    0.376902   -0.204210
     13          8           0       -5.069519   -0.233677   -1.000744
     14          8           0       -4.629749    1.468973    0.291042
     15          6           0        4.112879   -1.827282   -0.031105
     16          6           0        2.900116   -1.780575   -0.726479
     17          6           0        2.202207   -0.576192   -0.856597
     18          6           0        2.748555    0.567468   -0.276221
     19          6           0        3.954631    0.553131    0.422683
     20          6           0        4.635346   -0.662333    0.540249
     21          1           0        4.648353   -2.767180    0.065098
     22          1           0        2.491975   -2.683717   -1.171228
     23          1           0        1.261358   -0.511622   -1.389562
     24          1           0        4.336339    1.470003    0.855192
     25          1           0        5.576987   -0.695628    1.080848
     26          7           0        2.018811    1.848361   -0.407326
     27          8           0        2.521376    2.841932    0.113137
     28          8           0        0.958093    1.834498   -1.028068
 ---------------------------------------------------------------------

 SCF Done:  E(RHF) =  -868.336817659     A.U. after   16 cycles
 E2 =    -0.2602563429D+01 EUMP2 =    -0.87093938108862D+03

 The electronic state is 1-A.
 Alpha  occ. eigenvalues --  -20.61408 -20.61364 -20.60461 -20.60438 -15.86437
 Alpha  occ. eigenvalues --  -15.85511 -11.31935 -11.30937 -11.28548 -11.28523
 Alpha  occ. eigenvalues --  -11.28334 -11.27625 -11.27600 -11.27534 -11.27496
 Alpha  occ. eigenvalues --  -11.27359 -11.26699 -11.26540  -1.60465  -1.59524
 Alpha  occ. eigenvalues --   -1.40008  -1.39076  -1.20164  -1.19157  -1.09519
 Alpha  occ. eigenvalues --   -1.08567  -1.05578  -1.04577  -0.96323  -0.95370
 Alpha  occ. eigenvalues --   -0.86951  -0.85995  -0.83148  -0.82199  -0.78167
 Alpha  occ. eigenvalues --   -0.77217  -0.72647  -0.71818  -0.71734  -0.71237
 Alpha  occ. eigenvalues --   -0.70840  -0.70304  -0.65792  -0.65556  -0.64828
 Alpha  occ. eigenvalues --   -0.64623  -0.62897  -0.61929  -0.56053  -0.55228
 Alpha  occ. eigenvalues --   -0.53873  -0.53670  -0.52813  -0.52695  -0.49424
 Alpha  occ. eigenvalues --   -0.49396  -0.48501  -0.48477  -0.45382  -0.44468
 Alpha  occ. eigenvalues --   -0.38217  -0.37666  -0.36615  -0.36145
 Alpha virt. eigenvalues --    0.04288   0.05369   0.10388   0.11441   0.15682
 Alpha virt. eigenvalues --    0.16895   0.20451   0.21608   0.26170   0.27520
 Alpha virt. eigenvalues --    0.27682   0.28411   0.30339   0.31020   0.31833

 Mulliken charges:
               1
     1  C   -0.175974
     2  C   -0.215756
     3  C   -0.161124
     4  C    0.159068
     5  C   -0.169460
     6  C   -0.225581
     7  H    0.224780
     8  H    0.224095
     9  H    0.279490
    10  H    0.274662
    11  H    0.216657
    12  N    0.488369
    13  O   -0.462345
    14  O   -0.457746
    15  C   -0.171022
    16  C   -0.226964
    17  C   -0.171635
    18  C    0.154240
    19  C   -0.171081
    20  C   -0.219657
    21  H    0.227640
    22  H    0.222167
    23  H    0.281937
    24  H    0.277812
    25  H    0.225983
    26  N    0.486471
    27  O   -0.460025
    28  O   -0.455002
 Sum of Mulliken charges =  -0.00000

 Dipole moment (field-independent basis, Debye):
    X=              7.0836    Y=             -6.4297    Z=              1.8588  Tot=              9.7454
 Quadrupole moment (field-independent basis, Debye-Ang):
   XX=           -116.1999   YY=           -105.8441   ZZ=           -102.4936
   XY=             -2.9042   XZ=             -0.1413   YZ=              4.8577

 Normal termination of Gaussian 16 at Wed May  5 21:05:58 2021.
