 Gaussian 16, Revision A.03,
 Gaussian 16:  EM64L-G16RevA.03 25-Dec-2016

 -------------
 #p 6-31g* mp2
 -------------

 ------------------------------------------------------
 Input file generated by CHIRIPA (05-May-2021 14:53:17)
 ------------------------------------------------------
 Symbolic Z-matrix:
 Charge =  0 Multiplicity = 1

                         Standard orientation:
 ---------------------------------------------------------------------
 Center     Atomic      Atomic             Coordinates (Angstroms)
 Number     Number       Type             X           Y           Z
 ---------------------------------------------------------------------
      1          6           0        4.418463    0.676854   -0.230469
      2          6           0        3.661102    1.997305   -0.086249
      3          6           0        4.485455    3.203817   -0.536321
      4          1           0        5.346415    0.727851    0.355405
      5          1           0        4.717968    0.546679   -1.279634
      6          1           0        3.361913    2.124287    0.962072
      7          1           0        2.734752    1.943087   -0.672381
      8          1           0        4.772085    3.103790   -1.588195
      9          1           0        5.402809    3.286020    0.055544
     10          1           0        3.924923    4.137202   -0.424715
     11          6           0        3.607461   -0.538526    0.215463
     12          6           0        4.364821   -1.858977    0.071243
     13          6           0        3.540469   -3.065490    0.521315
     14          1           0        3.307956   -0.408352    1.264628
     15          1           0        2.679508   -0.589523   -0.370411
     16          1           0        5.291172   -1.804760    0.657374
     17          1           0        4.664011   -1.985960   -0.977078
     18          1           0        2.623114   -3.147692   -0.070551
     19          1           0        3.253839   -2.965463    1.573189
     20          1           0        4.101001   -3.998875    0.409709
     21          6           0       -0.702422   -0.723188   -0.004398
     22          6           0       -1.159077    0.242183    0.898956
     23          6           0       -2.504839    0.620677    0.913564
     24          6           0       -3.370311    0.010658    0.006854
     25          6           0       -2.945710   -0.954218   -0.905296
     26          6           0       -1.595621   -1.317260   -0.902058
     27          1           0        0.344679   -1.011209   -0.008813
     28          1           0       -0.467666    0.705225    1.597233
     29          1           0       -2.885167    1.365341    1.602217
     30          1           0       -3.658762   -1.398130   -1.589340
     31          1           0       -1.243786   -2.067262   -1.604735
     32          7           0       -4.797300    0.403173    0.012872
     33          8           0       -5.539669   -0.149174   -0.796102
     34          8           0       -5.146382    1.255741    0.826447
 ---------------------------------------------------------------------

 SCF Done:  E(RHF) =  -669.535658643     A.U. after   15 cycles
 E2 =    -0.2091362322D+01 EUMP2 =    -0.67162702096445D+03

 The electronic state is 1-A.
 Alpha  occ. eigenvalues --  -20.60711 -20.60706 -15.85765 -11.31116 -11.27688
 Alpha  occ. eigenvalues --  -11.27681 -11.27370 -11.26693 -11.26676 -11.22653
 Alpha  occ. eigenvalues --  -11.22592 -11.22459 -11.22303 -11.22138 -11.21729
 Alpha  occ. eigenvalues --   -1.59788  -1.39342  -1.19285  -1.09449  -1.08676
 Alpha  occ. eigenvalues --   -1.04688  -1.04459  -0.96917  -0.95516  -0.87927
 Alpha  occ. eigenvalues --   -0.86082  -0.82356  -0.80534  -0.79296  -0.77404
 Alpha  occ. eigenvalues --   -0.71983  -0.71111  -0.70395  -0.66072  -0.64934
 Alpha  occ. eigenvalues --   -0.64690  -0.62038  -0.61846  -0.60290  -0.58533
 Alpha  occ. eigenvalues --   -0.56224  -0.55196  -0.53562  -0.53335  -0.53015
 Alpha  occ. eigenvalues --   -0.52777  -0.50854  -0.48847  -0.48739  -0.48734
 Alpha  occ. eigenvalues --   -0.47568  -0.46793  -0.46722  -0.44750  -0.44739
 Alpha  occ. eigenvalues --   -0.37254  -0.36297
 Alpha virt. eigenvalues --    0.05121   0.11354   0.16576   0.19340   0.22500
 Alpha virt. eigenvalues --    0.23319   0.24997   0.25755   0.26794   0.27840
 Alpha virt. eigenvalues --    0.29550   0.30485   0.30953   0.30966   0.31660

 Mulliken charges:
               1
     1  C   -0.297741
     2  C   -0.301190
     3  C   -0.476178
     4  H    0.153361
     5  H    0.152393
     6  H    0.149992
     7  H    0.151558
     8  H    0.157095
     9  H    0.156875
    10  H    0.162763
    11  C   -0.304479
    12  C   -0.299957
    13  C   -0.477069
    14  H    0.148489
    15  H    0.143679
    16  H    0.156572
    17  H    0.154752
    18  H    0.148461
    19  H    0.156788
    20  H    0.165887
    21  C   -0.178338
    22  C   -0.221492
    23  C   -0.170851
    24  C    0.158238
    25  C   -0.170761
    26  C   -0.220739
    27  H    0.237643
    28  H    0.224075
    29  H    0.275276
    30  H    0.275252
    31  H    0.222933
    32  N    0.488028
    33  O   -0.460668
    34  O   -0.460647
 Sum of Mulliken charges =  -0.00000

 Dipole moment (field-independent basis, Debye):
    X=              5.3284    Y=             -1.3567    Z=             -0.0217  Tot=              5.4984
 Quadrupole moment (field-independent basis, Debye-Ang):
   XX=           -128.0706   YY=            -93.7258   ZZ=            -91.5362
   XY=              4.9541   XZ=              1.3355   YZ=              3.0863

 Normal termination of Gaussian 16 at Thu May  6 07:34:51 2021.
