 Gaussian 16, Revision A.03,
 Gaussian 16:  EM64L-G16RevA.03 25-Dec-2016

 -------------
 #p 6-31g* mp2
 -------------

 ------------------------------------------------------
 Input file generated by CHIRIPA (05-May-2021 14:55:21)
 ------------------------------------------------------
 Symbolic Z-matrix:
 Charge =  0 Multiplicity = 1

                         Standard orientation:
 ---------------------------------------------------------------------
 Center     Atomic      Atomic             Coordinates (Angstroms)
 Number     Number       Type             X           Y           Z
 ---------------------------------------------------------------------
      1          6           0        4.479225    1.103915    0.627461
      2          6           0        4.754142   -0.150218    0.072402
      3          6           0        3.713114   -1.013718   -0.281406
      4          6           0        2.403073   -0.588973   -0.065366
      5          6           0        2.096967    0.654378    0.485694
      6          6           0        3.153852    1.501510    0.831975
      7          1           0        5.294079    1.768345    0.899384
      8          1           0        5.782476   -0.461642   -0.087562
      9          1           0        3.897534   -1.990073   -0.712842
     10          1           0        1.061678    0.936937    0.633189
     11          1           0        2.937370    2.474916    1.262860
     12          7           0        1.292590   -1.494457   -0.435943
     13          8           0        0.147048   -1.096716   -0.235510
     14          8           0        1.588762   -2.584772   -0.919816
     15          6           0       -3.168750    1.142442   -0.471493
     16          6           0       -2.152312    2.144625    0.076657
     17          6           0       -1.879815    3.298346   -0.888987
     18          1           0       -2.802182    0.743685   -1.427299
     19          1           0       -4.108660    1.667311   -0.691668
     20          1           0       -1.215047    1.617763    0.297032
     21          1           0       -2.521252    2.540900    1.031364
     22          1           0       -2.801799    3.849461   -1.100685
     23          1           0       -1.488172    2.921079   -1.839190
     24          1           0       -1.150431    4.002805   -0.477168
     25          6           0       -3.451650   -0.016712    0.482478
     26          6           0       -4.468088   -1.018895   -0.065672
     27          6           0       -4.740585   -2.172616    0.899971
     28          1           0       -2.511740   -0.541581    0.702653
     29          1           0       -3.818217    0.382046    1.438283
     30          1           0       -4.099147   -1.415170   -1.020379
     31          1           0       -5.405353   -0.492033   -0.286047
     32          1           0       -5.132227   -1.795350    1.850175
     33          1           0       -3.818599   -2.723731    1.111670
     34          1           0       -5.469969   -2.877076    0.488151
 ---------------------------------------------------------------------

 SCF Done:  E(RHF) =  -669.535999009     A.U. after   15 cycles
 E2 =    -0.2092500750D+01 EUMP2 =    -0.67162849975838D+03

 The electronic state is 1-A.
 Alpha  occ. eigenvalues --  -20.61007 -20.60988 -15.86038 -11.31307 -11.27868
 Alpha  occ. eigenvalues --  -11.27853 -11.27598 -11.26867 -11.26853 -11.21230
 Alpha  occ. eigenvalues --  -11.20886 -11.20604 -11.20600 -11.20241 -11.20139
 Alpha  occ. eigenvalues --   -1.60064  -1.39622  -1.19474  -1.08888  -1.07614
 Alpha  occ. eigenvalues --   -1.04864  -1.02849  -0.95740  -0.95281  -0.86319
 Alpha  occ. eigenvalues --   -0.86261  -0.82577  -0.78960  -0.77688  -0.77330
 Alpha  occ. eigenvalues --   -0.72276  -0.71374  -0.70591  -0.65143  -0.64887
 Alpha  occ. eigenvalues --   -0.64181  -0.62229  -0.60222  -0.58714  -0.56901
 Alpha  occ. eigenvalues --   -0.55373  -0.54538  -0.53197  -0.52966  -0.52057
 Alpha  occ. eigenvalues --   -0.51721  -0.49276  -0.49019  -0.48962  -0.47261
 Alpha  occ. eigenvalues --   -0.45954  -0.45066  -0.44947  -0.44706  -0.43044
 Alpha  occ. eigenvalues --   -0.37452  -0.36460
 Alpha virt. eigenvalues --    0.04882   0.11186   0.16391   0.20458   0.23436
 Alpha virt. eigenvalues --    0.24642   0.26058   0.27505   0.27852   0.28625
 Alpha virt. eigenvalues --    0.29493   0.30928   0.31534   0.32196   0.32278

 Mulliken charges:
               1
     1  C   -0.169976
     2  C   -0.219224
     3  C   -0.169205
     4  C    0.153270
     5  C   -0.175521
     6  C   -0.223470
     7  H    0.226166
     8  H    0.223852
     9  H    0.275852
    10  H    0.291497
    11  H    0.224848
    12  N    0.494012
    13  O   -0.470791
    14  O   -0.458393
    15  C   -0.294274
    16  C   -0.310117
    17  C   -0.475309
    18  H    0.155857
    19  H    0.144916
    20  H    0.157229
    21  H    0.148681
    22  H    0.156104
    23  H    0.157112
    24  H    0.151821
    25  C   -0.308040
    26  C   -0.298720
    27  C   -0.476499
    28  H    0.174852
    29  H    0.141599
    30  H    0.156552
    31  H    0.146176
    32  H    0.150706
    33  H    0.161277
    34  H    0.157161
 Sum of Mulliken charges =  -0.00000

 Dipole moment (field-independent basis, Debye):
    X=              4.1239    Y=              2.9887    Z=              1.2381  Tot=              5.2414
 Quadrupole moment (field-independent basis, Debye-Ang):
   XX=            -74.3392   YY=            -97.5586   ZZ=            -95.4673
   XY=              2.5091   XZ=              1.9188   YZ=              1.0958

 Normal termination of Gaussian 16 at Wed May  5 22:14:40 2021.
