 Gaussian 16, Revision A.03,
 Gaussian 16:  EM64L-G16RevA.03 25-Dec-2016

 -------------
 #p 6-31g* mp2
 -------------

 ------------------------------------------------------
 Input file generated by CHIRIPA (05-May-2021 14:51:14)
 ------------------------------------------------------
 Symbolic Z-matrix:
 Charge =  0 Multiplicity = 1

                         Standard orientation:
 ---------------------------------------------------------------------
 Center     Atomic      Atomic             Coordinates (Angstroms)
 Number     Number       Type             X           Y           Z
 ---------------------------------------------------------------------
      1          6           0       -3.455617   -0.036318   -0.237828
      2          6           0       -4.944957   -0.379780   -0.281262
      3          6           0       -5.738619    0.546586   -1.203076
      4          1           0       -3.335297    1.004157    0.093653
      5          1           0       -3.044309   -0.089744   -1.255357
      6          1           0       -5.353028   -0.327072    0.736243
      7          1           0       -5.061738   -1.419618   -0.612494
      8          1           0       -5.358843    0.487699   -2.228211
      9          1           0       -5.651788    1.586454   -0.871811
     10          1           0       -6.800804    0.283211   -1.219131
     11          6           0       -2.648863   -0.953618    0.679470
     12          6           0       -1.159523   -0.610156    0.722904
     13          6           0       -0.365861   -1.536522    1.644718
     14          1           0       -3.060171   -0.900192    1.696999
     15          1           0       -2.769183   -1.994093    0.347989
     16          1           0       -1.042742    0.429682    1.054136
     17          1           0       -0.751452   -0.662865   -0.294601
     18          1           0       -0.452692   -2.576390    1.313453
     19          1           0       -0.745637   -1.477636    2.669854
     20          1           0        0.696324   -1.273147    1.660773
     21          6           0        3.314827   -0.018987   -0.721150
     22          6           0        3.856463   -1.286923   -0.060122
     23          6           0        4.378147   -2.305556   -1.074038
     24          1           0        2.509506   -0.291267   -1.417041
     25          1           0        4.109512    0.438726   -1.326436
     26          1           0        3.061400   -1.741357    0.544841
     27          1           0        4.660460   -1.011574    0.634419
     28          1           0        5.189109   -1.874968   -1.670307
     29          1           0        3.580963   -2.608898   -1.760393
     30          1           0        4.760567   -3.204143   -0.579914
     31          6           0        2.789652    1.008923    0.279508
     32          6           0        2.248018    2.276859   -0.381520
     33          6           0        1.726332    3.295493    0.632396
     34          1           0        1.994967    0.551210    0.884793
     35          1           0        3.594975    1.281204    0.975399
     36          1           0        1.444020    2.001510   -1.076060
     37          1           0        3.043080    2.731293   -0.986483
     38          1           0        2.523517    3.598834    1.318749
     39          1           0        0.915372    2.864904    1.228664
     40          1           0        1.343914    4.194079    0.138272
 ---------------------------------------------------------------------

 SCF Done:  E(RHF) =  -470.733087421     A.U. after   11 cycles
 E2 =    -0.1583850126D+01 EUMP2 =    -0.47231693754688D+03

 The electronic state is 1-A.
 Alpha  occ. eigenvalues --  -11.21712 -11.21639 -11.21588 -11.21567 -11.21470
 Alpha  occ. eigenvalues --  -11.21406 -11.21376 -11.21308 -11.21146 -11.21099
 Alpha  occ. eigenvalues --  -11.21062 -11.21060  -1.08505  -1.08402  -1.03601
 Alpha  occ. eigenvalues --   -1.03508  -0.96057  -0.95952  -0.87063  -0.86978
 Alpha  occ. eigenvalues --   -0.79668  -0.79568  -0.78313  -0.78227  -0.65127
 Alpha  occ. eigenvalues --   -0.65084  -0.61034  -0.60867  -0.59427  -0.59326
 Alpha  occ. eigenvalues --   -0.57719  -0.57526  -0.55325  -0.55243  -0.52792
 Alpha  occ. eigenvalues --   -0.52636  -0.52497  -0.52355  -0.49995  -0.49887
 Alpha  occ. eigenvalues --   -0.48014  -0.47876  -0.46704  -0.46605  -0.45869
 Alpha  occ. eigenvalues --   -0.45801  -0.45728  -0.45603  -0.43823  -0.43750
 Alpha virt. eigenvalues --    0.19828   0.23055   0.23328   0.24430   0.25771
 Alpha virt. eigenvalues --    0.26157   0.26536   0.27817   0.28201   0.29387
 Alpha virt. eigenvalues --    0.30034   0.31369   0.31694   0.31945   0.32280

 Mulliken charges:
               1
     1  C   -0.298382
     2  C   -0.299725
     3  C   -0.475763
     4  H    0.149907
     5  H    0.149464
     6  H    0.152066
     7  H    0.152017
     8  H    0.155224
     9  H    0.155326
    10  H    0.160404
    11  C   -0.298511
    12  C   -0.301493
    13  C   -0.484801
    14  H    0.149962
    15  H    0.150018
    16  H    0.152977
    17  H    0.152108
    18  H    0.155709
    19  H    0.155944
    20  H    0.167695
    21  C   -0.298010
    22  C   -0.304079
    23  C   -0.475444
    24  H    0.149512
    25  H    0.149592
    26  H    0.155637
    27  H    0.151927
    28  H    0.155184
    29  H    0.155013
    30  H    0.160291
    31  C   -0.306681
    32  C   -0.299034
    33  C   -0.476912
    34  H    0.158278
    35  H    0.149267
    36  H    0.152696
    37  H    0.151669
    38  H    0.155110
    39  H    0.155638
    40  H    0.160201
 Sum of Mulliken charges =  -0.00000

 Dipole moment (field-independent basis, Debye):
    X=             -0.0307    Y=             -0.0114    Z=              0.0093  Tot=              0.0341
 Quadrupole moment (field-independent basis, Debye-Ang):
   XX=            -84.5570   YY=            -85.2661   ZZ=            -84.9171
   XY=              1.0345   XZ=             -0.2662   YZ=              0.3775

 Normal termination of Gaussian 16 at Thu May  6 05:37:53 2021.
