 Gaussian 16, Revision A.03,
 Gaussian 16:  EM64L-G16RevA.03 25-Dec-2016

 -------------
 #p 6-31g* mp2
 -------------

 ------------------------------------------------------
 Input file generated by CHIRIPA (05-May-2021 14:55:21)
 ------------------------------------------------------
 Symbolic Z-matrix:
 Charge =  0 Multiplicity = 1

                         Standard orientation:
 ---------------------------------------------------------------------
 Center     Atomic      Atomic             Coordinates (Angstroms)
 Number     Number       Type             X           Y           Z
 ---------------------------------------------------------------------
      1          6           0        1.686117    2.186591    0.228083
      2          6           0        1.815969    1.386162    1.367807
      3          6           0        2.411798    0.124149    1.284989
      4          6           0        2.868737   -0.307934    0.040883
      5          6           0        2.753813    0.466227   -1.112702
      6          6           0        2.154628    1.724883   -1.006358
      7          1           0        1.221959    3.165649    0.301555
      8          1           0        1.453028    1.742147    2.327804
      9          1           0        2.525075   -0.516100    2.151400
     10          1           0        3.125209    0.084144   -2.055833
     11          1           0        2.055119    2.344349   -1.893153
     12          7           0        3.501292   -1.642194   -0.059246
     13          8           0        3.895751   -1.999879   -1.166991
     14          8           0        3.590651   -2.305036    0.971915
     15          6           0       -3.721067   -0.572840   -0.356609
     16          6           0       -4.848537   -1.264945    0.410063
     17          6           0       -5.202333   -2.635361   -0.168368
     18          1           0       -4.015559   -0.463162   -1.409316
     19          1           0       -2.830939   -1.217017   -0.346537
     20          1           0       -5.735847   -0.619042    0.399728
     21          1           0       -4.551406   -1.372817    1.461106
     22          1           0       -4.332895   -3.300228   -0.143267
     23          1           0       -5.524065   -2.542170   -1.210676
     24          1           0       -6.010537   -3.112335    0.394803
     25          6           0       -3.356013    0.798201    0.209703
     26          6           0       -2.228544    1.490307   -0.556970
     27          6           0       -1.874748    2.860722    0.021462
     28          1           0       -4.246142    1.442378    0.199630
     29          1           0       -3.061523    0.688522    1.262410
     30          1           0       -2.525674    1.598178   -1.608012
     31          1           0       -1.341234    0.844403   -0.546634
     32          1           0       -1.553016    2.767530    1.063770
     33          1           0       -2.744186    3.525589   -0.003639
     34          1           0       -1.066543    3.337695   -0.541710
 ---------------------------------------------------------------------

 SCF Done:  E(RHF) =  -669.535072049     A.U. after   15 cycles
 E2 =    -0.2092310660D+01 EUMP2 =    -0.67162738270882D+03

 The electronic state is 1-A.
 Alpha  occ. eigenvalues --  -20.60782 -20.60776 -15.85837 -11.31199 -11.27791
 Alpha  occ. eigenvalues --  -11.27787 -11.27487 -11.26788 -11.26778 -11.22139
 Alpha  occ. eigenvalues --  -11.21990 -11.21820 -11.21809 -11.21646 -11.21189
 Alpha  occ. eigenvalues --   -1.59858  -1.39412  -1.19387  -1.08844  -1.08750
 Alpha  occ. eigenvalues --   -1.04791  -1.03960  -0.96452  -0.95598  -0.87464
 Alpha  occ. eigenvalues --   -0.86185  -0.82441  -0.80026  -0.78594  -0.77489
 Alpha  occ. eigenvalues --   -0.72055  -0.71184  -0.70508  -0.65446  -0.65035
 Alpha  occ. eigenvalues --   -0.64793  -0.62139  -0.61358  -0.59877  -0.58044
 Alpha  occ. eigenvalues --   -0.55804  -0.55235  -0.53215  -0.52991  -0.52879
 Alpha  occ. eigenvalues --   -0.52830  -0.50359  -0.48813  -0.48809  -0.48338
 Alpha  occ. eigenvalues --   -0.47029  -0.46149  -0.46039  -0.44818  -0.44208
 Alpha  occ. eigenvalues --   -0.37312  -0.36401
 Alpha virt. eigenvalues --    0.05042   0.11190   0.16490   0.20455   0.22702
 Alpha virt. eigenvalues --    0.24198   0.25979   0.26499   0.26738   0.27457
 Alpha virt. eigenvalues --    0.29010   0.30106   0.31046   0.31417   0.32203

 Mulliken charges:
               1
     1  C   -0.165868
     2  C   -0.221243
     3  C   -0.171117
     4  C    0.157857
     5  C   -0.170715
     6  C   -0.220484
     7  H    0.228981
     8  H    0.223439
     9  H    0.275554
    10  H    0.275781
    11  H    0.223453
    12  N    0.488127
    13  O   -0.460404
    14  O   -0.460600
    15  C   -0.299116
    16  C   -0.299898
    17  C   -0.476176
    18  H    0.150163
    19  H    0.152083
    20  H    0.151642
    21  H    0.152009
    22  H    0.157208
    23  H    0.155413
    24  H    0.160944
    25  C   -0.298422
    26  C   -0.302333
    27  C   -0.474681
    28  H    0.149742
    29  H    0.148760
    30  H    0.152607
    31  H    0.158506
    32  H    0.150259
    33  H    0.158610
    34  H    0.149921
 Sum of Mulliken charges =  -0.00000

 Dipole moment (field-independent basis, Debye):
    X=             -2.2929    Y=              4.6332    Z=              0.3330  Tot=              5.1802
 Quadrupole moment (field-independent basis, Debye-Ang):
   XX=           -107.7718   YY=            -99.2269   ZZ=            -89.6848
   XY=             13.9281   XZ=              0.4864   YZ=             -1.2798

 Normal termination of Gaussian 16 at Thu May  6 19:10:57 2021.
