 Gaussian 16, Revision A.03,
 Gaussian 16:  EM64L-G16RevA.03 25-Dec-2016

 -------------
 #p 6-31g* mp2
 -------------

 ------------------------------------------------------
 Input file generated by CHIRIPA (05-May-2021 14:57:24)
 ------------------------------------------------------
 Symbolic Z-matrix:
 Charge =  0 Multiplicity = 1

                         Standard orientation:
 ---------------------------------------------------------------------
 Center     Atomic      Atomic             Coordinates (Angstroms)
 Number     Number       Type             X           Y           Z
 ---------------------------------------------------------------------
      1          6           0        2.862978    2.569693    0.270430
      2          6           0        2.582761    1.877600   -0.912367
      3          6           0        2.709913    0.486460   -0.968137
      4          6           0        3.121423   -0.183817    0.182809
      5          6           0        3.407960    0.477382    1.376125
      6          6           0        3.273959    1.868611    1.408894
      7          1           0        2.761542    3.650398    0.304819
      8          1           0        2.263399    2.419459   -1.798054
      9          1           0        2.499464   -0.074349   -1.870701
     10          1           0        3.724329   -0.090280    2.242779
     11          1           0        3.492259    2.403477    2.328844
     12          7           0        3.259660   -1.656602    0.135943
     13          8           0        3.623879   -2.223892    1.163641
     14          8           0        3.001173   -2.215793   -0.927601
     15          6           0       -0.978158   -0.040354   -1.557696
     16          6           0       -1.481201   -1.247924   -1.062476
     17          6           0       -2.655284   -1.270123   -0.303802
     18          6           0       -3.303641   -0.060710   -0.058362
     19          6           0       -2.827496    1.158547   -0.537932
     20          6           0       -1.651723    1.156916   -1.294307
     21          1           0       -0.065445   -0.032365   -2.146158
     22          1           0       -0.960204   -2.179271   -1.265456
     23          1           0       -3.066827   -2.190756    0.091783
     24          1           0       -3.369006    2.070837   -0.319045
     25          1           0       -1.263370    2.096222   -1.677623
     26          7           0       -4.547484   -0.071597    0.743595
     27          8           0       -5.099982    1.007510    0.945860
     28          8           0       -4.946358   -1.159032    1.154720
 ---------------------------------------------------------------------

 SCF Done:  E(RHF) =  -868.337179294     A.U. after   16 cycles
 E2 =    -0.2600921854D+01 EUMP2 =    -0.87093810114802D+03

 The electronic state is 1-A.
 Alpha  occ. eigenvalues --  -20.61633 -20.61586 -20.60787 -20.60774 -15.86665
 Alpha  occ. eigenvalues --  -15.85836 -11.32044 -11.31207 -11.28727 -11.28543
 Alpha  occ. eigenvalues --  -11.28321 -11.27820 -11.27718 -11.27705 -11.27555
 Alpha  occ. eigenvalues --  -11.27539 -11.26890 -11.26687  -1.60683  -1.59858
 Alpha  occ. eigenvalues --   -1.40240  -1.39411  -1.20214  -1.19382  -1.09592
 Alpha  occ. eigenvalues --   -1.08787  -1.05639  -1.04779  -0.96437  -0.95621
 Alpha  occ. eigenvalues --   -0.87029  -0.86180  -0.83281  -0.82447  -0.78339
 Alpha  occ. eigenvalues --   -0.77481  -0.72884  -0.72055  -0.72006  -0.71370
 Alpha  occ. eigenvalues --   -0.71182  -0.70505  -0.65873  -0.65642  -0.65036
 Alpha  occ. eigenvalues --   -0.64785  -0.62999  -0.62119  -0.56117  -0.55369
 Alpha  occ. eigenvalues --   -0.53928  -0.53710  -0.53081  -0.52867  -0.49650
 Alpha  occ. eigenvalues --   -0.49627  -0.48814  -0.48808  -0.45645  -0.44816
 Alpha  occ. eigenvalues --   -0.38167  -0.37662  -0.36915  -0.36372
 Alpha virt. eigenvalues --    0.04143   0.05080   0.10313   0.11317   0.15639
 Alpha virt. eigenvalues --    0.16568   0.19044   0.22100   0.25322   0.26147
 Alpha virt. eigenvalues --    0.27756   0.29645   0.30021   0.30882   0.32749

 Mulliken charges:
               1
     1  C   -0.169459
     2  C   -0.219167
     3  C   -0.174810
     4  C    0.161127
     5  C   -0.169092
     6  C   -0.217116
     7  H    0.228140
     8  H    0.219925
     9  H    0.269325
    10  H    0.278801
    11  H    0.227523
    12  N    0.488232
    13  O   -0.455310
    14  O   -0.465702
    15  C   -0.167084
    16  C   -0.221427
    17  C   -0.170640
    18  C    0.158523
    19  C   -0.171691
    20  C   -0.217771
    21  H    0.218757
    22  H    0.233991
    23  H    0.277647
    24  H    0.274004
    25  H    0.216051
    26  N    0.487997
    27  O   -0.461757
    28  O   -0.459018
 Sum of Mulliken charges =  -0.00000

 Dipole moment (field-independent basis, Debye):
    X=              4.0626    Y=              5.1403    Z=             -2.3900  Tot=              6.9742
 Quadrupole moment (field-independent basis, Debye-Ang):
   XX=           -137.4845   YY=           -102.0889   ZZ=           -100.6939
   XY=             16.0771   XZ=             11.7884   YZ=              0.7762

 Normal termination of Gaussian 16 at Fri May  7 12:37:54 2021.
