 Gaussian 16, Revision A.03,
 Gaussian 16:  EM64L-G16RevA.03 25-Dec-2016

 -------------
 #p 6-31g* mp2
 -------------

 ------------------------------------------------------
 Input file generated by CHIRIPA (05-May-2021 14:51:13)
 ------------------------------------------------------
 Symbolic Z-matrix:
 Charge =  0 Multiplicity = 1

                         Standard orientation:
 ---------------------------------------------------------------------
 Center     Atomic      Atomic             Coordinates (Angstroms)
 Number     Number       Type             X           Y           Z
 ---------------------------------------------------------------------
      1          6           0        3.238523    1.028703   -0.255522
      2          6           0        3.975789    2.145201    0.484651
      3          6           0        3.463244    3.537716    0.115876
      4          1           0        3.342307    1.184375   -1.338084
      5          1           0        2.164925    1.096485   -0.031497
      6          1           0        5.047855    2.074488    0.260395
      7          1           0        3.870400    1.986747    1.565577
      8          1           0        2.399277    3.632630    0.355807
      9          1           0        3.583422    3.720869   -0.956791
     10          1           0        4.004089    4.320750    0.656433
     11          6           0        3.739653   -0.369279    0.102587
     12          6           0        3.002387   -1.485777   -0.637586
     13          6           0        3.514933   -2.878291   -0.268810
     14          1           0        4.813252   -0.437060   -0.121437
     15          1           0        3.635870   -0.524950    1.185149
     16          1           0        3.107777   -1.327323   -1.718512
     17          1           0        1.930322   -1.415064   -0.413330
     18          1           0        3.394755   -3.061445    0.803856
     19          1           0        4.578900   -2.973205   -0.508742
     20          1           0        2.974088   -3.661326   -0.809368
     21          6           0       -2.929884   -0.769126   -0.202167
     22          6           0       -2.278003   -1.662903    0.853389
     23          6           0       -1.161130   -2.536036    0.280653
     24          1           0       -3.331150   -1.397915   -1.008736
     25          1           0       -2.160524   -0.130135   -0.657329
     26          1           0       -3.048600   -2.299042    1.307396
     27          1           0       -1.878409   -1.031924    1.657632
     28          1           0       -0.371934   -1.915077   -0.155445
     29          1           0       -1.548774   -3.189394   -0.507672
     30          1           0       -0.708990   -3.166880    1.052318
     31          6           0       -4.048293    0.109702    0.355102
     32          6           0       -4.700174    1.003478   -0.700454
     33          6           0       -5.817047    1.876611   -0.127719
     34          1           0       -4.817652   -0.529289    0.810263
     35          1           0       -3.647026    0.738492    1.161670
     36          1           0       -5.099768    0.372499   -1.504698
     37          1           0       -3.929576    1.639617   -1.154462
     38          1           0       -5.429402    2.529969    0.660606
     39          1           0       -6.606243    1.255652    0.308379
     40          1           0       -6.269187    2.507456   -0.899383
 ---------------------------------------------------------------------

 SCF Done:  E(RHF) =  -470.733306086     A.U. after   11 cycles
 E2 =    -0.1582537483D+01 EUMP2 =    -0.47231584356972D+03

 The electronic state is 1-A.
 Alpha  occ. eigenvalues --  -11.21632 -11.21616 -11.21614 -11.21561 -11.21426
 Alpha  occ. eigenvalues --  -11.21412 -11.21367 -11.21348 -11.21090 -11.21088
 Alpha  occ. eigenvalues --  -11.21081 -11.21030  -1.08454  -1.08428  -1.03560
 Alpha  occ. eigenvalues --   -1.03514  -0.96008  -0.95964  -0.87023  -0.86983
 Alpha  occ. eigenvalues --   -0.79657  -0.79549  -0.78282  -0.78228  -0.65131
 Alpha  occ. eigenvalues --   -0.65023  -0.61065  -0.60823  -0.59366  -0.59342
 Alpha  occ. eigenvalues --   -0.57638  -0.57557  -0.55352  -0.55204  -0.52697
 Alpha  occ. eigenvalues --   -0.52658  -0.52440  -0.52387  -0.50050  -0.49843
 Alpha  occ. eigenvalues --   -0.48024  -0.47830  -0.46803  -0.46472  -0.45869
 Alpha  occ. eigenvalues --   -0.45772  -0.45754  -0.45542  -0.43804  -0.43778
 Alpha virt. eigenvalues --    0.21543   0.23124   0.23666   0.24718   0.25766
 Alpha virt. eigenvalues --    0.26868   0.27086   0.27581   0.28011   0.28800
 Alpha virt. eigenvalues --    0.30487   0.31574   0.31696   0.31974   0.32015

 Mulliken charges:
               1
     1  C   -0.298120
     2  C   -0.299645
     3  C   -0.475678
     4  H    0.149750
     5  H    0.148388
     6  H    0.152110
     7  H    0.151955
     8  H    0.154890
     9  H    0.155233
    10  H    0.160340
    11  C   -0.297631
    12  C   -0.307916
    13  C   -0.475095
    14  H    0.149556
    15  H    0.149561
    16  H    0.151724
    17  H    0.159544
    18  H    0.155003
    19  H    0.154873
    20  H    0.160894
    21  C   -0.298442
    22  C   -0.299287
    23  C   -0.482688
    24  H    0.149871
    25  H    0.149494
    26  H    0.152130
    27  H    0.151476
    28  H    0.161454
    29  H    0.155650
    30  H    0.160460
    31  C   -0.298300
    32  C   -0.299703
    33  C   -0.475718
    34  H    0.149608
    35  H    0.149509
    36  H    0.152015
    37  H    0.152032
    38  H    0.155164
    39  H    0.155194
    40  H    0.160343
 Sum of Mulliken charges =  -0.00000

 Dipole moment (field-independent basis, Debye):
    X=             -0.0095    Y=             -0.0132    Z=             -0.0060  Tot=              0.0174
 Quadrupole moment (field-independent basis, Debye-Ang):
   XX=            -84.6049   YY=            -85.8440   ZZ=            -84.2700
   XY=              1.4063   XZ=             -0.1930   YZ=              0.1153

 Normal termination of Gaussian 16 at Wed May  5 19:59:10 2021.
