 Gaussian 16, Revision A.03,
 Gaussian 16:  EM64L-G16RevA.03 25-Dec-2016

 -------------
 #p 6-31g* mp2
 -------------

 ------------------------------------------------------
 Input file generated by CHIRIPA (05-May-2021 14:55:21)
 ------------------------------------------------------
 Symbolic Z-matrix:
 Charge =  0 Multiplicity = 1

                         Standard orientation:
 ---------------------------------------------------------------------
 Center     Atomic      Atomic             Coordinates (Angstroms)
 Number     Number       Type             X           Y           Z
 ---------------------------------------------------------------------
      1          6           0       -1.740415    2.185596    1.075736
      2          6           0       -2.470065    1.954564   -0.095057
      3          6           0       -2.596505    0.660643   -0.609187
      4          6           0       -1.977537   -0.383622    0.076144
      5          6           0       -1.243907   -0.185526    1.244834
      6          6           0       -1.130739    1.116697    1.740772
      7          1           0       -1.647349    3.193969    1.468058
      8          1           0       -2.944614    2.782770   -0.613636
      9          1           0       -3.155498    0.453475   -1.513634
     10          1           0       -0.782093   -1.031300    1.739619
     11          1           0       -0.563467    1.293152    2.650229
     12          7           0       -2.104367   -1.757833   -0.458512
     13          8           0       -1.549567   -2.660797    0.163975
     14          8           0       -2.756177   -1.905955   -1.489939
     15          6           0        2.384290    0.764814   -0.711502
     16          6           0        2.122349    2.118465   -0.050443
     17          6           0        1.883711    3.236086   -1.066204
     18          1           0        3.255162    0.850678   -1.375698
     19          1           0        1.528671    0.504717   -1.349985
     20          1           0        2.977601    2.375285    0.587683
     21          1           0        1.252116    2.029320    0.612402
     22          1           0        1.018110    3.006053   -1.695824
     23          1           0        2.753400    3.353984   -1.720683
     24          1           0        1.698542    4.194918   -0.572026
     25          6           0        2.624691   -0.362547    0.290991
     26          6           0        2.886632   -1.716199   -0.370069
     27          6           0        3.125271   -2.833819    0.645692
     28          1           0        3.480311   -0.102450    0.929474
     29          1           0        1.753820   -0.448411    0.955186
     30          1           0        3.756866   -1.627053   -1.032913
     31          1           0        2.031381   -1.973018   -1.008195
     32          1           0        2.255583   -2.951717    1.300172
     33          1           0        3.990871   -2.603786    1.275312
     34          1           0        3.310440   -3.792652    0.151516
 ---------------------------------------------------------------------

 SCF Done:  E(RHF) =  -669.534622708     A.U. after   15 cycles
 E2 =    -0.2095314095D+01 EUMP2 =    -0.67162993680297D+03

 The electronic state is 1-A.
 Alpha  occ. eigenvalues --  -20.60924 -20.60918 -15.85974 -11.31371 -11.27929
 Alpha  occ. eigenvalues --  -11.27926 -11.27658 -11.26942 -11.26926 -11.21701
 Alpha  occ. eigenvalues --  -11.21448 -11.21395 -11.21369 -11.21339 -11.20770
 Alpha  occ. eigenvalues --   -1.59995  -1.39547  -1.19549  -1.08936  -1.08440
 Alpha  occ. eigenvalues --   -1.04953  -1.03512  -0.95987  -0.95753  -0.87005
 Alpha  occ. eigenvalues --   -0.86340  -0.82588  -0.79598  -0.78285  -0.77621
 Alpha  occ. eigenvalues --   -0.72189  -0.71321  -0.70636  -0.65193  -0.65114
 Alpha  occ. eigenvalues --   -0.64945  -0.62286  -0.60922  -0.59380  -0.57590
 Alpha  occ. eigenvalues --   -0.55437  -0.55265  -0.53298  -0.53034  -0.52654
 Alpha  occ. eigenvalues --   -0.52416  -0.49926  -0.48951  -0.48944  -0.47911
 Alpha  occ. eigenvalues --   -0.46641  -0.45817  -0.45719  -0.44936  -0.43779
 Alpha  occ. eigenvalues --   -0.37449  -0.36442
 Alpha virt. eigenvalues --    0.04852   0.10977   0.16286   0.20526   0.23002
 Alpha virt. eigenvalues --    0.23725   0.25868   0.26892   0.27769   0.27881
 Alpha virt. eigenvalues --    0.29449   0.30294   0.31293   0.31749   0.31902

 Mulliken charges:
               1
     1  C   -0.168320
     2  C   -0.218062
     3  C   -0.171479
     4  C    0.157695
     5  C   -0.168809
     6  C   -0.220840
     7  H    0.227430
     8  H    0.224709
     9  H    0.276366
    10  H    0.276297
    11  H    0.226140
    12  N    0.487942
    13  O   -0.460273
    14  O   -0.459547
    15  C   -0.297002
    16  C   -0.306054
    17  C   -0.475306
    18  H    0.150348
    19  H    0.150814
    20  H    0.149110
    21  H    0.155105
    22  H    0.154905
    23  H    0.157038
    24  H    0.154358
    25  C   -0.299756
    26  C   -0.300528
    27  C   -0.475275
    28  H    0.147545
    29  H    0.143353
    30  H    0.151044
    31  H    0.159067
    32  H    0.157178
    33  H    0.151251
    34  H    0.163556
 Sum of Mulliken charges =  -0.00000

 Dipole moment (field-independent basis, Debye):
    X=              0.2761    Y=              4.7335    Z=              1.8497  Tot=              5.0896
 Quadrupole moment (field-independent basis, Debye-Ang):
   XX=            -94.8002   YY=            -99.2839   ZZ=            -92.2417
   XY=            -10.9845   XZ=             -1.6402   YZ=             -1.1373

 Normal termination of Gaussian 16 at Thu May  6 03:02:28 2021.
