 Gaussian 16, Revision A.03,
 Gaussian 16:  EM64L-G16RevA.03 25-Dec-2016

 -------------
 #p 6-31g* mp2
 -------------

 ------------------------------------------------------
 Input file generated by CHIRIPA (05-May-2021 14:51:10)
 ------------------------------------------------------
 Symbolic Z-matrix:
 Charge =  0 Multiplicity = 1

                         Standard orientation:
 ---------------------------------------------------------------------
 Center     Atomic      Atomic             Coordinates (Angstroms)
 Number     Number       Type             X           Y           Z
 ---------------------------------------------------------------------
      1          6           0       -2.688157   -0.732641   -0.140509
      2          6           0       -1.806592   -1.267919    0.988342
      3          6           0       -0.662134   -2.144883    0.479475
      4          1           0       -3.097564   -1.578318   -0.709861
      5          1           0       -2.066635   -0.156566   -0.839968
      6          1           0       -2.429837   -1.841653    1.686204
      7          1           0       -1.399389   -0.420874    1.555190
      8          1           0       -0.016509   -1.579522   -0.200330
      9          1           0       -1.052812   -3.008374   -0.068572
     10          1           0       -0.044612   -2.516814    1.303000
     11          6           0       -3.836687    0.145804    0.352382
     12          6           0       -4.718252    0.681083   -0.776469
     13          6           0       -5.862709    1.558047   -0.267603
     14          1           0       -4.458209   -0.430271    1.051841
     15          1           0       -3.427279    0.991481    0.921733
     16          1           0       -5.125455   -0.165963   -1.343317
     17          1           0       -4.095007    1.254816   -1.474331
     18          1           0       -5.472032    2.421537    0.280445
     19          1           0       -6.508335    0.992686    0.412203
     20          1           0       -6.480232    1.929978   -1.091128
     21          6           0        2.862731   -0.353844   -0.037158
     22          6           0        3.622696   -1.589933   -0.519365
     23          6           0        2.809997   -2.877017   -0.375384
     24          1           0        2.577853   -0.493575    1.014633
     25          1           0        1.926502   -0.262900   -0.605135
     26          1           0        4.557870   -1.677740    0.048396
     27          1           0        3.905964   -1.447162   -1.570076
     28          1           0        1.883833   -2.814787   -0.955857
     29          1           0        2.539444   -3.046675    0.671811
     30          1           0        3.372216   -3.748151   -0.725948
     31          6           0        3.662112    0.940681   -0.174715
     32          6           0        2.902148    2.176769    0.307493
     33          6           0        3.714846    3.463853    0.163512
     34          1           0        4.598341    0.849736    0.393263
     35          1           0        3.946991    1.080412   -1.226507
     36          1           0        2.618880    2.033999    1.358203
     37          1           0        1.966974    2.264577   -0.260269
     38          1           0        3.985400    3.633512   -0.883683
     39          1           0        4.641011    3.401624    0.743985
     40          1           0        3.152628    4.334987    0.514076
 ---------------------------------------------------------------------

 SCF Done:  E(RHF) =  -470.731488543     A.U. after   11 cycles
 E2 =    -0.1584002550D+01 EUMP2 =    -0.47231549109304D+03

 The electronic state is 1-A.
 Alpha  occ. eigenvalues --  -11.21630 -11.21588 -11.21563 -11.21512 -11.21407
 Alpha  occ. eigenvalues --  -11.21377 -11.21347 -11.21317 -11.21093 -11.21061
 Alpha  occ. eigenvalues --  -11.20915 -11.20903  -1.08446  -1.08380  -1.03562
 Alpha  occ. eigenvalues --   -1.03437  -0.96011  -0.95884  -0.87059  -0.86881
 Alpha  occ. eigenvalues --   -0.79747  -0.79413  -0.78303  -0.78140  -0.65115
 Alpha  occ. eigenvalues --   -0.64990  -0.61008  -0.60825  -0.59407  -0.59243
 Alpha  occ. eigenvalues --   -0.57581  -0.57546  -0.55256  -0.55227  -0.52811
 Alpha  occ. eigenvalues --   -0.52644  -0.52396  -0.52197  -0.49946  -0.49902
 Alpha  occ. eigenvalues --   -0.48041  -0.47744  -0.46731  -0.46518  -0.45887
 Alpha  occ. eigenvalues --   -0.45738  -0.45707  -0.45302  -0.43776  -0.43694
 Alpha virt. eigenvalues --    0.21631   0.23193   0.23565   0.24875   0.25266
 Alpha virt. eigenvalues --    0.26644   0.26817   0.27755   0.27946   0.29620
 Alpha virt. eigenvalues --    0.29738   0.31370   0.31574   0.31914   0.32369

 Mulliken charges:
               1
     1  C   -0.298210
     2  C   -0.300778
     3  C   -0.477891
     4  H    0.149463
     5  H    0.148475
     6  H    0.151194
     7  H    0.151785
     8  H    0.160819
     9  H    0.153582
    10  H    0.160837
    11  C   -0.298179
    12  C   -0.299577
    13  C   -0.475680
    14  H    0.149540
    15  H    0.149662
    16  H    0.151870
    17  H    0.151690
    18  H    0.155161
    19  H    0.155184
    20  H    0.160159
    21  C   -0.300811
    22  C   -0.299989
    23  C   -0.477362
    24  H    0.150506
    25  H    0.150658
    26  H    0.151492
    27  H    0.151327
    28  H    0.160360
    29  H    0.155676
    30  H    0.158860
    31  C   -0.297662
    32  C   -0.299515
    33  C   -0.475682
    34  H    0.149659
    35  H    0.149552
    36  H    0.151877
    37  H    0.151174
    38  H    0.155240
    39  H    0.155343
    40  H    0.160188
 Sum of Mulliken charges =  -0.00000

 Dipole moment (field-independent basis, Debye):
    X=              0.0229    Y=             -0.0141    Z=              0.0014  Tot=              0.0269
 Quadrupole moment (field-independent basis, Debye-Ang):
   XX=            -85.4671   YY=            -85.5796   ZZ=            -83.9463
   XY=              0.5665   XZ=              0.5585   YZ=             -0.2830

 Normal termination of Gaussian 16 at Thu May  6 02:11:15 2021.
