 Gaussian 16, Revision A.03,
 Gaussian 16:  EM64L-G16RevA.03 25-Dec-2016

 -------------
 #p 6-31g* mp2
 -------------

 ------------------------------------------------------
 Input file generated by CHIRIPA (05-May-2021 14:53:11)
 ------------------------------------------------------
 Symbolic Z-matrix:
 Charge =  0 Multiplicity = 1

                         Standard orientation:
 ---------------------------------------------------------------------
 Center     Atomic      Atomic             Coordinates (Angstroms)
 Number     Number       Type             X           Y           Z
 ---------------------------------------------------------------------
      1          6           0        2.899347    0.678810   -0.330159
      2          6           0        3.742797    1.954044   -0.348951
      3          6           0        3.133538    3.052986   -1.220113
      4          1           0        2.780623    0.310139   -1.358231
      5          1           0        1.890985    0.919794    0.033885
      6          1           0        4.749682    1.710471   -0.711541
      7          1           0        3.859688    2.319616    0.679305
      8          1           0        2.137142    3.324602   -0.856766
      9          1           0        3.032193    2.711996   -2.255515
     10          1           0        3.752659    3.955509   -1.219217
     11          6           0        3.495422   -0.429057    0.536475
     12          6           0        2.651971   -1.704292    0.555267
     13          6           0        3.261231   -2.803233    1.426429
     14          1           0        4.503784   -0.670041    0.172431
     15          1           0        3.614146   -0.060386    1.564547
     16          1           0        2.535081   -2.069863   -0.472989
     17          1           0        1.645087   -1.460718    0.917857
     18          1           0        3.362576   -2.462244    2.461830
     19          1           0        4.257627   -3.074850    1.063082
     20          1           0        2.642110   -3.705757    1.425532
     21          6           0       -3.620437    1.725757    1.254128
     22          6           0       -4.392639    0.815231    0.525316
     23          6           0       -3.781428   -0.199052   -0.217786
     24          6           0       -2.389439   -0.273831   -0.209628
     25          6           0       -1.592708    0.618303    0.506337
     26          6           0       -2.225396    1.624565    1.242334
     27          1           0       -4.103584    2.510561    1.828626
     28          1           0       -5.476240    0.891409    0.532633
     29          1           0       -4.355093   -0.917226   -0.790979
     30          1           0       -0.514543    0.516985    0.479640
     31          1           0       -1.623162    2.330300    1.807399
     32          7           0       -1.731009   -1.343361   -0.992554
     33          8           0       -0.502959   -1.387817   -0.968987
     34          8           0       -2.455448   -2.116952   -1.614955
 ---------------------------------------------------------------------

 SCF Done:  E(RHF) =  -669.535203771     A.U. after   15 cycles
 E2 =    -0.2092759232D+01 EUMP2 =    -0.67162796300370D+03

 The electronic state is 1-A.
 Alpha  occ. eigenvalues --  -20.60840 -20.60834 -15.85873 -11.31233 -11.27801
 Alpha  occ. eigenvalues --  -11.27792 -11.27545 -11.26819 -11.26809 -11.21459
 Alpha  occ. eigenvalues --  -11.21113 -11.21036 -11.20885 -11.20614 -11.20355
 Alpha  occ. eigenvalues --   -1.59909  -1.39463  -1.19407  -1.08805  -1.08011
 Alpha  occ. eigenvalues --   -1.04810  -1.03068  -0.95643  -0.95578  -0.86597
 Alpha  occ. eigenvalues --   -0.86209  -0.82481  -0.79144  -0.77900  -0.77366
 Alpha  occ. eigenvalues --   -0.72090  -0.71225  -0.70523  -0.65061  -0.64890
 Alpha  occ. eigenvalues --   -0.64609  -0.62157  -0.60479  -0.58948  -0.57142
 Alpha  occ. eigenvalues --   -0.55322  -0.54896  -0.53137  -0.52914  -0.52261
 Alpha  occ. eigenvalues --   -0.51978  -0.49556  -0.48881  -0.48868  -0.47446
 Alpha  occ. eigenvalues --   -0.46211  -0.45311  -0.45193  -0.44758  -0.43343
 Alpha  occ. eigenvalues --   -0.37387  -0.36411
 Alpha virt. eigenvalues --    0.04982   0.11222   0.16476   0.20055   0.23102
 Alpha virt. eigenvalues --    0.24666   0.24909   0.27492   0.27692   0.28270
 Alpha virt. eigenvalues --    0.29643   0.31283   0.31758   0.32035   0.32477

 Mulliken charges:
               1
     1  C   -0.297770
     2  C   -0.299339
     3  C   -0.474301
     4  H    0.159277
     5  H    0.139528
     6  H    0.153484
     7  H    0.148324
     8  H    0.149059
     9  H    0.158277
    10  H    0.159314
    11  C   -0.300007
    12  C   -0.298236
    13  C   -0.476637
    14  H    0.148606
    15  H    0.143306
    16  H    0.165172
    17  H    0.155714
    18  H    0.149118
    19  H    0.152466
    20  H    0.162676
    21  C   -0.170230
    22  C   -0.219089
    23  C   -0.169590
    24  C    0.155335
    25  C   -0.179158
    26  C   -0.222841
    27  H    0.225837
    28  H    0.223642
    29  H    0.275747
    30  H    0.291562
    31  H    0.223741
    32  N    0.489472
    33  O   -0.462453
    34  O   -0.460005
 Sum of Mulliken charges =  -0.00000

 Dipole moment (field-independent basis, Debye):
    X=             -2.4122    Y=              3.6225    Z=              2.5762  Tot=              5.0574
 Quadrupole moment (field-independent basis, Debye-Ang):
   XX=            -79.8366   YY=            -97.7737   ZZ=            -96.0292
   XY=             -6.9168   XZ=             -5.9160   YZ=              0.1391

 Normal termination of Gaussian 16 at Thu May  6 02:28:39 2021.
