 Gaussian 16, Revision A.03,
 Gaussian 16:  EM64L-G16RevA.03 25-Dec-2016

 -------------
 #p 6-31g* mp2
 -------------

 ------------------------------------------------------
 Input file generated by CHIRIPA (05-May-2021 14:53:14)
 ------------------------------------------------------
 Symbolic Z-matrix:
 Charge =  0 Multiplicity = 1

                         Standard orientation:
 ---------------------------------------------------------------------
 Center     Atomic      Atomic             Coordinates (Angstroms)
 Number     Number       Type             X           Y           Z
 ---------------------------------------------------------------------
      1          6           0        3.730776    0.704913    0.404820
      2          6           0        3.886644    2.134409   -0.115018
      3          6           0        3.030002    3.140074    0.654784
      4          1           0        2.673776    0.412015    0.342322
      5          1           0        4.000127    0.678041    1.469772
      6          1           0        3.618407    2.158306   -1.179017
      7          1           0        4.943426    2.423869   -0.051453
      8          1           0        3.301966    3.145684    1.715258
      9          1           0        1.969418    2.878612    0.581287
     10          1           0        3.156768    4.155529    0.266658
     11          6           0        4.580927   -0.311990   -0.354706
     12          6           0        4.425059   -1.741486    0.165132
     13          6           0        5.281702   -2.747151   -0.604670
     14          1           0        4.311577   -0.285118   -1.419658
     15          1           0        5.637928   -0.019092   -0.292208
     16          1           0        3.368277   -2.030946    0.101567
     17          1           0        4.693297   -1.765383    1.229131
     18          1           0        6.342285   -2.485689   -0.531173
     19          1           0        5.009737   -2.752761   -1.665144
     20          1           0        5.154935   -3.762606   -0.216544
     21          6           0       -0.725502   -0.173622    0.074130
     22          6           0       -1.457241   -1.190703    0.695922
     23          6           0       -2.854552   -1.189680    0.650421
     24          6           0       -3.490505   -0.151539   -0.028635
     25          6           0       -2.789424    0.875923   -0.657997
     26          6           0       -1.392753    0.854633   -0.599658
     27          1           0        0.359714   -0.182289    0.114463
     28          1           0       -0.941712   -1.990522    1.219910
     29          1           0       -3.445717   -1.964612    1.123096
     30          1           0       -3.331440    1.659906   -1.172788
     31          1           0       -0.827063    1.645816   -1.083462
     32          7           0       -4.969437   -0.139727   -0.083601
     33          8           0       -5.505980    0.786120   -0.688221
     34          8           0       -5.564077   -1.056540    0.478977
 ---------------------------------------------------------------------

 SCF Done:  E(RHF) =  -669.535505680     A.U. after   15 cycles
 E2 =    -0.2091366795D+01 EUMP2 =    -0.67162687247459D+03

 The electronic state is 1-A.
 Alpha  occ. eigenvalues --  -20.60747 -20.60742 -15.85801 -11.31169 -11.27741
 Alpha  occ. eigenvalues --  -11.27737 -11.27468 -11.26758 -11.26745 -11.22606
 Alpha  occ. eigenvalues --  -11.22545 -11.22529 -11.22324 -11.22020 -11.21804
 Alpha  occ. eigenvalues --   -1.59823  -1.39376  -1.19342  -1.09441  -1.08736
 Alpha  occ. eigenvalues --   -1.04747  -1.04457  -0.96903  -0.95573  -0.87911
 Alpha  occ. eigenvalues --   -0.86144  -0.82407  -0.80523  -0.79270  -0.77450
 Alpha  occ. eigenvalues --   -0.72019  -0.71146  -0.70475  -0.66082  -0.64995
 Alpha  occ. eigenvalues --   -0.64748  -0.62098  -0.61852  -0.60267  -0.58516
 Alpha  occ. eigenvalues --   -0.56234  -0.55249  -0.53558  -0.53310  -0.53074
 Alpha  occ. eigenvalues --   -0.52838  -0.50842  -0.48833  -0.48778  -0.48774
 Alpha  occ. eigenvalues --   -0.47570  -0.46799  -0.46709  -0.44781  -0.44735
 Alpha  occ. eigenvalues --   -0.37320  -0.36352
 Alpha virt. eigenvalues --    0.05083   0.11284   0.16564   0.18299   0.22710
 Alpha virt. eigenvalues --    0.23341   0.24625   0.26046   0.26412   0.27697
 Alpha virt. eigenvalues --    0.29636   0.30757   0.30958   0.31127   0.31398

 Mulliken charges:
               1
     1  C   -0.304275
     2  C   -0.300604
     3  C   -0.475571
     4  H    0.141406
     5  H    0.154015
     6  H    0.151550
     7  H    0.156757
     8  H    0.158889
     9  H    0.148643
    10  H    0.164208
    11  C   -0.298552
    12  C   -0.299187
    13  C   -0.476220
    14  H    0.150430
    15  H    0.153980
    16  H    0.145037
    17  H    0.153981
    18  H    0.157675
    19  H    0.156554
    20  H    0.162196
    21  C   -0.178582
    22  C   -0.221786
    23  C   -0.170553
    24  C    0.158305
    25  C   -0.170557
    26  C   -0.223276
    27  H    0.239157
    28  H    0.224230
    29  H    0.275571
    30  H    0.275656
    31  H    0.223870
    32  N    0.487951
    33  O   -0.460460
    34  O   -0.460440
 Sum of Mulliken charges =  -0.00000

 Dipole moment (field-independent basis, Debye):
    X=              5.4815    Y=             -0.0119    Z=              0.2072  Tot=              5.4854
 Quadrupole moment (field-independent basis, Debye-Ang):
   XX=           -130.1725   YY=            -91.7228   ZZ=            -93.7017
   XY=              0.2045   XZ=             -0.0988   YZ=             -2.9064

 Normal termination of Gaussian 16 at Thu May  6 10:32:24 2021.
