 Gaussian 16, Revision A.03,
 Gaussian 16:  EM64L-G16RevA.03 25-Dec-2016

 -------------
 #p 6-31g* mp2
 -------------

 ------------------------------------------------------
 Input file generated by CHIRIPA (05-May-2021 14:51:12)
 ------------------------------------------------------
 Symbolic Z-matrix:
 Charge =  0 Multiplicity = 1

                         Standard orientation:
 ---------------------------------------------------------------------
 Center     Atomic      Atomic             Coordinates (Angstroms)
 Number     Number       Type             X           Y           Z
 ---------------------------------------------------------------------
      1          6           0       -4.571906   -0.234554    0.331415
      2          6           0       -5.767531   -0.635697   -0.533195
      3          6           0       -6.619120   -1.732023    0.107632
      4          1           0       -3.950264   -1.120511    0.520060
      5          1           0       -4.934679    0.107026    1.310759
      6          1           0       -5.402695   -0.975112   -1.511105
      7          1           0       -6.386296    0.251356   -0.719964
      8          1           0       -7.010834   -1.399865    1.074500
      9          1           0       -6.021644   -2.633302    0.278863
     10          1           0       -7.468269   -2.003461   -0.527291
     11          6           0       -3.710975    0.860488   -0.295808
     12          6           0       -2.515350    1.261631    0.568802
     13          6           0       -1.663761    2.357957   -0.072025
     14          1           0       -3.348203    0.518908   -1.275151
     15          1           0       -4.332617    1.746445   -0.484453
     16          1           0       -1.896585    0.374578    0.755571
     17          1           0       -2.880186    1.601046    1.546713
     18          1           0       -2.261238    3.259235   -0.243255
     19          1           0       -1.272048    2.025799   -1.038892
     20          1           0       -0.814612    2.629394    0.562899
     21          6           0        3.463682    0.031769   -0.090133
     22          6           0        2.278340   -0.915032    0.100962
     23          6           0        0.929332   -0.210648   -0.046738
     24          1           0        3.393327    0.849224    0.640457
     25          1           0        3.397637    0.494699   -1.084482
     26          1           0        2.347352   -1.377087    1.094118
     27          1           0        2.351628   -1.730432   -0.630042
     28          1           0        0.834798    0.235859   -1.041874
     29          1           0        0.830498    0.591211    0.692083
     30          1           0        0.095867   -0.905972    0.093693
     31          6           0        4.819200   -0.657703    0.054526
     32          6           0        6.004541    0.289098   -0.136570
     33          6           0        7.353550   -0.415285    0.011130
     34          1           0        4.885245   -1.120633    1.048875
     35          1           0        4.889554   -1.475157   -0.676065
     36          1           0        5.931253    1.104498    0.594435
     37          1           0        5.935528    0.751154   -1.129725
     38          1           0        7.452382   -1.217145   -0.727690
     39          1           0        7.448084   -0.861792    1.006267
     40          1           0        8.187014    0.280038   -0.129301
 ---------------------------------------------------------------------

 SCF Done:  E(RHF) =  -470.732216466     A.U. after   11 cycles
 E2 =    -0.1583444808D+01 EUMP2 =    -0.47231566127467D+03

 The electronic state is 1-A.
 Alpha  occ. eigenvalues --  -11.21607 -11.21601 -11.21564 -11.21427 -11.21415
 Alpha  occ. eigenvalues --  -11.21356 -11.21340 -11.21269 -11.21076 -11.21069
 Alpha  occ. eigenvalues --  -11.21044 -11.20924  -1.08445  -1.08349  -1.03580
 Alpha  occ. eigenvalues --   -1.03412  -0.96065  -0.95837  -0.87056  -0.86884
 Alpha  occ. eigenvalues --   -0.79623  -0.79508  -0.78258  -0.78163  -0.65075
 Alpha  occ. eigenvalues --   -0.64989  -0.60973  -0.60863  -0.59368  -0.59271
 Alpha  occ. eigenvalues --   -0.57651  -0.57501  -0.55274  -0.55220  -0.52695
 Alpha  occ. eigenvalues --   -0.52674  -0.52373  -0.52270  -0.49974  -0.49793
 Alpha  occ. eigenvalues --   -0.47919  -0.47808  -0.46702  -0.46458  -0.45797
 Alpha  occ. eigenvalues --   -0.45730  -0.45699  -0.45610  -0.43773  -0.43668
 Alpha virt. eigenvalues --    0.21689   0.22973   0.23590   0.24862   0.26078
 Alpha virt. eigenvalues --    0.26434   0.26729   0.27419   0.27846   0.29223
 Alpha virt. eigenvalues --    0.29452   0.30906   0.31590   0.32274   0.32586

 Mulliken charges:
               1
     1  C   -0.298027
     2  C   -0.299566
     3  C   -0.475653
     4  H    0.148876
     5  H    0.149421
     6  H    0.151791
     7  H    0.151919
     8  H    0.155120
     9  H    0.155017
    10  H    0.160113
    11  C   -0.298015
    12  C   -0.305600
    13  C   -0.474425
    14  H    0.149123
    15  H    0.149215
    16  H    0.159319
    17  H    0.150609
    18  H    0.153760
    19  H    0.156376
    20  H    0.159273
    21  C   -0.298486
    22  C   -0.300793
    23  C   -0.476468
    24  H    0.149577
    25  H    0.149559
    26  H    0.151791
    27  H    0.151534
    28  H    0.155846
    29  H    0.158668
    30  H    0.159999
    31  C   -0.298262
    32  C   -0.299627
    33  C   -0.475707
    34  H    0.149526
    35  H    0.149634
    36  H    0.151964
    37  H    0.151961
    38  H    0.155167
    39  H    0.155183
    40  H    0.160291
 Sum of Mulliken charges =  -0.00000

 Dipole moment (field-independent basis, Debye):
    X=              0.0444    Y=             -0.0059    Z=             -0.0034  Tot=              0.0449
 Quadrupole moment (field-independent basis, Debye-Ang):
   XX=            -86.3349   YY=            -85.1118   ZZ=            -83.6816
   XY=             -0.5098   XZ=             -0.1017   YZ=              0.8269

 Normal termination of Gaussian 16 at Wed May  5 18:20:06 2021.
