 Gaussian 16, Revision A.03,
 Gaussian 16:  EM64L-G16RevA.03 25-Dec-2016

 -------------
 #p 6-31g* mp2
 -------------

 ------------------------------------------------------
 Input file generated by CHIRIPA (05-May-2021 14:55:21)
 ------------------------------------------------------
 Symbolic Z-matrix:
 Charge =  0 Multiplicity = 1

                         Standard orientation:
 ---------------------------------------------------------------------
 Center     Atomic      Atomic             Coordinates (Angstroms)
 Number     Number       Type             X           Y           Z
 ---------------------------------------------------------------------
      1          6           0       -0.400479   -2.627531    0.474084
      2          6           0       -0.087277   -1.804462   -0.612646
      3          6           0       -0.929627   -0.746862   -0.968282
      4          6           0       -2.082192   -0.540055   -0.211899
      5          6           0       -2.421554   -1.342660    0.876195
      6          6           0       -1.564566   -2.394414    1.213732
      7          1           0        0.259565   -3.446830    0.743321
      8          1           0        0.816098   -1.983150   -1.188866
      9          1           0       -0.711255   -0.094282   -1.804865
     10          1           0       -3.329143   -1.139729    1.431641
     11          1           0       -1.810328   -3.032007    2.058197
     12          7           0       -2.981699    0.576485   -0.578815
     13          8           0       -3.991150    0.737739    0.103565
     14          8           0       -2.660249    1.269232   -1.541835
     15          6           0        2.101447    1.570931    0.024502
     16          6           0        1.096260    1.988628    1.098333
     17          6           0        0.355983    3.279007    0.745200
     18          1           0        2.826867    2.382300   -0.125133
     19          1           0        1.574451    1.442640   -0.931119
     20          1           0        1.624768    2.114748    2.051953
     21          1           0        0.373262    1.176093    1.245566
     22          1           0       -0.196407    3.161893   -0.192750
     23          1           0        1.062210    4.105882    0.618219
     24          1           0       -0.357510    3.559175    1.526414
     25          6           0        2.849446    0.282699    0.363151
     26          6           0        3.854632   -0.134999   -0.710681
     27          6           0        4.594910   -1.425379   -0.357547
     28          1           0        3.376441    0.410990    1.318772
     29          1           0        2.124025   -0.528671    0.512787
     30          1           0        4.577630    0.677537   -0.857913
     31          1           0        3.326125   -0.261119   -1.664299
     32          1           0        3.888683   -2.252252   -0.230565
     33          1           0        5.147299   -1.308263    0.580403
     34          1           0        5.308403   -1.705546   -1.138760
 ---------------------------------------------------------------------

 SCF Done:  E(RHF) =  -669.534808565     A.U. after   15 cycles
 E2 =    -0.2095616966D+01 EUMP2 =    -0.67163042553030D+03

 The electronic state is 1-A.
 Alpha  occ. eigenvalues --  -20.60917 -20.60911 -15.85958 -11.31346 -11.27896
 Alpha  occ. eigenvalues --  -11.27893 -11.27637 -11.26918 -11.26907 -11.22188
 Alpha  occ. eigenvalues --  -11.21789 -11.21675 -11.21575 -11.21496 -11.20704
 Alpha  occ. eigenvalues --   -1.59978  -1.39533  -1.19523  -1.08917  -1.08708
 Alpha  occ. eigenvalues --   -1.04923  -1.03766  -0.96198  -0.95737  -0.87219
 Alpha  occ. eigenvalues --   -0.86316  -0.82567  -0.79854  -0.78480  -0.77618
 Alpha  occ. eigenvalues --   -0.72175  -0.71299  -0.70611  -0.65516  -0.65165
 Alpha  occ. eigenvalues --   -0.64857  -0.62236  -0.61175  -0.59611  -0.57792
 Alpha  occ. eigenvalues --   -0.55538  -0.55393  -0.53272  -0.53010  -0.52861
 Alpha  occ. eigenvalues --   -0.52608  -0.50162  -0.48937  -0.48930  -0.48151
 Alpha  occ. eigenvalues --   -0.46939  -0.46005  -0.45895  -0.44909  -0.43998
 Alpha  occ. eigenvalues --   -0.37450  -0.36442
 Alpha virt. eigenvalues --    0.04884   0.10999   0.16318   0.19112   0.23185
 Alpha virt. eigenvalues --    0.23375   0.25381   0.26298   0.27962   0.28451
 Alpha virt. eigenvalues --    0.29534   0.29692   0.31269   0.31932   0.32089

 Mulliken charges:
               1
     1  C   -0.171319
     2  C   -0.219531
     3  C   -0.171391
     4  C    0.159507
     5  C   -0.171577
     6  C   -0.217623
     7  H    0.226833
     8  H    0.228430
     9  H    0.276183
    10  H    0.276304
    11  H    0.224402
    12  N    0.488411
    13  O   -0.459080
    14  O   -0.460454
    15  C   -0.296880
    16  C   -0.303323
    17  C   -0.480915
    18  H    0.151637
    19  H    0.144307
    20  H    0.150354
    21  H    0.153787
    22  H    0.166105
    23  H    0.153588
    24  H    0.162354
    25  C   -0.305396
    26  C   -0.300798
    27  C   -0.474163
    28  H    0.150650
    29  H    0.151653
    30  H    0.156558
    31  H    0.145123
    32  H    0.145116
    33  H    0.158659
    34  H    0.162487
 Sum of Mulliken charges =  -0.00000

 Dipole moment (field-independent basis, Debye):
    X=              3.0359    Y=             -3.8978    Z=              1.3218  Tot=              5.1144
 Quadrupole moment (field-independent basis, Debye-Ang):
   XX=           -106.2713   YY=            -91.1991   ZZ=            -92.6904
   XY=              8.4332   XZ=             -5.7414   YZ=             -0.7191

 Normal termination of Gaussian 16 at Thu May  6 20:47:39 2021.
