 Gaussian 16, Revision A.03,
 Gaussian 16:  EM64L-G16RevA.03 25-Dec-2016

 -------------
 #p 6-31g* mp2
 -------------

 ------------------------------------------------------
 Input file generated by CHIRIPA (05-May-2021 14:53:12)
 ------------------------------------------------------
 Symbolic Z-matrix:
 Charge =  0 Multiplicity = 1

                         Standard orientation:
 ---------------------------------------------------------------------
 Center     Atomic      Atomic             Coordinates (Angstroms)
 Number     Number       Type             X           Y           Z
 ---------------------------------------------------------------------
      1          6           0        3.509952    1.150818   -0.361363
      2          6           0        2.100633    1.345135    0.199034
      3          6           0        1.499149    2.701292   -0.170896
      4          1           0        4.159500    1.955223    0.010072
      5          1           0        3.479536    1.253457   -1.454951
      6          1           0        2.133462    1.240788    1.291119
      7          1           0        1.454410    0.540065   -0.173626
      8          1           0        1.437324    2.811560   -1.258379
      9          1           0        2.120234    3.516265    0.214688
     10          1           0        0.491551    2.819079    0.239875
     11          6           0        4.124640   -0.200221   -0.000004
     12          6           0        5.533959   -0.394538   -0.560400
     13          6           0        6.135443   -1.750695   -0.190471
     14          1           0        4.155056   -0.302860    1.093585
     15          1           0        3.475092   -1.004626   -0.371439
     16          1           0        6.180182    0.410532   -0.187741
     17          1           0        5.501130   -0.290191   -1.652485
     18          1           0        5.514358   -2.565668   -0.576054
     19          1           0        6.197268   -1.860963    0.897013
     20          1           0        7.143041   -1.868482   -0.601242
     21          6           0       -0.724743   -1.013109    1.067251
     22          6           0       -1.491734   -1.956680    0.375934
     23          6           0       -2.743986   -1.612192   -0.141505
     24          6           0       -3.200511   -0.309282    0.051628
     25          6           0       -2.459863    0.653289    0.735870
     26          6           0       -1.210399    0.286573    1.244700
     27          1           0        0.246953   -1.289348    1.465865
     28          1           0       -1.117097   -2.966769    0.236613
     29          1           0       -3.358523   -2.322849   -0.680699
     30          1           0       -2.859971    1.652394    0.858832
     31          1           0       -0.616919    1.021439    1.781166
     32          7           0       -4.524738    0.067178   -0.491603
     33          8           0       -4.904437    1.221630   -0.308014
     34          8           0       -5.157895   -0.799334   -1.090692
 ---------------------------------------------------------------------

 SCF Done:  E(RHF) =  -669.534623909     A.U. after   15 cycles
 E2 =    -0.2093212431D+01 EUMP2 =    -0.67162783634019D+03

 The electronic state is 1-A.
 Alpha  occ. eigenvalues --  -20.60755 -20.60749 -15.85808 -11.31177 -11.27750
 Alpha  occ. eigenvalues --  -11.27734 -11.27452 -11.26762 -11.26718 -11.22482
 Alpha  occ. eigenvalues --  -11.22240 -11.22176 -11.22108 -11.21855 -11.21653
 Alpha  occ. eigenvalues --   -1.59830  -1.39383  -1.19355  -1.09207  -1.08740
 Alpha  occ. eigenvalues --   -1.04769  -1.04264  -0.96707  -0.95578  -0.87718
 Alpha  occ. eigenvalues --   -0.86155  -0.82411  -0.80365  -0.79040  -0.77455
 Alpha  occ. eigenvalues --   -0.72026  -0.71154  -0.70447  -0.65821  -0.65001
 Alpha  occ. eigenvalues --   -0.64790  -0.62157  -0.61663  -0.60056  -0.58327
 Alpha  occ. eigenvalues --   -0.55974  -0.55247  -0.53449  -0.53187  -0.53053
 Alpha  occ. eigenvalues --   -0.52736  -0.50628  -0.48785  -0.48784  -0.48665
 Alpha  occ. eigenvalues --   -0.47381  -0.46559  -0.46479  -0.44789  -0.44535
 Alpha  occ. eigenvalues --   -0.37265  -0.36339
 Alpha virt. eigenvalues --    0.05039   0.11233   0.16412   0.20048   0.22451
 Alpha virt. eigenvalues --    0.23744   0.25494   0.25666   0.26328   0.28399
 Alpha virt. eigenvalues --    0.29052   0.30678   0.30751   0.31427   0.32299

 Mulliken charges:
               1
     1  C   -0.297891
     2  C   -0.308432
     3  C   -0.475608
     4  H    0.151856
     5  H    0.153241
     6  H    0.142202
     7  H    0.158753
     8  H    0.161286
     9  H    0.157749
    10  H    0.154686
    11  C   -0.299061
    12  C   -0.300020
    13  C   -0.476134
    14  H    0.147166
    15  H    0.146528
    16  H    0.153846
    17  H    0.154099
    18  H    0.154495
    19  H    0.154907
    20  H    0.162798
    21  C   -0.172535
    22  C   -0.220086
    23  C   -0.170964
    24  C    0.158433
    25  C   -0.172728
    26  C   -0.215455
    27  H    0.228310
    28  H    0.223364
    29  H    0.275533
    30  H    0.275410
    31  H    0.227078
    32  N    0.488096
    33  O   -0.460368
    34  O   -0.460552
 Sum of Mulliken charges =  -0.00000

 Dipole moment (field-independent basis, Debye):
    X=              4.7937    Y=             -1.3049    Z=              1.8193  Tot=              5.2908
 Quadrupole moment (field-independent basis, Debye-Ang):
   XX=           -125.0001   YY=            -90.3607   ZZ=            -93.9372
   XY=              4.2201   XZ=             -5.7433   YZ=              1.6266

 Normal termination of Gaussian 16 at Thu May  6 00:55:36 2021.
