 Gaussian 16, Revision A.03,
 Gaussian 16:  EM64L-G16RevA.03 25-Dec-2016

 -------------
 #p 6-31g* mp2
 -------------

 ------------------------------------------------------
 Input file generated by CHIRIPA (05-May-2021 14:53:13)
 ------------------------------------------------------
 Symbolic Z-matrix:
 Charge =  0 Multiplicity = 1

                         Standard orientation:
 ---------------------------------------------------------------------
 Center     Atomic      Atomic             Coordinates (Angstroms)
 Number     Number       Type             X           Y           Z
 ---------------------------------------------------------------------
      1          6           0        5.468926   -0.155308   -0.376923
      2          6           0        6.911656   -0.094546    0.125894
      3          6           0        7.932647   -0.049788   -1.011369
      4          1           0        5.347065   -1.040534   -1.016039
      5          1           0        5.272554    0.718887   -1.013017
      6          1           0        7.104826   -0.967876    0.761972
      7          1           0        7.030048    0.790533    0.764043
      8          1           0        7.768303    0.829766   -1.642223
      9          1           0        7.843507   -0.938634   -1.644305
     10          1           0        8.957403   -0.006659   -0.629432
     11          6           0        4.436627   -0.200532    0.748262
     12          6           0        2.993897   -0.261294    0.245445
     13          6           0        1.972906   -0.306052    1.382708
     14          1           0        4.632999   -1.074727    1.384356
     15          1           0        4.558488    0.684693    1.387378
     16          1           0        2.875505   -1.146374   -0.392704
     17          1           0        2.800727    0.612036   -0.390634
     18          1           0        2.062046    0.582794    2.015644
     19          1           0        2.137249   -1.185606    2.013562
     20          1           0        0.948150   -0.349181    1.000771
     21          6           0       -2.196195    2.027334   -0.170480
     22          6           0       -1.766826    0.709096   -0.355985
     23          6           0       -2.685046   -0.345073   -0.343805
     24          6           0       -4.031112   -0.043557   -0.142596
     25          6           0       -4.489892    1.259351    0.045129
     26          6           0       -3.553962    2.297778    0.029134
     27          1           0       -1.476021    2.840124   -0.181423
     28          1           0       -0.712986    0.496100   -0.511223
     29          1           0       -2.379989   -1.374860   -0.484856
     30          1           0       -5.546954    1.440425    0.197608
     31          1           0       -3.890282    3.320569    0.173468
     32          7           0       -5.012564   -1.151225   -0.127681
     33          8           0       -6.192926   -0.859205    0.051500
     34          8           0       -4.582880   -2.290462   -0.295457
 ---------------------------------------------------------------------

 SCF Done:  E(RHF) =  -669.535452318     A.U. after   15 cycles
 E2 =    -0.2090852469D+01 EUMP2 =    -0.67162630478769D+03

 The electronic state is 1-A.
 Alpha  occ. eigenvalues --  -20.60750 -20.60745 -15.85804 -11.31174 -11.27751
 Alpha  occ. eigenvalues --  -11.27746 -11.27491 -11.26762 -11.26738 -11.22409
 Alpha  occ. eigenvalues --  -11.22014 -11.21996 -11.21938 -11.21869 -11.21416
 Alpha  occ. eigenvalues --   -1.59825  -1.39379  -1.19350  -1.09017  -1.08743
 Alpha  occ. eigenvalues --   -1.04757  -1.04136  -0.96580  -0.95576  -0.87596
 Alpha  occ. eigenvalues --   -0.86151  -0.82411  -0.80203  -0.78804  -0.77459
 Alpha  occ. eigenvalues --   -0.72022  -0.71148  -0.70457  -0.65643  -0.65003
 Alpha  occ. eigenvalues --   -0.64793  -0.62152  -0.61521  -0.59959  -0.58191
 Alpha  occ. eigenvalues --   -0.55845  -0.55256  -0.53408  -0.53082  -0.53048
 Alpha  occ. eigenvalues --   -0.52656  -0.50502  -0.48783  -0.48776  -0.48512
 Alpha  occ. eigenvalues --   -0.47232  -0.46349  -0.46258  -0.44783  -0.44381
 Alpha  occ. eigenvalues --   -0.37326  -0.36351
 Alpha virt. eigenvalues --    0.05074   0.11241   0.16495   0.20035   0.22515
 Alpha virt. eigenvalues --    0.23698   0.25987   0.26178   0.26999   0.28217
 Alpha virt. eigenvalues --    0.28668   0.30258   0.30849   0.31430   0.32258

 Mulliken charges:
               1
     1  C   -0.298708
     2  C   -0.300125
     3  C   -0.476007
     4  H    0.150830
     5  H    0.148907
     6  H    0.153133
     7  H    0.152180
     8  H    0.155122
     9  H    0.155981
    10  H    0.161561
    11  C   -0.298410
    12  C   -0.301378
    13  C   -0.479342
    14  H    0.152215
    15  H    0.150279
    16  H    0.153711
    17  H    0.147429
    18  H    0.156938
    19  H    0.161440
    20  H    0.153283
    21  C   -0.171481
    22  C   -0.221292
    23  C   -0.172045
    24  C    0.158559
    25  C   -0.170737
    26  C   -0.218606
    27  H    0.225770
    28  H    0.228937
    29  H    0.275620
    30  H    0.275637
    31  H    0.223372
    32  N    0.488129
    33  O   -0.460515
    34  O   -0.460388
 Sum of Mulliken charges =  -0.00000

 Dipole moment (field-independent basis, Debye):
    X=              3.6154    Y=              3.8881    Z=             -0.0130  Tot=              5.3093
 Quadrupole moment (field-independent basis, Debye-Ang):
   XX=           -120.1679   YY=            -92.1744   ZZ=            -95.9380
   XY=            -19.0434   XZ=             -0.2351   YZ=              0.0500

 Normal termination of Gaussian 16 at Thu May  6 02:34:45 2021.
