 Gaussian 16, Revision A.03,
 Gaussian 16:  EM64L-G16RevA.03 25-Dec-2016

 -------------
 #p 6-31g* mp2
 -------------

 ------------------------------------------------------
 Input file generated by CHIRIPA (05-May-2021 14:51:08)
 ------------------------------------------------------
 Symbolic Z-matrix:
 Charge =  0 Multiplicity = 1

                         Standard orientation:
 ---------------------------------------------------------------------
 Center     Atomic      Atomic             Coordinates (Angstroms)
 Number     Number       Type             X           Y           Z
 ---------------------------------------------------------------------
      1          6           0        4.115294   -0.263636   -0.198047
      2          6           0        4.888499    0.992345    0.205254
      3          6           0        6.322913    0.998944   -0.324092
      4          1           0        4.648571   -1.149671    0.172768
      5          1           0        4.103042   -0.342113   -1.293988
      6          1           0        4.898104    1.069170    1.300070
      7          1           0        4.353219    1.875501   -0.166399
      8          1           0        6.330235    0.946793   -1.417631
      9          1           0        6.878217    0.135881    0.057170
     10          1           0        6.857381    1.905703   -0.024103
     11          6           0        2.679655   -0.284889    0.323698
     12          6           0        1.906450   -1.540869   -0.079603
     13          6           0        0.472036   -1.547469    0.449743
     14          1           0        2.691907   -0.206412    1.419638
     15          1           0        2.146378    0.601146   -0.047117
     16          1           0        2.441731   -2.424026    0.292049
     17          1           0        1.896845   -1.617695   -1.174419
     18          1           0       -0.083267   -0.684406    0.068481
     19          1           0        0.464714   -1.495318    1.543282
     20          1           0       -0.062431   -2.454228    0.149754
     21          6           0       -3.785615    0.931563   -0.035707
     22          6           0       -2.885217    2.167312   -0.021730
     23          6           0       -3.676340    3.474586    0.032641
     24          1           0       -4.462269    0.988508   -0.899328
     25          1           0       -4.421318    0.939514    0.860515
     26          1           0       -2.250427    2.156313   -0.917015
     27          1           0       -2.210497    2.107325    0.841850
     28          1           0       -4.297583    3.511739    0.933350
     29          1           0       -4.337740    3.561005   -0.835509
     30          1           0       -3.013081    4.345140    0.041829
     31          6           0       -3.009335   -0.383038   -0.089944
     32          6           0       -3.909732   -1.618787   -0.103921
     33          6           0       -3.118610   -2.926061   -0.158291
     34          1           0       -2.373632   -0.390988   -0.986166
     35          1           0       -2.332680   -0.439983    0.773676
     36          1           0       -4.584452   -1.558801   -0.967501
     37          1           0       -4.544523   -1.607788    0.791364
     38          1           0       -2.457210   -3.012480    0.709857
     39          1           0       -2.497367   -2.963214   -1.059000
     40          1           0       -3.781869   -3.796615   -0.167481
 ---------------------------------------------------------------------

 SCF Done:  E(RHF) =  -470.731449754     A.U. after   11 cycles
 E2 =    -0.1584064413D+01 EUMP2 =    -0.47231551416736D+03

 The electronic state is 1-A.
 Alpha  occ. eigenvalues --  -11.21611 -11.21571 -11.21564 -11.21492 -11.21353
 Alpha  occ. eigenvalues --  -11.21353 -11.21291 -11.21263 -11.21076 -11.21049
 Alpha  occ. eigenvalues --  -11.21015 -11.20834  -1.08424  -1.08354  -1.03542
 Alpha  occ. eigenvalues --   -1.03430  -0.95961  -0.95914  -0.86983  -0.86946
 Alpha  occ. eigenvalues --   -0.79729  -0.79442  -0.78305  -0.78063  -0.65036
 Alpha  occ. eigenvalues --   -0.65003  -0.60919  -0.60864  -0.59485  -0.59164
 Alpha  occ. eigenvalues --   -0.57808  -0.57318  -0.55264  -0.55194  -0.52781
 Alpha  occ. eigenvalues --   -0.52692  -0.52517  -0.52037  -0.49927  -0.49850
 Alpha  occ. eigenvalues --   -0.47872  -0.47861  -0.46667  -0.46603  -0.45911
 Alpha  occ. eigenvalues --   -0.45727  -0.45617  -0.45307  -0.43764  -0.43633
 Alpha virt. eigenvalues --    0.22233   0.23072   0.23765   0.24433   0.26075
 Alpha virt. eigenvalues --    0.26265   0.27004   0.27058   0.27925   0.29665
 Alpha virt. eigenvalues --    0.30896   0.31373   0.31506   0.31916   0.32320

 Mulliken charges:
               1
     1  C   -0.298088
     2  C   -0.299553
     3  C   -0.475653
     4  H    0.149551
     5  H    0.149296
     6  H    0.151793
     7  H    0.151829
     8  H    0.155099
     9  H    0.155131
    10  H    0.160117
    11  C   -0.298388
    12  C   -0.300299
    13  C   -0.482784
    14  H    0.149073
    15  H    0.149518
    16  H    0.151016
    17  H    0.150935
    18  H    0.162033
    19  H    0.151894
    20  H    0.165513
    21  C   -0.297437
    22  C   -0.300413
    23  C   -0.475475
    24  H    0.149152
    25  H    0.149253
    26  H    0.151035
    27  H    0.152195
    28  H    0.155332
    29  H    0.155223
    30  H    0.160165
    31  C   -0.302413
    32  C   -0.299249
    33  C   -0.478087
    34  H    0.149526
    35  H    0.156823
    36  H    0.151350
    37  H    0.151544
    38  H    0.158651
    39  H    0.155111
    40  H    0.159681
 Sum of Mulliken charges =  -0.00000

 Dipole moment (field-independent basis, Debye):
    X=             -0.0501    Y=             -0.0058    Z=              0.0095  Tot=              0.0513
 Quadrupole moment (field-independent basis, Debye-Ang):
   XX=            -86.2429   YY=            -85.7123   ZZ=            -83.1074
   XY=              0.1773   XZ=              0.5753   YZ=             -0.4327

 Normal termination of Gaussian 16 at Wed May  5 19:40:57 2021.
