 Gaussian 16, Revision A.03,
 Gaussian 16:  EM64L-G16RevA.03 25-Dec-2016

 -------------
 #p 6-31g* mp2
 -------------

 ------------------------------------------------------
 Input file generated by CHIRIPA (05-May-2021 14:53:16)
 ------------------------------------------------------
 Symbolic Z-matrix:
 Charge =  0 Multiplicity = 1

                         Standard orientation:
 ---------------------------------------------------------------------
 Center     Atomic      Atomic             Coordinates (Angstroms)
 Number     Number       Type             X           Y           Z
 ---------------------------------------------------------------------
      1          6           0       -4.329060   -0.610686    0.471488
      2          6           0       -2.845871   -0.804969    0.154641
      3          6           0       -2.212746   -1.939255    0.961079
      4          1           0       -4.444653   -0.408111    1.545055
      5          1           0       -4.865605   -1.548360    0.270789
      6          1           0       -2.312511    0.133207    0.354562
      7          1           0       -2.733778   -1.006914   -0.918331
      8          1           0       -2.718818   -2.887852    0.754548
      9          1           0       -2.295157   -1.741253    2.034673
     10          1           0       -1.152338   -2.060701    0.718912
     11          6           0       -4.976080    0.519690   -0.326849
     12          6           0       -6.459269    0.713974   -0.010002
     13          6           0       -7.092394    1.848259   -0.816440
     14          1           0       -4.439535    1.457365   -0.126151
     15          1           0       -4.860487    0.317116   -1.400417
     16          1           0       -6.571362    0.915919    1.062970
     17          1           0       -6.992629   -0.224202   -0.209923
     18          1           0       -7.009983    1.650257   -1.890035
     19          1           0       -6.586322    2.796857   -0.609909
     20          1           0       -8.152802    1.969706   -0.574274
     21          6           0        5.245188    1.953968    0.247299
     22          6           0        4.185209    1.781194    1.143466
     23          6           0        3.286852    0.721786    0.984851
     24          6           0        3.479136   -0.149921   -0.085870
     25          6           0        4.525405   -0.004280   -0.995485
     26          6           0        5.411610    1.062251   -0.817439
     27          1           0        5.938334    2.779708    0.378062
     28          1           0        4.053516    2.472166    1.971271
     29          1           0        2.457592    0.564649    1.663861
     30          1           0        4.630883   -0.709380   -1.811037
     31          1           0        6.233896    1.193979   -1.514962
     32          7           0        2.534518   -1.275239   -0.264073
     33          8           0        2.725703   -2.029448   -1.215521
     34          8           0        1.620829   -1.381746    0.551074
 ---------------------------------------------------------------------

 SCF Done:  E(RHF) =  -669.536291270     A.U. after   15 cycles
 E2 =    -0.2090711024D+01 EUMP2 =    -0.67162700229329D+03

 The electronic state is 1-A.
 Alpha  occ. eigenvalues --  -20.60971 -20.60959 -15.85998 -11.31304 -11.27865
 Alpha  occ. eigenvalues --  -11.27861 -11.27601 -11.26870 -11.26860 -11.21154
 Alpha  occ. eigenvalues --  -11.20811 -11.20721 -11.20622 -11.20550 -11.19576
 Alpha  occ. eigenvalues --   -1.60026  -1.39582  -1.19470  -1.08878  -1.07728
 Alpha  occ. eigenvalues --   -1.04865  -1.02734  -0.95724  -0.95162  -0.86267
 Alpha  occ. eigenvalues --   -0.86180  -0.82556  -0.78837  -0.77610  -0.77515
 Alpha  occ. eigenvalues --   -0.72225  -0.71337  -0.70579  -0.65127  -0.64868
 Alpha  occ. eigenvalues --   -0.64374  -0.62212  -0.60151  -0.58567  -0.56738
 Alpha  occ. eigenvalues --   -0.55370  -0.54482  -0.53197  -0.52957  -0.51798
 Alpha  occ. eigenvalues --   -0.51593  -0.49150  -0.48975  -0.48958  -0.47116
 Alpha  occ. eigenvalues --   -0.45909  -0.45055  -0.44993  -0.44978  -0.42948
 Alpha  occ. eigenvalues --   -0.37449  -0.36465
 Alpha virt. eigenvalues --    0.04911   0.11190   0.16404   0.21318   0.23501
 Alpha virt. eigenvalues --    0.25176   0.27236   0.27297   0.28084   0.28220
 Alpha virt. eigenvalues --    0.28933   0.30888   0.32123   0.32362   0.32438

 Mulliken charges:
               1
     1  C   -0.297256
     2  C   -0.297532
     3  C   -0.488093
     4  H    0.147030
     5  H    0.148521
     6  H    0.147899
     7  H    0.151558
     8  H    0.149595
     9  H    0.147587
    10  H    0.191872
    11  C   -0.297340
    12  C   -0.298992
    13  C   -0.475220
    14  H    0.147097
    15  H    0.149162
    16  H    0.150748
    17  H    0.151701
    18  H    0.154820
    19  H    0.153799
    20  H    0.158790
    21  C   -0.170537
    22  C   -0.218560
    23  C   -0.170780
    24  C    0.157679
    25  C   -0.170445
    26  C   -0.218612
    27  H    0.226033
    28  H    0.223866
    29  H    0.275974
    30  H    0.275899
    31  H    0.223850
    32  N    0.491681
    33  O   -0.458803
    34  O   -0.462993
 Sum of Mulliken charges =  -0.00000

 Dipole moment (field-independent basis, Debye):
    X=              3.6810    Y=              3.9117    Z=              0.5923  Tot=              5.4039
 Quadrupole moment (field-independent basis, Debye-Ang):
   XX=            -72.1886   YY=            -96.3453   ZZ=            -91.7050
   XY=             13.4611   XZ=             -0.5013   YZ=              2.0302

 Normal termination of Gaussian 16 at Wed May  5 21:57:15 2021.
