 Gaussian 16, Revision A.03,
 Gaussian 16:  EM64L-G16RevA.03 25-Dec-2016

 -------------
 #p 6-31g* mp2
 -------------

 ------------------------------------------------------
 Input file generated by CHIRIPA (05-May-2021 14:55:24)
 ------------------------------------------------------
 Symbolic Z-matrix:
 Charge =  0 Multiplicity = 1

                         Standard orientation:
 ---------------------------------------------------------------------
 Center     Atomic      Atomic             Coordinates (Angstroms)
 Number     Number       Type             X           Y           Z
 ---------------------------------------------------------------------
      1          6           0       -1.615042    2.210767    0.447380
      2          6           0       -2.703665    2.274913   -0.428580
      3          6           0       -3.565505    1.183382   -0.571202
      4          6           0       -3.307892    0.038311    0.180953
      5          6           0       -2.231692   -0.056255    1.061941
      6          6           0       -1.382939    1.047439    1.188539
      7          1           0       -0.950628    3.063419    0.551948
      8          1           0       -2.886357    3.177076   -1.005443
      9          1           0       -4.415710    1.205992   -1.242065
     10          1           0       -2.075267   -0.969203    1.623614
     11          1           0       -0.538280    0.994787    1.869584
     12          7           0       -4.213356   -1.123682    0.038448
     13          8           0       -3.964708   -2.120987    0.712388
     14          8           0       -5.154561   -1.015145   -0.744488
     15          6           0        4.689893    0.111946   -0.273579
     16          6           0        5.864039   -0.597847    0.401373
     17          6           0        7.150935    0.227186    0.369515
     18          1           0        4.956252    0.338418   -1.315072
     19          1           0        4.519899    1.077498    0.222615
     20          1           0        6.030883   -1.562387   -0.095055
     21          1           0        5.594782   -0.822825    1.441325
     22          1           0        7.007982    1.183899    0.882221
     23          1           0        7.446560    0.440135   -0.662890
     24          1           0        7.977348   -0.299012    0.857385
     25          6           0        3.396279   -0.700289   -0.249788
     26          6           0        2.222133    0.009503   -0.924739
     27          6           0        0.935237   -0.815529   -0.892882
     28          1           0        3.566273   -1.665841   -0.745980
     29          1           0        3.129920   -0.926761    0.791706
     30          1           0        2.491389    0.234483   -1.964692
     31          1           0        2.055289    0.974044   -0.428311
     32          1           0        0.639611   -1.028479    0.139523
     33          1           0        1.078190   -1.772242   -1.405586
     34          1           0        0.108824   -0.289332   -1.380752
 ---------------------------------------------------------------------

 SCF Done:  E(RHF) =  -669.534696034     A.U. after   15 cycles
 E2 =    -0.2092540357D+01 EUMP2 =    -0.67162723639099D+03

 The electronic state is 1-A.
 Alpha  occ. eigenvalues --  -20.60760 -20.60755 -15.85814 -11.31195 -11.27759
 Alpha  occ. eigenvalues --  -11.27743 -11.27505 -11.26793 -11.26770 -11.22063
 Alpha  occ. eigenvalues --  -11.21942 -11.21820 -11.21758 -11.21380 -11.21326
 Alpha  occ. eigenvalues --   -1.59835  -1.39388  -1.19372  -1.08836  -1.08758
 Alpha  occ. eigenvalues --   -1.04785  -1.03892  -0.96328  -0.95594  -0.87344
 Alpha  occ. eigenvalues --   -0.86172  -0.82430  -0.79962  -0.78648  -0.77473
 Alpha  occ. eigenvalues --   -0.72033  -0.71157  -0.70476  -0.65482  -0.65024
 Alpha  occ. eigenvalues --   -0.64781  -0.62148  -0.61297  -0.59707  -0.57943
 Alpha  occ. eigenvalues --   -0.55677  -0.55273  -0.53409  -0.52870  -0.52770
 Alpha  occ. eigenvalues --   -0.52628  -0.50257  -0.48793  -0.48786  -0.48273
 Alpha  occ. eigenvalues --   -0.47018  -0.46184  -0.46126  -0.44789  -0.44144
 Alpha  occ. eigenvalues --   -0.37350  -0.36293
 Alpha virt. eigenvalues --    0.05053   0.11209   0.16474   0.20512   0.22679
 Alpha virt. eigenvalues --    0.24008   0.25947   0.26568   0.27236   0.28068
 Alpha virt. eigenvalues --    0.28386   0.30673   0.31250   0.31469   0.32099

 Mulliken charges:
               1
     1  C   -0.172301
     2  C   -0.218892
     3  C   -0.171860
     4  C    0.158019
     5  C   -0.168319
     6  C   -0.213457
     7  H    0.225561
     8  H    0.223546
     9  H    0.275642
    10  H    0.275372
    11  H    0.222920
    12  N    0.488154
    13  O   -0.460179
    14  O   -0.460494
    15  C   -0.297952
    16  C   -0.299827
    17  C   -0.475808
    18  H    0.150738
    19  H    0.146721
    20  H    0.153517
    21  H    0.151528
    22  H    0.154344
    23  H    0.155802
    24  H    0.161425
    25  C   -0.297937
    26  C   -0.300133
    27  C   -0.473015
    28  H    0.152622
    29  H    0.146832
    30  H    0.153762
    31  H    0.143257
    32  H    0.147790
    33  H    0.157721
    34  H    0.164902
 Sum of Mulliken charges =  -0.00000

 Dipole moment (field-independent basis, Debye):
    X=              3.1991    Y=              4.0597    Z=              0.4561  Tot=              5.1888
 Quadrupole moment (field-independent basis, Debye-Ang):
   XX=           -115.7595   YY=            -93.7096   ZZ=            -91.9785
   XY=            -15.8185   XZ=              0.6331   YZ=             -0.7916

 Normal termination of Gaussian 16 at Thu May  6 07:54:45 2021.
