 Gaussian 16, Revision A.03,
 Gaussian 16:  EM64L-G16RevA.03 25-Dec-2016

 -------------
 #p 6-31g* mp2
 -------------

 ------------------------------------------------------
 Input file generated by CHIRIPA (05-May-2021 14:55:23)
 ------------------------------------------------------
 Symbolic Z-matrix:
 Charge =  0 Multiplicity = 1

                         Standard orientation:
 ---------------------------------------------------------------------
 Center     Atomic      Atomic             Coordinates (Angstroms)
 Number     Number       Type             X           Y           Z
 ---------------------------------------------------------------------
      1          6           0       -0.143752   -1.758680    1.567297
      2          6           0       -0.657731   -0.517553    1.957108
      3          6           0       -1.662143    0.102085    1.207606
      4          6           0       -2.131523   -0.550605    0.068761
      5          6           0       -1.639704   -1.787467   -0.345457
      6          6           0       -0.635512   -2.388565    0.419283
      7          1           0        0.636414   -2.232828    2.155447
      8          1           0       -0.277726   -0.026053    2.848213
      9          1           0       -2.077935    1.062661    1.486583
     10          1           0       -2.038561   -2.252939   -1.238580
     11          1           0       -0.238224   -3.352468    0.114161
     12          7           0       -3.194733    0.095564   -0.732769
     13          8           0       -3.591330   -0.500125   -1.732020
     14          8           0       -3.611347    1.185485   -0.346581
     15          6           0        2.249272    1.425624    0.163417
     16          6           0        0.985525    2.074245   -0.402463
     17          6           0        0.488026    3.242091    0.449842
     18          1           0        2.048240    1.076082    1.185352
     19          1           0        3.039031    2.185490    0.242659
     20          1           0        0.198808    1.313074   -0.481911
     21          1           0        1.189532    2.422111   -1.423241
     22          1           0        1.253424    4.021794    0.519338
     23          1           0        0.257072    2.906455    1.466016
     24          1           0       -0.416189    3.691029    0.027101
     25          6           0        2.758839    0.256557   -0.677626
     26          6           0        4.022586   -0.392064   -0.111746
     27          6           0        4.520085   -1.559910   -0.964051
     28          1           0        1.969080   -0.503308   -0.756868
     29          1           0        2.959871    0.606099   -1.699561
     30          1           0        3.818580   -0.739930    0.909032
     31          1           0        4.809303    0.369107   -0.032298
     32          1           0        4.751041   -1.224274   -1.980225
     33          1           0        3.754687   -2.339613   -1.033546
     34          1           0        5.424300   -2.008848   -0.541311
 ---------------------------------------------------------------------

 SCF Done:  E(RHF) =  -669.534527537     A.U. after   15 cycles
 E2 =    -0.2095888525D+01 EUMP2 =    -0.67163041606291D+03

 The electronic state is 1-A.
 Alpha  occ. eigenvalues --  -20.60871 -20.60865 -15.85926 -11.31322 -11.27939
 Alpha  occ. eigenvalues --  -11.27893 -11.27698 -11.26955 -11.26922 -11.22035
 Alpha  occ. eigenvalues --  -11.21644 -11.21595 -11.21554 -11.21536 -11.21233
 Alpha  occ. eigenvalues --   -1.59946  -1.39497  -1.19547  -1.08925  -1.08675
 Alpha  occ. eigenvalues --   -1.04957  -1.03791  -0.96264  -0.95736  -0.87277
 Alpha  occ. eigenvalues --   -0.86335  -0.82567  -0.79865  -0.78492  -0.77603
 Alpha  occ. eigenvalues --   -0.72143  -0.71278  -0.70634  -0.65379  -0.65183
 Alpha  occ. eigenvalues --   -0.64929  -0.62303  -0.61240  -0.59616  -0.57854
 Alpha  occ. eigenvalues --   -0.55595  -0.55421  -0.53292  -0.53026  -0.52914
 Alpha  occ. eigenvalues --   -0.52683  -0.50224  -0.48906  -0.48894  -0.48181
 Alpha  occ. eigenvalues --   -0.46933  -0.46038  -0.45879  -0.44887  -0.44025
 Alpha  occ. eigenvalues --   -0.37472  -0.36467
 Alpha virt. eigenvalues --    0.04902   0.11002   0.16295   0.20132   0.22986
 Alpha virt. eigenvalues --    0.23556   0.25850   0.26528   0.26938   0.28630
 Alpha virt. eigenvalues --    0.28743   0.29948   0.31284   0.31629   0.32127

 Mulliken charges:
               1
     1  C   -0.170305
     2  C   -0.214185
     3  C   -0.175156
     4  C    0.160788
     5  C   -0.171377
     6  C   -0.219054
     7  H    0.227034
     8  H    0.224537
     9  H    0.277985
    10  H    0.276685
    11  H    0.224619
    12  N    0.488198
    13  O   -0.460110
    14  O   -0.460005
    15  C   -0.295365
    16  C   -0.304875
    17  C   -0.477332
    18  H    0.141309
    19  H    0.149437
    20  H    0.158952
    21  H    0.154235
    22  H    0.156215
    23  H    0.143194
    24  H    0.169205
    25  C   -0.301820
    26  C   -0.298617
    27  C   -0.474867
    28  H    0.151730
    29  H    0.151458
    30  H    0.144766
    31  H    0.153741
    32  H    0.158081
    33  H    0.150622
    34  H    0.160275
 Sum of Mulliken charges =  -0.00000

 Dipole moment (field-independent basis, Debye):
    X=              3.6035    Y=             -2.2912    Z=              2.7507  Tot=              5.0795
 Quadrupole moment (field-independent basis, Debye-Ang):
   XX=           -111.5924   YY=            -89.7522   ZZ=            -92.7577
   XY=              3.5608   XZ=             -6.0926   YZ=              0.0607

 Normal termination of Gaussian 16 at Thu May  6 19:17:40 2021.
