 Gaussian 16, Revision A.03,
 Gaussian 16:  EM64L-G16RevA.03 25-Dec-2016

 -------------
 #p 6-31g* mp2
 -------------

 ------------------------------------------------------
 Input file generated by CHIRIPA (05-May-2021 14:57:24)
 ------------------------------------------------------
 Symbolic Z-matrix:
 Charge =  0 Multiplicity = 1

                         Standard orientation:
 ---------------------------------------------------------------------
 Center     Atomic      Atomic             Coordinates (Angstroms)
 Number     Number       Type             X           Y           Z
 ---------------------------------------------------------------------
      1          6           0        0.469613   -1.299264   -1.744614
      2          6           0        0.429870    0.098927   -1.742796
      3          6           0        1.417792    0.836449   -1.083539
      4          6           0        2.435496    0.140200   -0.433303
      5          6           0        2.502585   -1.252111   -0.417161
      6          6           0        1.504019   -1.969139   -1.082957
      7          1           0       -0.301963   -1.864228   -2.259281
      8          1           0       -0.372271    0.621828   -2.255817
      9          1           0        1.411284    1.919536   -1.066290
     10          1           0        3.314772   -1.745262    0.103005
     11          1           0        1.537427   -3.054924   -1.082708
     12          7           0        3.486999    0.910133    0.268084
     13          8           0        4.372982    0.273012    0.833545
     14          8           0        3.405272    2.136150    0.239090
     15          6           0       -3.970545    1.392338   -0.664207
     16          6           0       -4.004619   -0.001570   -0.775470
     17          6           0       -3.063083   -0.790364   -0.107742
     18          6           0       -2.097039   -0.149198    0.666179
     19          6           0       -2.036940    1.237388    0.796785
     20          6           0       -2.988545    2.006287    0.120181
     21          1           0       -4.705864    1.997366   -1.186362
     22          1           0       -4.766111   -0.481096   -1.383935
     23          1           0       -3.066389   -1.871423   -0.176449
     24          1           0       -1.265816    1.686677    1.410725
     25          1           0       -2.959664    3.088611    0.208416
     26          7           0       -1.094947   -0.973728    1.377770
     27          8           0       -0.254020   -0.384608    2.053356
     28          8           0       -1.169409   -2.193502    1.246456
 ---------------------------------------------------------------------

 SCF Done:  E(RHF) =  -868.337116247     A.U. after   16 cycles
 E2 =    -0.2606366591D+01 EUMP2 =    -0.87094348283820D+03

 The electronic state is 1-A.
 Alpha  occ. eigenvalues --  -20.61261 -20.61187 -20.60191 -20.60155 -15.86240
 Alpha  occ. eigenvalues --  -15.85226 -11.31711 -11.30566 -11.28341 -11.28237
 Alpha  occ. eigenvalues --  -11.28079 -11.27411 -11.27344 -11.27194 -11.27030
 Alpha  occ. eigenvalues --  -11.26892 -11.26268 -11.26093  -1.60265  -1.59240
 Alpha  occ. eigenvalues --   -1.39829  -1.38800  -1.19932  -1.18751  -1.09295
 Alpha  occ. eigenvalues --   -1.08165  -1.05355  -1.04156  -0.96111  -0.95001
 Alpha  occ. eigenvalues --   -0.86731  -0.85554  -0.82950  -0.81834  -0.77977
 Alpha  occ. eigenvalues --   -0.76872  -0.72499  -0.71635  -0.71462  -0.71021
 Alpha  occ. eigenvalues --   -0.70523  -0.69898  -0.65573  -0.65341  -0.64413
 Alpha  occ. eigenvalues --   -0.64174  -0.62684  -0.61515  -0.55832  -0.54699
 Alpha  occ. eigenvalues --   -0.53790  -0.53425  -0.52373  -0.52220  -0.49250
 Alpha  occ. eigenvalues --   -0.49245  -0.48218  -0.48203  -0.45296  -0.44218
 Alpha  occ. eigenvalues --   -0.38245  -0.37062  -0.36483  -0.35447
 Alpha virt. eigenvalues --    0.04501   0.05625   0.10627   0.11956   0.16017
 Alpha virt. eigenvalues --    0.17203   0.20750   0.21972   0.26579   0.27654
 Alpha virt. eigenvalues --    0.27869   0.28734   0.30354   0.31447   0.32167

 Mulliken charges:
               1
     1  C   -0.178955
     2  C   -0.224794
     3  C   -0.174333
     4  C    0.168182
     5  C   -0.164638
     6  C   -0.205935
     7  H    0.221100
     8  H    0.220162
     9  H    0.269401
    10  H    0.276755
    11  H    0.226365
    12  N    0.488882
    13  O   -0.458469
    14  O   -0.465681
    15  C   -0.173501
    16  C   -0.220440
    17  C   -0.178401
    18  C    0.165856
    19  C   -0.173118
    20  C   -0.221705
    21  H    0.227225
    22  H    0.223830
    23  H    0.272981
    24  H    0.280064
    25  H    0.226565
    26  N    0.492594
    27  O   -0.455162
    28  O   -0.464830
 Sum of Mulliken charges =  -0.00000

 Dipole moment (field-independent basis, Debye):
    X=             -7.0972    Y=              0.0564    Z=             -4.7066  Tot=              8.5162
 Quadrupole moment (field-independent basis, Debye-Ang):
   XX=           -107.3148   YY=            -99.6106   ZZ=           -106.6087
   XY=            -13.6923   XZ=              0.2561   YZ=              3.7354

 Normal termination of Gaussian 16 at Thu May  6 01:56:16 2021.
