 Gaussian 16, Revision A.03,
 Gaussian 16:  EM64L-G16RevA.03 25-Dec-2016

 -------------
 #p 6-31g* mp2
 -------------

 ------------------------------------------------------
 Input file generated by CHIRIPA (05-May-2021 14:55:19)
 ------------------------------------------------------
 Symbolic Z-matrix:
 Charge =  0 Multiplicity = 1

                         Standard orientation:
 ---------------------------------------------------------------------
 Center     Atomic      Atomic             Coordinates (Angstroms)
 Number     Number       Type             X           Y           Z
 ---------------------------------------------------------------------
      1          6           0       -4.971612   -1.550833    0.305139
      2          6           0       -4.004388   -1.421017    1.307209
      3          6           0       -2.905370   -0.575685    1.127978
      4          6           0       -2.804594    0.128078   -0.071127
      5          6           0       -3.751693    0.019994   -1.088285
      6          6           0       -4.842406   -0.831182   -0.887308
      7          1           0       -5.822130   -2.209777    0.452817
      8          1           0       -4.102146   -1.978682    2.234300
      9          1           0       -2.141955   -0.456431    1.887184
     10          1           0       -3.626998    0.588808   -2.001696
     11          1           0       -5.592033   -0.930034   -1.667265
     12          7           0       -1.645509    1.026087   -0.272382
     13          8           0       -1.579727    1.635208   -1.337878
     14          8           0       -0.824749    1.103821    0.639181
     15          6           0        4.179031   -0.602328    0.314087
     16          6           0        4.644831   -1.551471   -0.790513
     17          6           0        5.332392   -2.802852   -0.243611
     18          1           0        5.043306   -0.309790    0.925964
     19          1           0        3.490249   -1.138046    0.981905
     20          1           0        5.331450   -1.013724   -1.456844
     21          1           0        3.779377   -1.841632   -1.399949
     22          1           0        4.651913   -3.363958    0.405011
     23          1           0        6.212805   -2.531346    0.347791
     24          1           0        5.657302   -3.467393   -1.050257
     25          6           0        3.489770    0.653333   -0.216915
     26          6           0        3.023969    1.602478    0.887684
     27          6           0        2.336409    2.853859    0.340782
     28          1           0        4.178552    1.189052   -0.884734
     29          1           0        2.625494    0.360796   -0.828794
     30          1           0        3.889423    1.892638    1.497120
     31          1           0        2.337350    1.064730    1.554016
     32          1           0        1.455996    2.582353   -0.250621
     33          1           0        3.016888    3.414964   -0.307840
     34          1           0        2.011499    3.518401    1.147428
 ---------------------------------------------------------------------

 SCF Done:  E(RHF) =  -669.536654832     A.U. after   15 cycles
 E2 =    -0.2091638145D+01 EUMP2 =    -0.67162829297744D+03

 The electronic state is 1-A.
 Alpha  occ. eigenvalues --  -20.61115 -20.61110 -15.86116 -11.31391 -11.27944
 Alpha  occ. eigenvalues --  -11.27940 -11.27671 -11.26938 -11.26928 -11.20899
 Alpha  occ. eigenvalues --  -11.20545 -11.20469 -11.20119 -11.20014 -11.19031
 Alpha  occ. eigenvalues --   -1.60156  -1.39712  -1.19551  -1.08965  -1.07327
 Alpha  occ. eigenvalues --   -1.04938  -1.02327  -0.95816  -0.94775  -0.86341
 Alpha  occ. eigenvalues --   -0.85799  -0.82648  -0.78481  -0.77711  -0.77060
 Alpha  occ. eigenvalues --   -0.72329  -0.71461  -0.70658  -0.65207  -0.64942
 Alpha  occ. eigenvalues --   -0.63957  -0.62285  -0.59705  -0.58263  -0.56379
 Alpha  occ. eigenvalues --   -0.55450  -0.54062  -0.53273  -0.53027  -0.51491
 Alpha  occ. eigenvalues --   -0.51215  -0.49287  -0.49090  -0.48487  -0.46750
 Alpha  occ. eigenvalues --   -0.45507  -0.45134  -0.44596  -0.44445  -0.42611
 Alpha  occ. eigenvalues --   -0.37527  -0.36536
 Alpha virt. eigenvalues --    0.04814   0.11120   0.16321   0.21252   0.23862
 Alpha virt. eigenvalues --    0.25588   0.27184   0.27658   0.28206   0.28519
 Alpha virt. eigenvalues --    0.29281   0.30833   0.32305   0.32667   0.32681

 Mulliken charges:
               1
     1  C   -0.170382
     2  C   -0.218557
     3  C   -0.170714
     4  C    0.158340
     5  C   -0.170586
     6  C   -0.218597
     7  H    0.226375
     8  H    0.224192
     9  H    0.275846
    10  H    0.276108
    11  H    0.224186
    12  N    0.489283
    13  O   -0.458986
    14  O   -0.459540
    15  C   -0.297219
    16  C   -0.298655
    17  C   -0.474847
    18  H    0.146883
    19  H    0.147165
    20  H    0.151063
    21  H    0.150784
    22  H    0.152979
    23  H    0.154200
    24  H    0.157684
    25  C   -0.298282
    26  C   -0.297182
    27  C   -0.479568
    28  H    0.145604
    29  H    0.154115
    30  H    0.142474
    31  H    0.156635
    32  H    0.182621
    33  H    0.142953
    34  H    0.153627
 Sum of Mulliken charges =  -0.00000

 Dipole moment (field-independent basis, Debye):
    X=             -4.5606    Y=             -3.1627    Z=              0.6678  Tot=              5.5900
 Quadrupole moment (field-independent basis, Debye-Ang):
   XX=            -72.6197   YY=            -97.2986   ZZ=            -91.0325
   XY=              8.9402   XZ=             -0.1692   YZ=             -0.9790

 Normal termination of Gaussian 16 at Thu May  6 19:02:15 2021.
