 Gaussian 16, Revision A.03,
 Gaussian 16:  EM64L-G16RevA.03 25-Dec-2016

 -------------
 #p 6-31g* mp2
 -------------

 ------------------------------------------------------
 Input file generated by CHIRIPA (05-May-2021 14:51:08)
 ------------------------------------------------------
 Symbolic Z-matrix:
 Charge =  0 Multiplicity = 1

                         Standard orientation:
 ---------------------------------------------------------------------
 Center     Atomic      Atomic             Coordinates (Angstroms)
 Number     Number       Type             X           Y           Z
 ---------------------------------------------------------------------
      1          6           0       -2.519443   -0.146098    0.913861
      2          6           0       -1.159559   -0.845103    0.904331
      3          6           0       -0.275142   -0.433682    2.081758
      4          1           0       -2.365647    0.941552    0.896281
      5          1           0       -3.034322   -0.373758    1.857506
      6          1           0       -0.647981   -0.617316   -0.039606
      7          1           0       -1.316614   -1.931219    0.921743
      8          1           0       -0.761504   -0.676296    3.032122
      9          1           0       -0.089072    0.645071    2.065311
     10          1           0        0.692064   -0.945223    2.055327
     11          6           0       -3.414945   -0.547102   -0.257037
     12          6           0       -4.774829    0.151903   -0.247507
     13          6           0       -5.659246   -0.259518   -1.424933
     14          1           0       -2.900065   -0.319442   -1.200681
     15          1           0       -3.568741   -1.634752   -0.239456
     16          1           0       -4.617774    1.238019   -0.264919
     17          1           0       -5.286407   -0.075884    0.696430
     18          1           0       -5.845316   -1.338271   -1.408486
     19          1           0       -5.172884   -0.016904   -2.375297
     20          1           0       -6.626452    0.252023   -1.398502
     21          6           0        2.396058    0.819639   -0.145464
     22          6           0        2.727769    2.292619   -0.386876
     23          6           0        1.575335    3.226559   -0.016137
     24          1           0        1.503281    0.551370   -0.726781
     25          1           0        2.134309    0.678537    0.912351
     26          1           0        2.990155    2.430646   -1.443625
     27          1           0        3.619972    2.557361    0.194933
     28          1           0        1.316861    3.118184    1.042186
     29          1           0        0.683465    2.990748   -0.605683
     30          1           0        1.833979    4.274602   -0.196602
     31          6           0        3.538330   -0.126438   -0.511360
     32          6           0        3.206619   -1.599420   -0.269949
     33          6           0        4.359053   -2.533359   -0.640688
     34          1           0        3.800078    0.014664   -1.569175
     35          1           0        4.431107    0.141829    0.069957
     36          1           0        2.314417   -1.864161   -0.851759
     37          1           0        2.944234   -1.737446    0.786800
     38          1           0        5.250922   -2.297548   -0.051142
     39          1           0        4.617527   -2.424983   -1.699010
     40          1           0        4.100409   -3.581402   -0.460223
 ---------------------------------------------------------------------

 SCF Done:  E(RHF) =  -470.731846837     A.U. after   11 cycles
 E2 =    -0.1584784390D+01 EUMP2 =    -0.47231663122757D+03

 The electronic state is 1-A.
 Alpha  occ. eigenvalues --  -11.21621 -11.21591 -11.21588 -11.21532 -11.21380
 Alpha  occ. eigenvalues --  -11.21368 -11.21315 -11.21252 -11.21121 -11.21081
 Alpha  occ. eigenvalues --  -11.21064 -11.20973  -1.08462  -1.08362  -1.03550
 Alpha  occ. eigenvalues --   -1.03486  -0.96032  -0.95908  -0.87031  -0.86952
 Alpha  occ. eigenvalues --   -0.79620  -0.79556  -0.78278  -0.78188  -0.65071
 Alpha  occ. eigenvalues --   -0.65031  -0.60973  -0.60893  -0.59408  -0.59287
 Alpha  occ. eigenvalues --   -0.57704  -0.57446  -0.55325  -0.55219  -0.52765
 Alpha  occ. eigenvalues --   -0.52610  -0.52392  -0.52359  -0.50039  -0.49838
 Alpha  occ. eigenvalues --   -0.48005  -0.47802  -0.46818  -0.46537  -0.45961
 Alpha  occ. eigenvalues --   -0.45765  -0.45550  -0.45346  -0.43786  -0.43681
 Alpha virt. eigenvalues --    0.20830   0.22890   0.23512   0.24137   0.24673
 Alpha virt. eigenvalues --    0.26309   0.26613   0.27845   0.28477   0.29511
 Alpha virt. eigenvalues --    0.30155   0.31464   0.31670   0.31782   0.32511

 Mulliken charges:
               1
     1  C   -0.298769
     2  C   -0.302213
     3  C   -0.480536
     4  H    0.150087
     5  H    0.149443
     6  H    0.155179
     7  H    0.151573
     8  H    0.154241
     9  H    0.157011
    10  H    0.163544
    11  C   -0.298141
    12  C   -0.299633
    13  C   -0.475676
    14  H    0.148831
    15  H    0.149609
    16  H    0.152000
    17  H    0.151977
    18  H    0.155142
    19  H    0.155021
    20  H    0.160245
    21  C   -0.306569
    22  C   -0.298865
    23  C   -0.476985
    24  H    0.151693
    25  H    0.158733
    26  H    0.151412
    27  H    0.151788
    28  H    0.155599
    29  H    0.154338
    30  H    0.160677
    31  C   -0.297756
    32  C   -0.302642
    33  C   -0.475554
    34  H    0.148999
    35  H    0.149296
    36  H    0.152812
    37  H    0.153219
    38  H    0.155230
    39  H    0.155344
    40  H    0.160296
 Sum of Mulliken charges =  -0.00000

 Dipole moment (field-independent basis, Debye):
    X=              0.0223    Y=             -0.0015    Z=              0.0141  Tot=              0.0264
 Quadrupole moment (field-independent basis, Debye-Ang):
   XX=            -85.7121   YY=            -84.9256   ZZ=            -84.2944
   XY=              0.7485   XZ=             -0.2189   YZ=             -0.6529

 Normal termination of Gaussian 16 at Thu May  6 03:41:13 2021.
