 Gaussian 16, Revision A.03,
 Gaussian 16:  EM64L-G16RevA.03 25-Dec-2016

 -------------
 #p 6-31g* mp2
 -------------

 ------------------------------------------------------
 Input file generated by CHIRIPA (05-May-2021 14:51:10)
 ------------------------------------------------------
 Symbolic Z-matrix:
 Charge =  0 Multiplicity = 1

                         Standard orientation:
 ---------------------------------------------------------------------
 Center     Atomic      Atomic             Coordinates (Angstroms)
 Number     Number       Type             X           Y           Z
 ---------------------------------------------------------------------
      1          6           0        2.817340    0.671213   -0.259294
      2          6           0        3.388456   -0.340353    0.734963
      3          6           0        4.548509   -1.149647    0.154348
      4          1           0        2.481101    0.140323   -1.160428
      5          1           0        3.617707    1.353036   -0.578553
      6          1           0        2.586936   -1.019204    1.053307
      7          1           0        3.723199    0.192985    1.633914
      8          1           0        5.367234   -0.488020   -0.146551
      9          1           0        4.224515   -1.707096   -0.730457
     10          1           0        4.941616   -1.866601    0.881881
     11          6           0        1.656930    1.487927    0.306529
     12          6           0        1.085815    2.499493   -0.687727
     13          6           0       -0.074239    3.308787   -0.107112
     14          1           0        0.856564    0.806105    0.625789
     15          1           0        1.993170    2.018817    1.207664
     16          1           0        0.751071    1.966155   -1.586679
     17          1           0        1.887335    3.178344   -1.006072
     18          1           0        0.249756    3.866236    0.777692
     19          1           0       -0.892963    2.647160    0.193787
     20          1           0       -0.467345    4.025741   -0.834646
     21          6           0       -2.528948   -0.382234    0.085922
     22          6           0       -4.057489   -0.363100    0.120311
     23          6           0       -4.626339    1.038990    0.340186
     24          1           0       -2.142150    0.028253    1.028701
     25          1           0       -2.178715    0.285999   -0.712950
     26          1           0       -4.404767   -1.032235    0.917977
     27          1           0       -4.440693   -0.773857   -0.822583
     28          1           0       -4.308245    1.713803   -0.461090
     29          1           0       -4.272115    1.453957    1.289360
     30          1           0       -5.720561    1.029526    0.361366
     31          6           0       -1.945322   -1.776906   -0.133157
     32          6           0       -0.416781   -1.796040   -0.167546
     33          6           0        0.152068   -3.198131   -0.387422
     34          1           0       -2.295555   -2.445139    0.665716
     35          1           0       -2.332120   -2.187393   -1.075937
     36          1           0       -0.033577   -1.385283    0.775347
     37          1           0       -0.069503   -1.126905   -0.965213
     38          1           0       -0.202156   -3.613097   -1.336595
     39          1           0       -0.166026   -3.872944    0.413855
     40          1           0        1.246290   -3.188666   -0.408602
 ---------------------------------------------------------------------

 SCF Done:  E(RHF) =  -470.732348513     A.U. after   11 cycles
 E2 =    -0.1585753156D+01 EUMP2 =    -0.47231810166918D+03

 The electronic state is 1-A.
 Alpha  occ. eigenvalues --  -11.21714 -11.21680 -11.21543 -11.21519 -11.21518
 Alpha  occ. eigenvalues --  -11.21460 -11.21303 -11.21180 -11.21173 -11.21117
 Alpha  occ. eigenvalues --  -11.21053 -11.20960  -1.08572  -1.08318  -1.03635
 Alpha  occ. eigenvalues --   -1.03456  -0.96076  -0.95903  -0.87094  -0.86917
 Alpha  occ. eigenvalues --   -0.79725  -0.79529  -0.78491  -0.78050  -0.65176
 Alpha  occ. eigenvalues --   -0.65003  -0.61040  -0.60892  -0.59429  -0.59266
 Alpha  occ. eigenvalues --   -0.57669  -0.57514  -0.55373  -0.55203  -0.52768
 Alpha  occ. eigenvalues --   -0.52608  -0.52524  -0.52297  -0.50015  -0.49857
 Alpha  occ. eigenvalues --   -0.48016  -0.47858  -0.46854  -0.46663  -0.46249
 Alpha  occ. eigenvalues --   -0.45873  -0.45587  -0.44968  -0.43879  -0.43696
 Alpha virt. eigenvalues --    0.19881   0.21419   0.23483   0.24440   0.24821
 Alpha virt. eigenvalues --    0.26082   0.27308   0.27914   0.28003   0.29697
 Alpha virt. eigenvalues --    0.30951   0.31323   0.31499   0.31751   0.32797

 Mulliken charges:
               1
     1  C   -0.298311
     2  C   -0.304517
     3  C   -0.476153
     4  H    0.149756
     5  H    0.149235
     6  H    0.156566
     7  H    0.151689
     8  H    0.155351
     9  H    0.154942
    10  H    0.160058
    11  C   -0.305919
    12  C   -0.299090
    13  C   -0.480221
    14  H    0.159334
    15  H    0.148415
    16  H    0.150275
    17  H    0.151493
    18  H    0.154631
    19  H    0.160159
    20  H    0.159311
    21  C   -0.302719
    22  C   -0.299549
    23  C   -0.476589
    24  H    0.150805
    25  H    0.152121
    26  H    0.152240
    27  H    0.152249
    28  H    0.156009
    29  H    0.155610
    30  H    0.160703
    31  C   -0.297885
    32  C   -0.306280
    33  C   -0.477843
    34  H    0.149952
    35  H    0.150000
    36  H    0.155659
    37  H    0.154818
    38  H    0.155629
    39  H    0.155702
    40  H    0.162363
 Sum of Mulliken charges =  -0.00000

 Dipole moment (field-independent basis, Debye):
    X=             -0.0804    Y=             -0.0641    Z=              0.0155  Tot=              0.1040
 Quadrupole moment (field-independent basis, Debye-Ang):
   XX=            -85.3956   YY=            -85.7323   ZZ=            -83.7388
   XY=              1.5210   XZ=              0.5715   YZ=             -0.2221

 Normal termination of Gaussian 16 at Wed May  5 18:11:05 2021.
