 Gaussian 16, Revision A.03,
 Gaussian 16:  EM64L-G16RevA.03 25-Dec-2016

 -------------
 #p 6-31g* mp2
 -------------

 ------------------------------------------------------
 Input file generated by CHIRIPA (05-May-2021 14:55:22)
 ------------------------------------------------------
 Symbolic Z-matrix:
 Charge =  0 Multiplicity = 1

                         Standard orientation:
 ---------------------------------------------------------------------
 Center     Atomic      Atomic             Coordinates (Angstroms)
 Number     Number       Type             X           Y           Z
 ---------------------------------------------------------------------
      1          6           0        0.896374   -2.724211   -0.097563
      2          6           0        2.052228   -2.540521   -0.863578
      3          6           0        2.807678   -1.370699   -0.739636
      4          6           0        2.376275   -0.400909    0.164072
      5          6           0        1.229256   -0.554566    0.941265
      6          6           0        0.489294   -1.732395    0.800830
      7          1           0        0.315538   -3.636066   -0.200251
      8          1           0        2.370759   -3.309078   -1.562079
      9          1           0        3.706550   -1.202588   -1.320312
     10          1           0        0.936892    0.229482    1.629167
     11          1           0       -0.407933   -1.872336    1.397021
     12          7           0        3.167837    0.841767    0.304015
     13          8           0        2.766526    1.681031    1.107273
     14          8           0        4.174586    0.952984   -0.392206
     15          6           0       -2.655886    1.497261   -0.060594
     16          6           0       -1.323513    1.845434   -0.725082
     17          6           0       -0.899268    3.293139   -0.476162
     18          1           0       -3.433327    2.177982   -0.433623
     19          1           0       -2.576254    1.676249    1.020616
     20          1           0       -1.405201    1.664527   -1.804534
     21          1           0       -0.549194    1.163681   -0.350572
     22          1           0       -0.790035    3.483574    0.596406
     23          1           0       -1.650905    3.987265   -0.865817
     24          1           0        0.055713    3.520495   -0.960082
     25          6           0       -3.093401    0.053375   -0.300386
     26          6           0       -4.425774   -0.294797    0.364102
     27          6           0       -4.850019   -1.742502    0.115182
     28          1           0       -3.173034   -0.125613   -1.381597
     29          1           0       -2.315961   -0.627346    0.072642
     30          1           0       -5.200094    0.386956   -0.010408
     31          1           0       -4.344087   -0.113891    1.443554
     32          1           0       -4.098383   -2.436629    0.504836
     33          1           0       -4.959254   -1.932938   -0.957386
     34          1           0       -5.805002   -1.969859    0.599102
 ---------------------------------------------------------------------

 SCF Done:  E(RHF) =  -669.534626275     A.U. after   15 cycles
 E2 =    -0.2094056356D+01 EUMP2 =    -0.67162868263099D+03

 The electronic state is 1-A.
 Alpha  occ. eigenvalues --  -20.60843 -20.60834 -15.85892 -11.31278 -11.27857
 Alpha  occ. eigenvalues --  -11.27850 -11.27594 -11.26870 -11.26851 -11.22048
 Alpha  occ. eigenvalues --  -11.21775 -11.21637 -11.21576 -11.21477 -11.20732
 Alpha  occ. eigenvalues --   -1.59913  -1.39466  -1.19468  -1.08846  -1.08694
 Alpha  occ. eigenvalues --   -1.04881  -1.03710  -0.96159  -0.95679  -0.87172
 Alpha  occ. eigenvalues --   -0.86267  -0.82514  -0.79799  -0.78499  -0.77548
 Alpha  occ. eigenvalues --   -0.72109  -0.71238  -0.70568  -0.65387  -0.65111
 Alpha  occ. eigenvalues --   -0.64876  -0.62217  -0.61119  -0.59553  -0.57753
 Alpha  occ. eigenvalues --   -0.55475  -0.55358  -0.53252  -0.52973  -0.52790
 Alpha  occ. eigenvalues --   -0.52566  -0.50116  -0.48872  -0.48864  -0.48098
 Alpha  occ. eigenvalues --   -0.46862  -0.46019  -0.45948  -0.44853  -0.43963
 Alpha  occ. eigenvalues --   -0.37416  -0.36366
 Alpha virt. eigenvalues --    0.04957   0.11018   0.16361   0.19992   0.23088
 Alpha virt. eigenvalues --    0.23642   0.25695   0.26958   0.27741   0.28340
 Alpha virt. eigenvalues --    0.29255   0.30250   0.31439   0.31675   0.32217

 Mulliken charges:
               1
     1  C   -0.171142
     2  C   -0.218218
     3  C   -0.170448
     4  C    0.161185
     5  C   -0.175515
     6  C   -0.214760
     7  H    0.226519
     8  H    0.223986
     9  H    0.276050
    10  H    0.276750
    11  H    0.224205
    12  N    0.488352
    13  O   -0.460409
    14  O   -0.460067
    15  C   -0.298296
    16  C   -0.307268
    17  C   -0.474548
    18  H    0.151581
    19  H    0.146612
    20  H    0.151140
    21  H    0.155109
    22  H    0.157475
    23  H    0.152665
    24  H    0.167352
    25  C   -0.300681
    26  C   -0.299935
    27  C   -0.474128
    28  H    0.151085
    29  H    0.143426
    30  H    0.154960
    31  H    0.150690
    32  H    0.147435
    33  H    0.156522
    34  H    0.162317
 Sum of Mulliken charges =  -0.00000

 Dipole moment (field-independent basis, Debye):
    X=             -2.6780    Y=             -4.3311    Z=             -0.5396  Tot=              5.1207
 Quadrupole moment (field-independent basis, Debye-Ang):
   XX=           -106.2867   YY=            -91.9604   ZZ=            -92.3041
   XY=            -11.2684   XZ=             -3.7517   YZ=              0.5373

 Normal termination of Gaussian 16 at Thu May  6 09:22:49 2021.
