 Gaussian 16, Revision A.03,
 Gaussian 16:  EM64L-G16RevA.03 25-Dec-2016

 -------------
 #p 6-31g* mp2
 -------------

 ------------------------------------------------------
 Input file generated by CHIRIPA (05-May-2021 14:57:26)
 ------------------------------------------------------
 Symbolic Z-matrix:
 Charge =  0 Multiplicity = 1

                         Standard orientation:
 ---------------------------------------------------------------------
 Center     Atomic      Atomic             Coordinates (Angstroms)
 Number     Number       Type             X           Y           Z
 ---------------------------------------------------------------------
      1          6           0        1.762196   -2.345725    0.396941
      2          6           0        3.033608   -2.189094    0.958636
      3          6           0        3.812000   -1.068871    0.652442
      4          6           0        3.285456   -0.120549   -0.223187
      5          6           0        2.022331   -0.248225   -0.798950
      6          6           0        1.261499   -1.376500   -0.478516
      7          1           0        1.164343   -3.219069    0.640331
      8          1           0        3.425017   -2.940203    1.638840
      9          1           0        4.799472   -0.922570    1.073053
     10          1           0        1.659137    0.517419   -1.473708
     11          1           0        0.274438   -1.495517   -0.916227
     12          7           0        4.100211    1.069643   -0.554878
     13          8           0        3.613545    1.890847   -1.329099
     14          8           0        5.210053    1.158774   -0.034357
     15          6           0       -1.585641    2.017652    1.179369
     16          6           0       -1.227577    0.665770    1.152421
     17          6           0       -2.087164   -0.285418    0.594837
     18          6           0       -3.302525    0.152265    0.070796
     19          6           0       -3.687677    1.491969    0.082811
     20          6           0       -2.812386    2.425717    0.645419
     21          1           0       -0.911794    2.749784    1.614465
     22          1           0       -0.275508    0.345983    1.566359
     23          1           0       -1.835025   -1.338362    0.560888
     24          1           0       -4.643447    1.780422   -0.337566
     25          1           0       -3.093090    3.474939    0.664975
     26          7           0       -4.220843   -0.845483   -0.522153
     27          8           0       -5.285922   -0.434278   -0.977297
     28          8           0       -3.858155   -2.019830   -0.520535
 ---------------------------------------------------------------------

 SCF Done:  E(RHF) =  -868.337469572     A.U. after   16 cycles
 E2 =    -0.2601819868D+01 EUMP2 =    -0.87093928944048D+03

 The electronic state is 1-A.
 Alpha  occ. eigenvalues --  -20.61363 -20.61354 -20.61341 -20.61308 -15.86415
 Alpha  occ. eigenvalues --  -15.86377 -11.31852 -11.31723 -11.28397 -11.28391
 Alpha  occ. eigenvalues --  -11.28306 -11.28189 -11.28142 -11.27868 -11.27416
 Alpha  occ. eigenvalues --  -11.27390 -11.27196 -11.27176  -1.60438  -1.60401
 Alpha  occ. eigenvalues --   -1.39987  -1.39958  -1.20040  -1.19850  -1.09413
 Alpha  occ. eigenvalues --   -1.09228  -1.05477  -1.05199  -0.96227  -0.96084
 Alpha  occ. eigenvalues --   -0.86825  -0.86625  -0.83076  -0.82882  -0.78156
 Alpha  occ. eigenvalues --   -0.77926  -0.72628  -0.72588  -0.71770  -0.71727
 Alpha  occ. eigenvalues --   -0.71099  -0.70929  -0.65667  -0.65580  -0.65386
 Alpha  occ. eigenvalues --   -0.65150  -0.62880  -0.62455  -0.55898  -0.55685
 Alpha  occ. eigenvalues --   -0.53945  -0.53679  -0.53333  -0.53161  -0.49394
 Alpha  occ. eigenvalues --   -0.49379  -0.49358  -0.49335  -0.45376  -0.45368
 Alpha  occ. eigenvalues --   -0.38056  -0.37833  -0.37375  -0.36428
 Alpha virt. eigenvalues --    0.04323   0.04590   0.10407   0.10829   0.15633
 Alpha virt. eigenvalues --    0.16347   0.20023   0.21628   0.25615   0.27221
 Alpha virt. eigenvalues --    0.27507   0.28871   0.30268   0.30858   0.31472

 Mulliken charges:
               1
     1  C   -0.177050
     2  C   -0.218444
     3  C   -0.171748
     4  C    0.157101
     5  C   -0.173722
     6  C   -0.227502
     7  H    0.230117
     8  H    0.226454
     9  H    0.277412
    10  H    0.278720
    11  H    0.231657
    12  N    0.487738
    13  O   -0.459696
    14  O   -0.458678
    15  C   -0.171899
    16  C   -0.218555
    17  C   -0.180443
    18  C    0.159838
    19  C   -0.171549
    20  C   -0.217167
    21  H    0.230738
    22  H    0.229691
    23  H    0.266297
    24  H    0.277142
    25  H    0.226771
    26  N    0.488433
    27  O   -0.456990
    28  O   -0.464669
 Sum of Mulliken charges =  -0.00000

 Dipole moment (field-independent basis, Debye):
    X=              0.4376    Y=             -0.5264    Z=              3.2628  Tot=              3.3338
 Quadrupole moment (field-independent basis, Debye-Ang):
   XX=           -140.4097   YY=            -99.9302   ZZ=           -104.2456
   XY=            -29.4036   XZ=              1.0936   YZ=             -0.5341

 Normal termination of Gaussian 16 at Thu May  6 09:56:17 2021.
