 Gaussian 16, Revision A.03,
 Gaussian 16:  EM64L-G16RevA.03 25-Dec-2016

 -------------
 #p 6-31g* mp2
 -------------

 ------------------------------------------------------
 Input file generated by CHIRIPA (05-May-2021 14:51:13)
 ------------------------------------------------------
 Symbolic Z-matrix:
 Charge =  0 Multiplicity = 1

                         Standard orientation:
 ---------------------------------------------------------------------
 Center     Atomic      Atomic             Coordinates (Angstroms)
 Number     Number       Type             X           Y           Z
 ---------------------------------------------------------------------
      1          6           0        2.147347   -0.277539   -0.658481
      2          6           0        2.618285   -1.704831   -0.377342
      3          6           0        2.304626   -2.667327   -1.523210
      4          1           0        1.064979   -0.285689   -0.846516
      5          1           0        2.622256    0.082703   -1.581564
      6          1           0        2.143699   -2.061773    0.545684
      7          1           0        3.699626   -1.693255   -0.189765
      8          1           0        2.790989   -2.337910   -2.447081
      9          1           0        1.226221   -2.708521   -1.707453
     10          1           0        2.649871   -3.681907   -1.301190
     11          6           0        2.453789    0.696403    0.477854
     12          6           0        1.982851    2.123695    0.196714
     13          6           0        2.296510    3.086191    1.342582
     14          1           0        1.978880    0.336161    1.400937
     15          1           0        3.536157    0.704554    0.665889
     16          1           0        0.901510    2.112120    0.009138
     17          1           0        2.457438    2.480637   -0.726311
     18          1           0        3.374915    3.127386    1.526826
     19          1           0        1.810148    2.756774    2.266453
     20          1           0        1.951266    4.100771    1.120562
     21          6           0       -2.520382    0.228512   -0.495621
     22          6           0       -2.482820    1.724574   -0.181972
     23          6           0       -2.925298    2.587670   -1.363950
     24          1           0       -1.875327    0.025563   -1.361449
     25          1           0       -3.540442   -0.051093   -0.793436
     26          1           0       -1.463447    2.001001    0.116498
     27          1           0       -3.127890    1.923956    0.683330
     28          1           0       -3.950182    2.340493   -1.659106
     29          1           0       -2.276283    2.417976   -2.229158
     30          1           0       -2.890829    3.653555   -1.117858
     31          6           0       -2.080754   -0.647377    0.676247
     32          6           0       -2.118317   -2.143438    0.362599
     33          6           0       -1.675838   -3.006534    1.544578
     34          1           0       -1.060695   -0.367771    0.974064
     35          1           0       -2.725810   -0.444427    1.542077
     36          1           0       -1.473247   -2.342821   -0.502703
     37          1           0       -3.137688   -2.419866    0.064130
     38          1           0       -2.324852   -2.836841    2.409786
     39          1           0       -0.650954   -2.759357    1.839734
     40          1           0       -1.710306   -4.072419    1.298486
 ---------------------------------------------------------------------

 SCF Done:  E(RHF) =  -470.733244614     A.U. after   11 cycles
 E2 =    -0.1585023316D+01 EUMP2 =    -0.47231826793015D+03

 The electronic state is 1-A.
 Alpha  occ. eigenvalues --  -11.21676 -11.21666 -11.21645 -11.21640 -11.21474
 Alpha  occ. eigenvalues --  -11.21473 -11.21414 -11.21413 -11.21132 -11.21125
 Alpha  occ. eigenvalues --  -11.21105 -11.21096  -1.08546  -1.08450  -1.03618
 Alpha  occ. eigenvalues --   -1.03553  -0.96057  -0.96007  -0.87055  -0.87041
 Alpha  occ. eigenvalues --   -0.79699  -0.79609  -0.78340  -0.78285  -0.65541
 Alpha  occ. eigenvalues --   -0.64737  -0.61267  -0.60722  -0.59415  -0.59382
 Alpha  occ. eigenvalues --   -0.57648  -0.57639  -0.55508  -0.55143  -0.52729
 Alpha  occ. eigenvalues --   -0.52714  -0.52494  -0.52416  -0.50004  -0.49972
 Alpha  occ. eigenvalues --   -0.48131  -0.47848  -0.46866  -0.46565  -0.46142
 Alpha  occ. eigenvalues --   -0.45801  -0.45721  -0.45410  -0.43848  -0.43831
 Alpha virt. eigenvalues --    0.17839   0.21480   0.23130   0.25021   0.25574
 Alpha virt. eigenvalues --    0.26015   0.26716   0.27787   0.28304   0.29991
 Alpha virt. eigenvalues --    0.30864   0.31603   0.31612   0.32045   0.32402

 Mulliken charges:
               1
     1  C   -0.303034
     2  C   -0.300701
     3  C   -0.477599
     4  H    0.153179
     5  H    0.149980
     6  H    0.152731
     7  H    0.152488
     8  H    0.155373
     9  H    0.156452
    10  H    0.160844
    11  C   -0.298505
    12  C   -0.309101
    13  C   -0.475325
    14  H    0.149603
    15  H    0.150302
    16  H    0.159699
    17  H    0.152387
    18  H    0.155431
    19  H    0.155400
    20  H    0.160451
    21  C   -0.299532
    22  C   -0.308209
    23  C   -0.475442
    24  H    0.150438
    25  H    0.150196
    26  H    0.159195
    27  H    0.152420
    28  H    0.155348
    29  H    0.155593
    30  H    0.160411
    31  C   -0.301569
    32  C   -0.302173
    33  C   -0.476604
    34  H    0.151533
    35  H    0.150313
    36  H    0.153535
    37  H    0.152593
    38  H    0.155437
    39  H    0.155597
    40  H    0.160865
 Sum of Mulliken charges =  -0.00000

 Dipole moment (field-independent basis, Debye):
    X=             -0.0034    Y=              0.0050    Z=             -0.0019  Tot=              0.0063
 Quadrupole moment (field-independent basis, Debye-Ang):
   XX=            -82.9992   YY=            -85.8979   ZZ=            -85.6094
   XY=              0.3422   XZ=             -1.0683   YZ=             -0.1381

 Normal termination of Gaussian 16 at Wed May  5 19:59:04 2021.
