 Gaussian 16, Revision A.03,
 Gaussian 16:  EM64L-G16RevA.03 25-Dec-2016

 -------------
 #p 6-31g* mp2
 -------------

 ------------------------------------------------------
 Input file generated by CHIRIPA (05-May-2021 14:55:25)
 ------------------------------------------------------
 Symbolic Z-matrix:
 Charge =  0 Multiplicity = 1

                         Standard orientation:
 ---------------------------------------------------------------------
 Center     Atomic      Atomic             Coordinates (Angstroms)
 Number     Number       Type             X           Y           Z
 ---------------------------------------------------------------------
      1          6           0       -4.017985    1.872118   -0.877973
      2          6           0       -3.042776    2.271158    0.041947
      3          6           0       -2.279713    1.319700    0.725328
      4          6           0       -2.519379   -0.028318    0.463224
      5          6           0       -3.483706   -0.457368   -0.447424
      6          6           0       -4.234956    0.511527   -1.119297
      7          1           0       -4.606163    2.618006   -1.404371
      8          1           0       -2.872101    3.327111    0.231366
      9          1           0       -1.518298    1.600849    1.442698
     10          1           0       -3.630947   -1.517374   -0.615130
     11          1           0       -4.991642    0.198716   -1.833175
     12          7           0       -1.717812   -1.044815    1.180598
     13          8           0       -1.948289   -2.226189    0.931857
     14          8           0       -0.874244   -0.640922    1.978032
     15          6           0        3.790123    0.474832   -0.442978
     16          6           0        5.051692    0.420465    0.419271
     17          6           0        5.833638    1.734309    0.406340
     18          1           0        4.069708    0.726639   -1.475146
     19          1           0        3.145342    1.289874   -0.086104
     20          1           0        5.693265   -0.395120    0.061749
     21          1           0        4.769091    0.168568    1.449465
     22          1           0        5.214467    2.554839    0.783112
     23          1           0        6.143893    1.987948   -0.612488
     24          1           0        6.731558    1.673238    1.029132
     25          6           0        2.997684   -0.831216   -0.440203
     26          6           0        1.736116   -0.776849   -1.302451
     27          6           0        0.954169   -2.090693   -1.289520
     28          1           0        3.642465   -1.646258   -0.797076
     29          1           0        2.718100   -1.083024    0.591965
     30          1           0        2.018716   -0.524953   -2.332645
     31          1           0        1.094542    0.038735   -0.944929
     32          1           0        0.643914   -2.344333   -0.270692
     33          1           0        1.573340   -2.911224   -1.666294
     34          1           0        0.056249   -2.029623   -1.912313
 ---------------------------------------------------------------------

 SCF Done:  E(RHF) =  -669.536352318     A.U. after   15 cycles
 E2 =    -0.2092226242D+01 EUMP2 =    -0.67162857855961D+03

 The electronic state is 1-A.
 Alpha  occ. eigenvalues --  -20.60955 -20.60942 -15.85962 -11.31294 -11.27853
 Alpha  occ. eigenvalues --  -11.27841 -11.27583 -11.26855 -11.26845 -11.21133
 Alpha  occ. eigenvalues --  -11.20927 -11.20864 -11.20732 -11.20632 -11.20081
 Alpha  occ. eigenvalues --   -1.60004  -1.39558  -1.19453  -1.08858  -1.07821
 Alpha  occ. eigenvalues --   -1.04849  -1.02924  -0.95702  -0.95356  -0.86368
 Alpha  occ. eigenvalues --   -0.86249  -0.82537  -0.78998  -0.77627  -0.77591
 Alpha  occ. eigenvalues --   -0.72189  -0.71342  -0.70561  -0.65109  -0.64852
 Alpha  occ. eigenvalues --   -0.64438  -0.62196  -0.60303  -0.58753  -0.56980
 Alpha  occ. eigenvalues --   -0.55356  -0.54620  -0.53179  -0.52941  -0.52069
 Alpha  occ. eigenvalues --   -0.51773  -0.49348  -0.48955  -0.48890  -0.47300
 Alpha  occ. eigenvalues --   -0.46066  -0.45183  -0.45121  -0.44841  -0.43168
 Alpha  occ. eigenvalues --   -0.37422  -0.36446
 Alpha virt. eigenvalues --    0.04899   0.11172   0.16384   0.21317   0.23393
 Alpha virt. eigenvalues --    0.24763   0.27066   0.27309   0.28093   0.28260
 Alpha virt. eigenvalues --    0.28644   0.30916   0.31869   0.32128   0.32427

 Mulliken charges:
               1
     1  C   -0.170460
     2  C   -0.218400
     3  C   -0.171471
     4  C    0.160114
     5  C   -0.170925
     6  C   -0.218539
     7  H    0.226046
     8  H    0.223864
     9  H    0.275591
    10  H    0.276179
    11  H    0.223893
    12  N    0.488778
    13  O   -0.458333
    14  O   -0.461484
    15  C   -0.297132
    16  C   -0.299754
    17  C   -0.475195
    18  H    0.146537
    19  H    0.147100
    20  H    0.151391
    21  H    0.154586
    22  H    0.153549
    23  H    0.153595
    24  H    0.159417
    25  C   -0.300162
    26  C   -0.297539
    27  C   -0.486033
    28  H    0.147632
    29  H    0.160633
    30  H    0.146569
    31  H    0.145810
    32  H    0.179168
    33  H    0.152485
    34  H    0.152491
 Sum of Mulliken charges =  -0.00000

 Dipole moment (field-independent basis, Debye):
    X=             -3.0007    Y=              3.4855    Z=             -2.3666  Tot=              5.1724
 Quadrupole moment (field-independent basis, Debye-Ang):
   XX=            -80.2950   YY=            -93.1255   ZZ=            -96.2504
   XY=             -8.0970   XZ=              6.4461   YZ=              3.7079

 Normal termination of Gaussian 16 at Thu May  6 19:23:18 2021.
