 Gaussian 16, Revision A.03,
 Gaussian 16:  EM64L-G16RevA.03 25-Dec-2016

 -------------
 #p 6-31g* mp2
 -------------

 ------------------------------------------------------
 Input file generated by CHIRIPA (05-May-2021 14:51:07)
 ------------------------------------------------------
 Symbolic Z-matrix:
 Charge =  0 Multiplicity = 1

                         Standard orientation:
 ---------------------------------------------------------------------
 Center     Atomic      Atomic             Coordinates (Angstroms)
 Number     Number       Type             X           Y           Z
 ---------------------------------------------------------------------
      1          6           0       -3.021322   -0.525701   -0.677948
      2          6           0       -3.700442   -1.637016    0.123151
      3          6           0       -3.591614   -3.004144   -0.552801
      4          1           0       -3.469979   -0.477822   -1.679626
      5          1           0       -1.962394   -0.781462   -0.821657
      6          1           0       -4.757455   -1.378572    0.266494
      7          1           0       -3.250247   -1.682129    1.123103
      8          1           0       -2.542054   -3.287725   -0.681667
      9          1           0       -4.057825   -2.982444   -1.543144
     10          1           0       -4.083773   -3.783858    0.036847
     11          6           0       -3.121614    0.846973   -0.015049
     12          6           0       -2.442494    1.958289   -0.816148
     13          6           0       -2.551322    3.325417   -0.140196
     14          1           0       -4.180542    1.102735    0.128660
     15          1           0       -2.672957    0.799094    0.986629
     16          1           0       -2.892689    2.003401   -1.816100
     17          1           0       -1.385482    1.699845   -0.959491
     18          1           0       -2.085111    3.303717    0.850146
     19          1           0       -3.600882    3.608998   -0.011330
     20          1           0       -2.059163    4.105131   -0.729844
     21          6           0        2.320532   -0.299839    0.358718
     22          6           0        1.661505    0.045355    1.694573
     23          6           0        0.159152   -0.238636    1.703438
     24          1           0        1.832970    0.272671   -0.442195
     25          1           0        2.145766   -1.361361    0.135059
     26          1           0        1.838644    1.105577    1.916315
     27          1           0        2.150820   -0.527899    2.492425
     28          1           0       -0.033765   -1.298284    1.507147
     29          1           0       -0.347715    0.344473    0.927763
     30          1           0       -0.291745    0.015324    2.667831
     31          6           0        3.822404   -0.021433    0.334279
     32          6           0        4.481431   -0.366628   -1.001576
     33          6           0        5.983783   -0.082637   -1.010440
     34          1           0        3.997170    1.040089    0.557939
     35          1           0        4.309966   -0.593943    1.135191
     36          1           0        3.992116    0.206626   -1.799427
     37          1           0        4.304293   -1.426850   -1.223317
     38          1           0        6.490651   -0.665746   -0.234766
     39          1           0        6.176701    0.977011   -0.814149
     40          1           0        6.434682   -0.336597   -1.974834
 ---------------------------------------------------------------------

 SCF Done:  E(RHF) =  -470.732435836     A.U. after   11 cycles
 E2 =    -0.1584271651D+01 EUMP2 =    -0.47231670748769D+03

 The electronic state is 1-A.
 Alpha  occ. eigenvalues --  -11.21669 -11.21634 -11.21613 -11.21522 -11.21468
 Alpha  occ. eigenvalues --  -11.21403 -11.21302 -11.21242 -11.21135 -11.21095
 Alpha  occ. eigenvalues --  -11.21079 -11.21023  -1.08501  -1.08369  -1.03593
 Alpha  occ. eigenvalues --   -1.03494  -0.96074  -0.95912  -0.87079  -0.86949
 Alpha  occ. eigenvalues --   -0.79669  -0.79554  -0.78303  -0.78185  -0.65269
 Alpha  occ. eigenvalues --   -0.64946  -0.61149  -0.60743  -0.59414  -0.59305
 Alpha  occ. eigenvalues --   -0.57653  -0.57544  -0.55469  -0.55105  -0.52746
 Alpha  occ. eigenvalues --   -0.52641  -0.52458  -0.52337  -0.50142  -0.49721
 Alpha  occ. eigenvalues --   -0.47978  -0.47877  -0.46683  -0.46593  -0.45954
 Alpha  occ. eigenvalues --   -0.45771  -0.45655  -0.45515  -0.43829  -0.43732
 Alpha virt. eigenvalues --    0.20408   0.22856   0.23612   0.24694   0.25976
 Alpha virt. eigenvalues --    0.26151   0.27007   0.27818   0.28097   0.30031
 Alpha virt. eigenvalues --    0.30212   0.31374   0.31727   0.31834   0.32287

 Mulliken charges:
               1
     1  C   -0.298927
     2  C   -0.300658
     3  C   -0.475682
     4  H    0.149033
     5  H    0.151551
     6  H    0.151510
     7  H    0.153654
     8  H    0.154810
     9  H    0.155003
    10  H    0.159931
    11  C   -0.304714
    12  C   -0.302111
    13  C   -0.475745
    14  H    0.150319
    15  H    0.155325
    16  H    0.152716
    17  H    0.151043
    18  H    0.155310
    19  H    0.155606
    20  H    0.159955
    21  C   -0.298880
    22  C   -0.299890
    23  C   -0.484429
    24  H    0.149304
    25  H    0.149511
    26  H    0.152130
    27  H    0.152144
    28  H    0.155651
    29  H    0.165849
    30  H    0.159837
    31  C   -0.298296
    32  C   -0.299737
    33  C   -0.475757
    34  H    0.149743
    35  H    0.149894
    36  H    0.152092
    37  H    0.151999
    38  H    0.155229
    39  H    0.155266
    40  H    0.160413
 Sum of Mulliken charges =  -0.00000

 Dipole moment (field-independent basis, Debye):
    X=              0.0229    Y=              0.0031    Z=              0.0220  Tot=              0.0319
 Quadrupole moment (field-independent basis, Debye-Ang):
   XX=            -85.2047   YY=            -85.0342   ZZ=            -84.6057
   XY=             -0.5363   XZ=              0.6110   YZ=             -0.7651

 Normal termination of Gaussian 16 at Wed May  5 19:38:19 2021.
