 Gaussian 16, Revision A.03,
 Gaussian 16:  EM64L-G16RevA.03 25-Dec-2016

 -------------
 #p 6-31g* mp2
 -------------

 ------------------------------------------------------
 Input file generated by CHIRIPA (05-May-2021 14:55:24)
 ------------------------------------------------------
 Symbolic Z-matrix:
 Charge =  0 Multiplicity = 1

                         Standard orientation:
 ---------------------------------------------------------------------
 Center     Atomic      Atomic             Coordinates (Angstroms)
 Number     Number       Type             X           Y           Z
 ---------------------------------------------------------------------
      1          6           0       -3.721829   -2.334563    0.609987
      2          6           0       -2.717631   -1.742483    1.383000
      3          6           0       -2.225647   -0.474920    1.057759
      4          6           0       -2.763004    0.175110   -0.052196
      5          6           0       -3.764006   -0.388429   -0.841948
      6          6           0       -4.240896   -1.656841   -0.498066
      7          1           0       -4.098152   -3.319566    0.869883
      8          1           0       -2.312649   -2.266480    2.244082
      9          1           0       -1.448668    0.006712    1.638923
     10          1           0       -4.148030    0.158478   -1.694495
     11          1           0       -5.020815   -2.114219   -1.100210
     12          7           0       -2.250151    1.517471   -0.406382
     13          8           0       -2.740181    2.069412   -1.389168
     14          8           0       -1.367859    1.992256    0.305501
     15          6           0        4.022002   -0.571785    0.200017
     16          6           0        4.121830   -1.613697   -0.914631
     17          6           0        4.879122   -2.870017   -0.483396
     18          1           0        5.033835   -0.297179    0.528240
     19          1           0        3.522741   -1.021710    1.069327
     20          1           0        4.619515   -1.161525   -1.782079
     21          1           0        3.109646   -1.885712   -1.240371
     22          1           0        4.381411   -3.346921    0.367160
     23          1           0        5.899859   -2.618619   -0.177625
     24          1           0        4.938627   -3.601459   -1.295376
     25          6           0        3.267669    0.689873   -0.215832
     26          6           0        3.167841    1.731785    0.898815
     27          6           0        2.410548    2.988104    0.467582
     28          1           0        3.766930    1.139798   -1.085143
     29          1           0        2.255836    0.415267   -0.544056
     30          1           0        4.180025    2.003800    1.224557
     31          1           0        2.670156    1.279613    1.766263
     32          1           0        1.389811    2.736707    0.161810
     33          1           0        2.908260    3.465009   -0.382976
     34          1           0        2.351043    3.719547    1.279561
 ---------------------------------------------------------------------

 SCF Done:  E(RHF) =  -669.536190685     A.U. after   15 cycles
 E2 =    -0.2090971415D+01 EUMP2 =    -0.67162716210025D+03

 The electronic state is 1-A.
 Alpha  occ. eigenvalues --  -20.60984 -20.60973 -15.86013 -11.31324 -11.27887
 Alpha  occ. eigenvalues --  -11.27881 -11.27619 -11.26890 -11.26880 -11.21385
 Alpha  occ. eigenvalues --  -11.21054 -11.20960 -11.20856 -11.20786 -11.19775
 Alpha  occ. eigenvalues --   -1.60040  -1.39597  -1.19491  -1.08896  -1.07957
 Alpha  occ. eigenvalues --   -1.04885  -1.02969  -0.95742  -0.95392  -0.86405
 Alpha  occ. eigenvalues --   -0.86285  -0.82574  -0.79070  -0.77739  -0.77624
 Alpha  occ. eigenvalues --   -0.72237  -0.71354  -0.70599  -0.65148  -0.64887
 Alpha  occ. eigenvalues --   -0.64596  -0.62233  -0.60360  -0.58832  -0.57003
 Alpha  occ. eigenvalues --   -0.55389  -0.54666  -0.53218  -0.52977  -0.52082
 Alpha  occ. eigenvalues --   -0.51809  -0.49367  -0.48993  -0.48941  -0.47359
 Alpha  occ. eigenvalues --   -0.46124  -0.45302  -0.45237  -0.44883  -0.43241
 Alpha  occ. eigenvalues --   -0.37468  -0.36487
 Alpha virt. eigenvalues --    0.04872   0.11167   0.16348   0.21239   0.23237
 Alpha virt. eigenvalues --    0.24844   0.26886   0.27332   0.27926   0.28248
 Alpha virt. eigenvalues --    0.28764   0.30819   0.31831   0.32209   0.32515

 Mulliken charges:
               1
     1  C   -0.170553
     2  C   -0.218515
     3  C   -0.171051
     4  C    0.157775
     5  C   -0.170583
     6  C   -0.218555
     7  H    0.226160
     8  H    0.223956
     9  H    0.275644
    10  H    0.275992
    11  H    0.223968
    12  N    0.491089
    13  O   -0.458248
    14  O   -0.463031
    15  C   -0.297173
    16  C   -0.299046
    17  C   -0.475108
    18  H    0.149137
    19  H    0.145232
    20  H    0.152731
    21  H    0.150285
    22  H    0.152679
    23  H    0.155397
    24  H    0.159069
    25  C   -0.298096
    26  C   -0.297571
    27  C   -0.486530
    28  H    0.149552
    29  H    0.150631
    30  H    0.147729
    31  H    0.146605
    32  H    0.183376
    33  H    0.150260
    34  H    0.156790
 Sum of Mulliken charges =  -0.00000

 Dipole moment (field-independent basis, Debye):
    X=             -2.0774    Y=             -4.6730    Z=              1.1836  Tot=              5.2492
 Quadrupole moment (field-independent basis, Debye-Ang):
   XX=            -83.3739   YY=            -97.9244   ZZ=            -92.2336
   XY=             13.7524   XZ=             -1.0525   YZ=              0.1276

 Normal termination of Gaussian 16 at Thu May  6 04:44:51 2021.
