 Gaussian 16, Revision A.03,
 Gaussian 16:  EM64L-G16RevA.03 25-Dec-2016

 -------------
 #p 6-31g* mp2
 -------------

 ------------------------------------------------------
 Input file generated by CHIRIPA (05-May-2021 14:57:23)
 ------------------------------------------------------
 Symbolic Z-matrix:
 Charge =  0 Multiplicity = 1

                         Standard orientation:
 ---------------------------------------------------------------------
 Center     Atomic      Atomic             Coordinates (Angstroms)
 Number     Number       Type             X           Y           Z
 ---------------------------------------------------------------------
      1          6           0       -6.463302    1.013937   -0.103930
      2          6           0       -6.154849    0.139568    0.943380
      3          6           0       -4.890655   -0.451690    1.025696
      4          6           0       -3.954741   -0.144915    0.039164
      5          6           0       -4.231857    0.722230   -1.016561
      6          6           0       -5.502515    1.301970   -1.078839
      7          1           0       -7.447868    1.468767   -0.160092
      8          1           0       -6.899034   -0.085953    1.701913
      9          1           0       -4.625211   -1.132136    1.825665
     10          1           0       -3.469218    0.927744   -1.757886
     11          1           0       -5.739270    1.980646   -1.893327
     12          7           0       -2.612974   -0.764756    0.115701
     13          8           0       -1.805993   -0.478195   -0.765945
     14          8           0       -2.393685   -1.525412    1.055888
     15          6           0        3.169628   -2.219494   -0.511932
     16          6           0        2.352135   -1.085520   -0.463675
     17          6           0        2.898818    0.172978   -0.195588
     18          6           0        4.273161    0.261464    0.020375
     19          6           0        5.113884   -0.849733   -0.021061
     20          6           0        4.545468   -2.098196   -0.290861
     21          1           0        2.736510   -3.193227   -0.720853
     22          1           0        1.283311   -1.176729   -0.634964
     23          1           0        2.289091    1.067284   -0.152369
     24          1           0        6.175872   -0.727268    0.153874
     25          1           0        5.182769   -2.977134   -0.327722
     26          7           0        4.863414    1.588467    0.305093
     27          8           0        6.077142    1.639792    0.491823
     28          8           0        4.101151    2.552120    0.336133
 ---------------------------------------------------------------------

 SCF Done:  E(RHF) =  -868.340942899     A.U. after   16 cycles
 E2 =    -0.2598187270D+01 EUMP2 =    -0.87093913016870D+03

 The electronic state is 1-A.
 Alpha  occ. eigenvalues --  -20.61721 -20.61716 -20.59969 -20.59962 -15.86720
 Alpha  occ. eigenvalues --  -15.85008 -11.31773 -11.30156 -11.28301 -11.28296
 Alpha  occ. eigenvalues --  -11.27985 -11.27245 -11.27235 -11.26728 -11.26576
 Alpha  occ. eigenvalues --  -11.26326 -11.25735 -11.25379  -1.60768  -1.59047
 Alpha  occ. eigenvalues --   -1.40329  -1.38606  -1.19914  -1.18277  -1.09369
 Alpha  occ. eigenvalues --   -1.07712  -1.05268  -1.03617  -0.96256  -0.94594
 Alpha  occ. eigenvalues --   -0.86681  -0.85024  -0.83100  -0.81413  -0.78180
 Alpha  occ. eigenvalues --   -0.76491  -0.72956  -0.72056  -0.71235  -0.71017
 Alpha  occ. eigenvalues --   -0.70365  -0.69392  -0.65570  -0.65268  -0.63913
 Alpha  occ. eigenvalues --   -0.63567  -0.62618  -0.60943  -0.55781  -0.54135
 Alpha  occ. eigenvalues --   -0.53613  -0.53355  -0.51998  -0.51674  -0.49717
 Alpha  occ. eigenvalues --   -0.49683  -0.48001  -0.47964  -0.45799  -0.44061
 Alpha  occ. eigenvalues --   -0.37874  -0.36855  -0.36261  -0.35219
 Alpha virt. eigenvalues --    0.04335   0.05986   0.10805   0.12428   0.15896
 Alpha virt. eigenvalues --    0.17554   0.20972   0.22687   0.26909   0.27813
 Alpha virt. eigenvalues --    0.28740   0.29391   0.30572   0.31984   0.32362

 Mulliken charges:
               1
     1  C   -0.169576
     2  C   -0.218555
     3  C   -0.170164
     4  C    0.157541
     5  C   -0.170261
     6  C   -0.218456
     7  H    0.227924
     8  H    0.225409
     9  H    0.276246
    10  H    0.275701
    11  H    0.225683
    12  N    0.490218
    13  O   -0.469092
    14  O   -0.458381
    15  C   -0.172442
    16  C   -0.227110
    17  C   -0.174028
    18  C    0.158075
    19  C   -0.173706
    20  C   -0.218629
    21  H    0.225333
    22  H    0.250319
    23  H    0.275241
    24  H    0.271602
    25  H    0.219288
    26  N    0.488158
    27  O   -0.463802
    28  O   -0.462534
 Sum of Mulliken charges =  -0.00000

 Dipole moment (field-independent basis, Debye):
    X=             -7.4625    Y=             -2.5196    Z=             -1.2703  Tot=              7.9781
 Quadrupole moment (field-independent basis, Debye-Ang):
   XX=            -81.8286   YY=           -107.1514   ZZ=           -102.4290
   XY=            -30.4647   XZ=             -4.5364   YZ=             -2.8551

 Normal termination of Gaussian 16 at Thu May  6 01:51:56 2021.
