 Gaussian 16, Revision A.03,
 Gaussian 16:  EM64L-G16RevA.03 25-Dec-2016

 -------------
 #p 6-31g* mp2
 -------------

 ------------------------------------------------------
 Input file generated by CHIRIPA (05-May-2021 14:55:23)
 ------------------------------------------------------
 Symbolic Z-matrix:
 Charge =  0 Multiplicity = 1

                         Standard orientation:
 ---------------------------------------------------------------------
 Center     Atomic      Atomic             Coordinates (Angstroms)
 Number     Number       Type             X           Y           Z
 ---------------------------------------------------------------------
      1          6           0        0.644601   -0.721118    0.400557
      2          6           0        1.254854   -0.952617   -0.836585
      3          6           0        2.599109   -0.625273   -1.037514
      4          6           0        3.306465   -0.065427    0.025270
      5          6           0        2.726660    0.177356    1.269526
      6          6           0        1.381154   -0.157863    1.447818
      7          1           0       -0.400134   -0.978465    0.547850
      8          1           0        0.685288   -1.389924   -1.651694
      9          1           0        3.096433   -0.793785   -1.984979
     10          1           0        3.320248    0.614590    2.063188
     11          1           0        0.909832    0.023045    2.409677
     12          7           0        4.730230    0.285286   -0.175461
     13          8           0        5.331616    0.777411    0.776791
     14          8           0        5.217832    0.061410   -1.281247
     15          6           0       -3.583682   -0.521005   -0.113150
     16          6           0       -4.521417   -1.699479    0.151117
     17          6           0       -3.810100   -3.050535    0.070672
     18          1           0       -3.128117   -0.638609   -1.105911
     19          1           0       -2.760049   -0.546652    0.613738
     20          1           0       -5.343784   -1.670825   -0.575179
     21          1           0       -4.974948   -1.578957    1.143285
     22          1           0       -3.001045   -3.104347    0.806291
     23          1           0       -3.371976   -3.196735   -0.921938
     24          1           0       -4.498992   -3.879007    0.262818
     25          6           0       -4.280155    0.836470   -0.036234
     26          6           0       -3.342420    2.014944   -0.300501
     27          6           0       -4.053737    3.365999   -0.220056
     28          1           0       -5.103789    0.862116   -0.763122
     29          1           0       -4.735720    0.954074    0.956527
     30          1           0       -2.888888    1.894422   -1.292670
     31          1           0       -2.520052    1.986289    0.425794
     32          1           0       -4.491860    3.512200    0.772553
     33          1           0       -4.862793    3.419811   -0.955675
     34          1           0       -3.364844    4.194472   -0.412203
 ---------------------------------------------------------------------

 SCF Done:  E(RHF) =  -669.535588199     A.U. after   15 cycles
 E2 =    -0.2091353213D+01 EUMP2 =    -0.67162694141216D+03

 The electronic state is 1-A.
 Alpha  occ. eigenvalues --  -20.60711 -20.60705 -15.85765 -11.31113 -11.27690
 Alpha  occ. eigenvalues --  -11.27683 -11.27371 -11.26693 -11.26677 -11.22626
 Alpha  occ. eigenvalues --  -11.22563 -11.22377 -11.22261 -11.22092 -11.21671
 Alpha  occ. eigenvalues --   -1.59787  -1.39341  -1.19284  -1.09407  -1.08675
 Alpha  occ. eigenvalues --   -1.04689  -1.04406  -0.96871  -0.95515  -0.87880
 Alpha  occ. eigenvalues --   -0.86084  -0.82356  -0.80482  -0.79248  -0.77405
 Alpha  occ. eigenvalues --   -0.71982  -0.71110  -0.70392  -0.66034  -0.64934
 Alpha  occ. eigenvalues --   -0.64695  -0.62041  -0.61795  -0.60240  -0.58486
 Alpha  occ. eigenvalues --   -0.56185  -0.55193  -0.53511  -0.53284  -0.53013
 Alpha  occ. eigenvalues --   -0.52781  -0.50810  -0.48798  -0.48738  -0.48732
 Alpha  occ. eigenvalues --   -0.47522  -0.46742  -0.46681  -0.44750  -0.44692
 Alpha  occ. eigenvalues --   -0.37249  -0.36299
 Alpha virt. eigenvalues --    0.05125   0.11352   0.16585   0.19509   0.22559
 Alpha virt. eigenvalues --    0.23508   0.24706   0.25989   0.27120   0.27552
 Alpha virt. eigenvalues --    0.29725   0.30096   0.31030   0.31184   0.31728

 Mulliken charges:
               1
     1  C   -0.175848
     2  C   -0.221245
     3  C   -0.170791
     4  C    0.158171
     5  C   -0.170696
     6  C   -0.221328
     7  H    0.236323
     8  H    0.223575
     9  H    0.275237
    10  H    0.275250
    11  H    0.222625
    12  N    0.488039
    13  O   -0.460708
    14  O   -0.460667
    15  C   -0.302902
    16  C   -0.299645
    17  C   -0.477196
    18  H    0.148562
    19  H    0.142061
    20  H    0.156296
    21  H    0.154725
    22  H    0.151019
    23  H    0.154450
    24  H    0.165794
    25  C   -0.298162
    26  C   -0.300141
    27  C   -0.476373
    28  H    0.153215
    29  H    0.151660
    30  H    0.152929
    31  H    0.149644
    32  H    0.156016
    33  H    0.156841
    34  H    0.163270
 Sum of Mulliken charges =  -0.00000

 Dipole moment (field-independent basis, Debye):
    X=             -5.2928    Y=             -1.1919    Z=              0.6657  Tot=              5.4661
 Quadrupole moment (field-independent basis, Debye-Ang):
   XX=           -127.7085   YY=            -95.5300   ZZ=            -89.3545
   XY=             -3.2751   XZ=              2.8151   YZ=              1.7475

 Normal termination of Gaussian 16 at Wed May  5 23:57:16 2021.
