 Gaussian 16, Revision A.03,
 Gaussian 16:  EM64L-G16RevA.03 25-Dec-2016

 -------------
 #p 6-31g* mp2
 -------------

 ------------------------------------------------------
 Input file generated by CHIRIPA (05-May-2021 14:55:20)
 ------------------------------------------------------
 Symbolic Z-matrix:
 Charge =  0 Multiplicity = 1

                         Standard orientation:
 ---------------------------------------------------------------------
 Center     Atomic      Atomic             Coordinates (Angstroms)
 Number     Number       Type             X           Y           Z
 ---------------------------------------------------------------------
      1          6           0        2.265182   -2.198550    0.775305
      2          6           0        2.218643   -1.810552   -0.567756
      3          6           0        2.605339   -0.522089   -0.948384
      4          6           0        3.035286    0.356716    0.044660
      5          6           0        3.092845   -0.000094    1.391012
      6          6           0        2.701366   -1.293678    1.748687
      7          1           0        1.962930   -3.201449    1.062070
      8          1           0        1.880326   -2.511184   -1.325846
      9          1           0        2.579185   -0.195452   -1.980877
     10          1           0        3.434611    0.720494    2.124065
     11          1           0        2.738543   -1.592250    2.792486
     12          7           0        3.447196    1.723465   -0.346143
     13          8           0        3.822168    2.478982    0.547852
     14          8           0        3.387279    2.013327   -1.539050
     15          6           0       -4.094199    0.535394   -0.112810
     16          6           0       -5.500260    0.579458    0.486386
     17          6           0       -6.078826    1.993975    0.533232
     18          1           0       -3.431401    1.184893    0.475234
     19          1           0       -4.122517    0.954771   -1.128052
     20          1           0       -5.469557    0.158850    1.499679
     21          1           0       -6.159742   -0.070371   -0.103037
     22          1           0       -6.138424    2.419360   -0.473792
     23          1           0       -5.444316    2.649884    1.138032
     24          1           0       -7.084452    2.002305    0.965098
     25          6           0       -3.502342   -0.871930   -0.166408
     26          6           0       -2.096280   -0.915994   -0.765605
     27          6           0       -1.517715   -2.330512   -0.812451
     28          1           0       -3.474023   -1.291306    0.848834
     29          1           0       -4.165139   -1.521429   -0.754452
     30          1           0       -1.436798   -0.266164   -0.176180
     31          1           0       -2.126983   -0.495386   -1.778898
     32          1           0       -2.152224   -2.986420   -1.417249
     33          1           0       -1.458118   -2.755896    0.194574
     34          1           0       -0.512089   -2.338840   -1.244317
 ---------------------------------------------------------------------

 SCF Done:  E(RHF) =  -669.534844520     A.U. after   15 cycles
 E2 =    -0.2092029505D+01 EUMP2 =    -0.67162687402460D+03

 The electronic state is 1-A.
 Alpha  occ. eigenvalues --  -20.60783 -20.60778 -15.85838 -11.31216 -11.27786
 Alpha  occ. eigenvalues --  -11.27783 -11.27524 -11.26804 -11.26793 -11.21954
 Alpha  occ. eigenvalues --  -11.21742 -11.21671 -11.21652 -11.21534 -11.21146
 Alpha  occ. eigenvalues --   -1.59859  -1.39412  -1.19394  -1.08788  -1.08673
 Alpha  occ. eigenvalues --   -1.04807  -1.03806  -0.96279  -0.95612  -0.87313
 Alpha  occ. eigenvalues --   -0.86192  -0.82451  -0.79874  -0.78468  -0.77499
 Alpha  occ. eigenvalues --   -0.72056  -0.71182  -0.70488  -0.65305  -0.65045
 Alpha  occ. eigenvalues --   -0.64847  -0.62189  -0.61201  -0.59663  -0.57887
 Alpha  occ. eigenvalues --   -0.55569  -0.55289  -0.53366  -0.52995  -0.52797
 Alpha  occ. eigenvalues --   -0.52516  -0.50209  -0.48817  -0.48809  -0.48184
 Alpha  occ. eigenvalues --   -0.46890  -0.46017  -0.45928  -0.44815  -0.44068
 Alpha  occ. eigenvalues --   -0.37341  -0.36369
 Alpha virt. eigenvalues --    0.05033   0.11176   0.16457   0.20791   0.22723
 Alpha virt. eigenvalues --    0.24168   0.26271   0.26398   0.27174   0.27921
 Alpha virt. eigenvalues --    0.28681   0.29959   0.31194   0.31768   0.32163

 Mulliken charges:
               1
     1  C   -0.169750
     2  C   -0.215849
     3  C   -0.172123
     4  C    0.158379
     5  C   -0.170906
     6  C   -0.219121
     7  H    0.226485
     8  H    0.223956
     9  H    0.275849
    10  H    0.275646
    11  H    0.223488
    12  N    0.488109
    13  O   -0.460463
    14  O   -0.460228
    15  C   -0.298825
    16  C   -0.299798
    17  C   -0.475937
    18  H    0.151262
    19  H    0.150930
    20  H    0.151294
    21  H    0.151727
    22  H    0.156056
    23  H    0.156181
    24  H    0.160404
    25  C   -0.298573
    26  C   -0.299758
    27  C   -0.475897
    28  H    0.148426
    29  H    0.149600
    30  H    0.155670
    31  H    0.153337
    32  H    0.155378
    33  H    0.151595
    34  H    0.153452
 Sum of Mulliken charges =  -0.00000

 Dipole moment (field-independent basis, Debye):
    X=             -1.4755    Y=             -4.7557    Z=              1.3999  Tot=              5.1723
 Quadrupole moment (field-independent basis, Debye-Ang):
   XX=           -104.2079   YY=            -99.6914   ZZ=            -89.2535
   XY=            -14.6561   XZ=              5.7291   YZ=              1.3718

 Normal termination of Gaussian 16 at Thu May  6 15:48:42 2021.
