 Gaussian 16, Revision A.03,
 Gaussian 16:  EM64L-G16RevA.03 25-Dec-2016

 -------------
 #p 6-31g* mp2
 -------------

 ------------------------------------------------------
 Input file generated by CHIRIPA (05-May-2021 14:55:23)
 ------------------------------------------------------
 Symbolic Z-matrix:
 Charge =  0 Multiplicity = 1

                         Standard orientation:
 ---------------------------------------------------------------------
 Center     Atomic      Atomic             Coordinates (Angstroms)
 Number     Number       Type             X           Y           Z
 ---------------------------------------------------------------------
      1          6           0       -5.516797   -0.782081    0.294782
      2          6           0       -4.590887   -0.947547    1.330075
      3          6           0       -3.254693   -0.576024    1.153710
      4          6           0       -2.877190   -0.039814   -0.076436
      5          6           0       -3.776086    0.137469   -1.127078
      6          6           0       -5.107164   -0.241055   -0.928334
      7          1           0       -6.552798   -1.073408    0.440479
      8          1           0       -4.906181   -1.367454    2.281029
      9          1           0       -2.517049   -0.693159    1.938299
     10          1           0       -3.431939    0.558808   -2.063803
     11          1           0       -5.824054   -0.111402   -1.734127
     12          7           0       -1.465330    0.357207   -0.274992
     13          8           0       -1.157948    0.827283   -1.368236
     14          8           0       -0.692829    0.190798    0.666384
     15          6           0        3.919036    0.804035    0.418786
     16          6           0        2.833141    1.710673   -0.161580
     17          6           0        2.722009    3.045984    0.574890
     18          1           0        3.706553    0.621897    1.481152
     19          1           0        4.884270    1.327565    0.378365
     20          1           0        1.870476    1.185054   -0.121348
     21          1           0        3.048128    1.890518   -1.222736
     22          1           0        3.668320    3.594132    0.523614
     23          1           0        2.483977    2.884661    1.631259
     24          1           0        1.939795    3.678441    0.143614
     25          6           0        4.042262   -0.534601   -0.306883
     26          6           0        5.128157   -1.441239    0.273482
     27          6           0        5.239288   -2.776551   -0.462987
     28          1           0        3.077027   -1.058133   -0.266463
     29          1           0        4.254745   -0.352464   -1.369250
     30          1           0        4.913169   -1.621085    1.334639
     31          1           0        6.090821   -0.915622    0.233251
     32          1           0        5.477322   -2.615227   -1.519356
     33          1           0        4.292977   -3.324699   -0.411710
     34          1           0        6.021503   -3.409008   -0.031711
 ---------------------------------------------------------------------

 SCF Done:  E(RHF) =  -669.536966040     A.U. after   15 cycles
 E2 =    -0.2091529721D+01 EUMP2 =    -0.67162849576094D+03

 The electronic state is 1-A.
 Alpha  occ. eigenvalues --  -20.61145 -20.61132 -15.86130 -11.31401 -11.27951
 Alpha  occ. eigenvalues --  -11.27946 -11.27676 -11.26942 -11.26932 -11.20633
 Alpha  occ. eigenvalues --  -11.20286 -11.20108 -11.19925 -11.19599 -11.19524
 Alpha  occ. eigenvalues --   -1.60170  -1.39729  -1.19557  -1.08973  -1.07070
 Alpha  occ. eigenvalues --   -1.04943  -1.02181  -0.95823  -0.94706  -0.86346
 Alpha  occ. eigenvalues --   -0.85735  -0.82659  -0.78282  -0.77722  -0.76800
 Alpha  occ. eigenvalues --   -0.72337  -0.71472  -0.70665  -0.65212  -0.64947
 Alpha  occ. eigenvalues --   -0.63700  -0.62290  -0.59575  -0.58107  -0.56282
 Alpha  occ. eigenvalues --   -0.55449  -0.54013  -0.53278  -0.53033  -0.51438
 Alpha  occ. eigenvalues --   -0.51124  -0.49222  -0.49098  -0.48641  -0.46578
 Alpha  occ. eigenvalues --   -0.45282  -0.45152  -0.44389  -0.44104  -0.42446
 Alpha  occ. eigenvalues --   -0.37533  -0.36540
 Alpha virt. eigenvalues --    0.04812   0.11116   0.16326   0.21257   0.24145
 Alpha virt. eigenvalues --    0.25627   0.27182   0.27959   0.28175   0.28921
 Alpha virt. eigenvalues --    0.29239   0.30832   0.32367   0.32649   0.33043

 Mulliken charges:
               1
     1  C   -0.170349
     2  C   -0.218560
     3  C   -0.170618
     4  C    0.158669
     5  C   -0.170629
     6  C   -0.218604
     7  H    0.226394
     8  H    0.224190
     9  H    0.275890
    10  H    0.276156
    11  H    0.224224
    12  N    0.488656
    13  O   -0.457672
    14  O   -0.459373
    15  C   -0.296483
    16  C   -0.312484
    17  C   -0.473645
    18  H    0.147235
    19  H    0.142307
    20  H    0.186318
    21  H    0.145522
    22  H    0.146662
    23  H    0.152239
    24  H    0.159122
    25  C   -0.298399
    26  C   -0.298555
    27  C   -0.474787
    28  H    0.155605
    29  H    0.147119
    30  H    0.150049
    31  H    0.149135
    32  H    0.153882
    33  H    0.154302
    34  H    0.156482
 Sum of Mulliken charges =  -0.00000

 Dipole moment (field-independent basis, Debye):
    X=             -5.5051    Y=             -1.4699    Z=              0.6589  Tot=              5.7360
 Quadrupole moment (field-independent basis, Debye-Ang):
   XX=            -67.6710   YY=            -96.6982   ZZ=            -90.4441
   XY=              4.2779   XZ=             -0.9560   YZ=             -2.3922

 Normal termination of Gaussian 16 at Thu May  6 20:49:54 2021.
