 Gaussian 16, Revision A.03,
 Gaussian 16:  EM64L-G16RevA.03 25-Dec-2016

 -------------
 #p 6-31g* mp2
 -------------

 ------------------------------------------------------
 Input file generated by CHIRIPA (05-May-2021 14:53:16)
 ------------------------------------------------------
 Symbolic Z-matrix:
 Charge =  0 Multiplicity = 1

                         Standard orientation:
 ---------------------------------------------------------------------
 Center     Atomic      Atomic             Coordinates (Angstroms)
 Number     Number       Type             X           Y           Z
 ---------------------------------------------------------------------
      1          6           0        2.921513   -0.159153   -0.004702
      2          6           0        4.353975   -0.291727    0.513433
      3          6           0        4.605081   -1.622485    1.223237
      4          1           0        2.222820   -0.265262    0.836436
      5          1           0        2.709866   -0.988781   -0.693410
      6          1           0        4.563315    0.538678    1.199888
      7          1           0        5.049346   -0.185099   -0.329008
      8          1           0        4.423450   -2.461675    0.543994
      9          1           0        3.934658   -1.733786    2.081576
     10          1           0        5.635206   -1.696113    1.585566
     11          6           0        2.655023    1.165903   -0.716698
     12          6           0        1.222561    1.298477   -1.234833
     13          6           0        0.971455    2.629235   -1.944638
     14          1           0        2.866670    1.995531   -0.027991
     15          1           0        3.353716    1.272012   -1.557837
     16          1           0        0.527190    1.191849   -0.392393
     17          1           0        1.013221    0.468072   -1.921289
     18          1           0        1.641878    2.740536   -2.802977
     19          1           0        1.153086    3.468425   -1.265395
     20          1           0       -0.058670    2.702863   -2.306967
     21          6           0       -2.438819    1.503838    1.924686
     22          6           0       -3.391615    1.313405    0.918487
     23          6           0       -3.257442    0.265579    0.002733
     24          6           0       -2.153152   -0.576666    0.122969
     25          6           0       -1.186998   -0.412871    1.114437
     26          6           0       -1.341485    0.641613    2.019282
     27          1           0       -2.550937    2.320401    2.631829
     28          1           0       -4.244834    1.981467    0.842618
     29          1           0       -3.980188    0.095266   -0.785968
     30          1           0       -0.347177   -1.095211    1.164739
     31          1           0       -0.599972    0.787107    2.799689
     32          7           0       -2.000356   -1.689477   -0.840725
     33          8           0       -1.018432   -2.417663   -0.713415
     34          8           0       -2.865411   -1.812440   -1.705131
 ---------------------------------------------------------------------

 SCF Done:  E(RHF) =  -669.534723496     A.U. after   15 cycles
 E2 =    -0.2093844626D+01 EUMP2 =    -0.67162856812175D+03

 The electronic state is 1-A.
 Alpha  occ. eigenvalues --  -20.60794 -20.60784 -15.85843 -11.31205 -11.27815
 Alpha  occ. eigenvalues --  -11.27781 -11.27568 -11.26820 -11.26810 -11.21662
 Alpha  occ. eigenvalues --  -11.21468 -11.21420 -11.21360 -11.21096 -11.21037
 Alpha  occ. eigenvalues --   -1.59863  -1.39416  -1.19418  -1.08798  -1.08448
 Alpha  occ. eigenvalues --   -1.04832  -1.03518  -0.95986  -0.95633  -0.87000
 Alpha  occ. eigenvalues --   -0.86215  -0.82467  -0.79592  -0.78291  -0.77491
 Alpha  occ. eigenvalues --   -0.72063  -0.71182  -0.70523  -0.65138  -0.65034
 Alpha  occ. eigenvalues --   -0.64809  -0.62167  -0.60936  -0.59361  -0.57598
 Alpha  occ. eigenvalues --   -0.55343  -0.55265  -0.53237  -0.52917  -0.52641
 Alpha  occ. eigenvalues --   -0.52393  -0.49924  -0.48823  -0.48816  -0.47897
 Alpha  occ. eigenvalues --   -0.46614  -0.45828  -0.45709  -0.44797  -0.43786
 Alpha  occ. eigenvalues --   -0.37384  -0.36322
 Alpha virt. eigenvalues --    0.04998   0.11195   0.16437   0.20562   0.23009
 Alpha virt. eigenvalues --    0.24226   0.25370   0.26959   0.27766   0.27900
 Alpha virt. eigenvalues --    0.29660   0.30882   0.31455   0.31797   0.31964

 Mulliken charges:
               1
     1  C   -0.299017
     2  C   -0.299681
     3  C   -0.475446
     4  H    0.137082
     5  H    0.160875
     6  H    0.149205
     7  H    0.154011
     8  H    0.159877
     9  H    0.151215
    10  H    0.160281
    11  C   -0.297547
    12  C   -0.310267
    13  C   -0.474377
    14  H    0.145512
    15  H    0.151287
    16  H    0.156852
    17  H    0.158423
    18  H    0.156060
    19  H    0.151397
    20  H    0.159785
    21  C   -0.170172
    22  C   -0.218659
    23  C   -0.170815
    24  C    0.163483
    25  C   -0.176547
    26  C   -0.219098
    27  H    0.225969
    28  H    0.223715
    29  H    0.275843
    30  H    0.280001
    31  H    0.223598
    32  N    0.488112
    33  O   -0.460276
    34  O   -0.460678
 Sum of Mulliken charges =  -0.00000

 Dipole moment (field-independent basis, Debye):
    X=             -0.5764    Y=              3.8189    Z=              3.3134  Tot=              5.0887
 Quadrupole moment (field-independent basis, Debye-Ang):
   XX=            -88.9463   YY=           -100.3970   ZZ=            -92.9715
   XY=             -9.7565   XZ=             -5.9824   YZ=             -1.1350

 Normal termination of Gaussian 16 at Thu May  6 22:02:45 2021.
