 Gaussian 16, Revision A.03,
 Gaussian 16:  EM64L-G16RevA.03 25-Dec-2016

 -------------
 #p 6-31g* mp2
 -------------

 ------------------------------------------------------
 Input file generated by CHIRIPA (05-May-2021 14:55:25)
 ------------------------------------------------------
 Symbolic Z-matrix:
 Charge =  0 Multiplicity = 1

                         Standard orientation:
 ---------------------------------------------------------------------
 Center     Atomic      Atomic             Coordinates (Angstroms)
 Number     Number       Type             X           Y           Z
 ---------------------------------------------------------------------
      1          6           0        0.484234   -0.941045    0.463154
      2          6           0        1.491009   -1.356679    1.340748
      3          6           0        2.826847   -1.023463    1.097742
      4          6           0        3.121539   -0.270043   -0.037513
      5          6           0        2.140945    0.158910   -0.930668
      6          6           0        0.811837   -0.185908   -0.667760
      7          1           0       -0.550863   -1.204402    0.659657
      8          1           0        1.239521   -1.943226    2.219817
      9          1           0        3.626096   -1.332133    1.760570
     10          1           0        2.422543    0.742577   -1.798685
     11          1           0        0.032041    0.138252   -1.351048
     12          7           0        4.532168    0.088860   -0.305308
     13          8           0        4.765702    0.753494   -1.312462
     14          8           0        5.377574   -0.301263    0.497019
     15          6           0       -3.851105   -0.169500   -0.467671
     16          6           0       -4.769037   -1.212106    0.171359
     17          6           0       -5.066163   -2.388058   -0.759579
     18          1           0       -4.315111    0.200911   -1.392030
     19          1           0       -2.908992   -0.652097   -0.762488
     20          1           0       -5.708597   -0.727391    0.466136
     21          1           0       -4.302879   -1.579938    1.094404
     22          1           0       -4.139927   -2.897618   -1.044249
     23          1           0       -5.553633   -2.040227   -1.676087
     24          1           0       -5.724013   -3.121335   -0.282715
     25          6           0       -3.544862    1.012237    0.450718
     26          6           0       -2.626931    2.054843   -0.188312
     27          6           0       -2.329805    3.230796    0.742625
     28          1           0       -4.486976    1.494835    0.745534
     29          1           0       -3.080856    0.641826    1.375077
     30          1           0       -3.093089    2.422676   -1.111358
     31          1           0       -1.687370    1.570128   -0.483090
     32          1           0       -1.842335    2.882965    1.659133
     33          1           0       -3.256040    3.740356    1.027296
     34          1           0       -1.671955    3.964073    0.265761
 ---------------------------------------------------------------------

 SCF Done:  E(RHF) =  -669.535221219     A.U. after   15 cycles
 E2 =    -0.2092426882D+01 EUMP2 =    -0.67162764810128D+03

 The electronic state is 1-A.
 Alpha  occ. eigenvalues --  -20.60775 -20.60770 -15.85829 -11.31209 -11.27781
 Alpha  occ. eigenvalues --  -11.27774 -11.27524 -11.26795 -11.26770 -11.22568
 Alpha  occ. eigenvalues --  -11.22533 -11.22501 -11.22367 -11.21889 -11.21752
 Alpha  occ. eigenvalues --   -1.59850  -1.39403  -1.19384  -1.09437  -1.08775
 Alpha  occ. eigenvalues --   -1.04790  -1.04417  -0.96852  -0.95608  -0.87861
 Alpha  occ. eigenvalues --   -0.86192  -0.82440  -0.80496  -0.79269  -0.77483
 Alpha  occ. eigenvalues --   -0.72048  -0.71173  -0.70506  -0.66138  -0.65031
 Alpha  occ. eigenvalues --   -0.64765  -0.62193  -0.61762  -0.60215  -0.58468
 Alpha  occ. eigenvalues --   -0.56176  -0.55259  -0.53507  -0.53270  -0.53111
 Alpha  occ. eigenvalues --   -0.52891  -0.50791  -0.48850  -0.48801  -0.48753
 Alpha  occ. eigenvalues --   -0.47534  -0.46768  -0.46730  -0.44806  -0.44702
 Alpha  occ. eigenvalues --   -0.37355  -0.36379
 Alpha virt. eigenvalues --    0.05047   0.11118   0.16510   0.18112   0.22656
 Alpha virt. eigenvalues --    0.23548   0.24786   0.25570   0.26895   0.28023
 Alpha virt. eigenvalues --    0.29775   0.30843   0.31191   0.31229   0.32314

 Mulliken charges:
               1
     1  C   -0.174218
     2  C   -0.218807
     3  C   -0.170555
     4  C    0.158501
     5  C   -0.171647
     6  C   -0.220409
     7  H    0.229121
     8  H    0.223584
     9  H    0.275735
    10  H    0.275943
    11  H    0.226668
    12  N    0.488038
    13  O   -0.460253
    14  O   -0.460345
    15  C   -0.300580
    16  C   -0.300079
    17  C   -0.476023
    18  H    0.154567
    19  H    0.139118
    20  H    0.156314
    21  H    0.149171
    22  H    0.153503
    23  H    0.157815
    24  H    0.163364
    25  C   -0.299384
    26  C   -0.304722
    27  C   -0.475462
    28  H    0.154814
    29  H    0.146816
    30  H    0.154502
    31  H    0.147085
    32  H    0.156810
    33  H    0.157508
    34  H    0.163504
 Sum of Mulliken charges =  -0.00000

 Dipole moment (field-independent basis, Debye):
    X=             -5.1437    Y=             -1.1880    Z=              0.9621  Tot=              5.3660
 Quadrupole moment (field-independent basis, Debye-Ang):
   XX=           -124.3977   YY=            -93.7553   ZZ=            -91.7840
   XY=             -4.2176   XZ=              4.6526   YZ=             -3.2042

 Normal termination of Gaussian 16 at Thu May  6 06:24:20 2021.
