 Gaussian 16, Revision A.03,
 Gaussian 16:  EM64L-G16RevA.03 25-Dec-2016

 -------------
 #p 6-31g* mp2
 -------------

 ------------------------------------------------------
 Input file generated by CHIRIPA (05-May-2021 14:51:09)
 ------------------------------------------------------
 Symbolic Z-matrix:
 Charge =  0 Multiplicity = 1

                         Standard orientation:
 ---------------------------------------------------------------------
 Center     Atomic      Atomic             Coordinates (Angstroms)
 Number     Number       Type             X           Y           Z
 ---------------------------------------------------------------------
      1          6           0       -1.281804   -1.603399    0.172434
      2          6           0       -0.496678   -1.665245    1.483059
      3          6           0        0.606237   -2.723985    1.462072
      4          1           0       -1.721801   -2.589303   -0.030889
      5          1           0       -0.587537   -1.394654   -0.653287
      6          1           0       -1.192418   -1.872440    2.306243
      7          1           0       -0.058658   -0.679027    1.683383
      8          1           0        1.322797   -2.517976    0.660384
      9          1           0        0.182595   -3.718169    1.286784
     10          1           0        1.154816   -2.751060    2.408744
     11          6           0       -2.387890   -0.549706    0.177978
     12          6           0       -3.173016   -0.487861   -1.132647
     13          6           0       -4.275931    0.570879   -1.111661
     14          1           0       -3.082157   -0.758451    1.003698
     15          1           0       -1.947892    0.436198    0.381301
     16          1           0       -3.611036   -1.474078   -1.332971
     17          1           0       -2.477276   -0.280666   -1.955832
     18          1           0       -3.852289    1.565064   -0.936372
     19          1           0       -4.992491    0.364871   -0.309973
     20          1           0       -4.824510    0.597955   -2.058333
     21          6           0        2.480974    0.669667   -0.155313
     22          6           0        2.600338   -0.335128   -1.301667
     23          6           0        3.898270   -1.141543   -1.248185
     24          1           0        3.340509    1.353260   -0.184374
     25          1           0        2.540917    0.132637    0.801453
     26          1           0        2.538800    0.203478   -2.255990
     27          1           0        1.740320   -1.016289   -1.269990
     28          1           0        3.963927   -1.704151   -0.311295
     29          1           0        4.766943   -0.477454   -1.302898
     30          1           0        3.962904   -1.853655   -2.076785
     31          6           0        1.188720    1.483439   -0.195097
     32          6           0        1.069356    2.488233    0.951255
     33          6           0       -0.228576    3.294649    0.897773
     34          1           0        1.128777    2.020468   -1.151864
     35          1           0        0.329185    0.799845   -0.166037
     36          1           0        1.929374    3.169394    0.919578
     37          1           0        1.130894    1.949627    1.905579
     38          1           0       -1.097249    2.630559    0.952487
     39          1           0       -0.294233    3.857257   -0.039117
     40          1           0       -0.293211    4.006761    1.726374
 ---------------------------------------------------------------------

 SCF Done:  E(RHF) =  -470.730485858     A.U. after   11 cycles
 E2 =    -0.1588359284D+01 EUMP2 =    -0.47231884514248D+03

 The electronic state is 1-A.
 Alpha  occ. eigenvalues --  -11.21667 -11.21657 -11.21644 -11.21626 -11.21458
 Alpha  occ. eigenvalues --  -11.21419 -11.21395 -11.21338 -11.21128 -11.21127
 Alpha  occ. eigenvalues --  -11.21108 -11.21078  -1.08657  -1.08352  -1.03629
 Alpha  occ. eigenvalues --   -1.03552  -0.96059  -0.96016  -0.87093  -0.87014
 Alpha  occ. eigenvalues --   -0.79684  -0.79649  -0.78326  -0.78319  -0.66107
 Alpha  occ. eigenvalues --   -0.64328  -0.61232  -0.60750  -0.59426  -0.59375
 Alpha  occ. eigenvalues --   -0.57671  -0.57628  -0.55438  -0.55248  -0.52740
 Alpha  occ. eigenvalues --   -0.52715  -0.52481  -0.52438  -0.50174  -0.49803
 Alpha  occ. eigenvalues --   -0.48156  -0.47870  -0.46873  -0.46785  -0.46314
 Alpha  occ. eigenvalues --   -0.45777  -0.45500  -0.45077  -0.43837  -0.43819
 Alpha virt. eigenvalues --    0.19448   0.21418   0.23235   0.24729   0.25348
 Alpha virt. eigenvalues --    0.25867   0.27199   0.28205   0.28735   0.30163
 Alpha virt. eigenvalues --    0.30801   0.31439   0.31642   0.32061   0.32423

 Mulliken charges:
               1
     1  C   -0.308549
     2  C   -0.304752
     3  C   -0.481795
     4  H    0.152353
     5  H    0.155072
     6  H    0.153008
     7  H    0.156332
     8  H    0.161552
     9  H    0.155762
    10  H    0.160142
    11  C   -0.308784
    12  C   -0.299164
    13  C   -0.476413
    14  H    0.150428
    15  H    0.158193
    16  H    0.152181
    17  H    0.152513
    18  H    0.155959
    19  H    0.155132
    20  H    0.160449
    21  C   -0.299809
    22  C   -0.308035
    23  C   -0.477176
    24  H    0.150255
    25  H    0.151671
    26  H    0.152730
    27  H    0.157595
    28  H    0.156616
    29  H    0.155698
    30  H    0.160533
    31  C   -0.310583
    32  C   -0.300834
    33  C   -0.481730
    34  H    0.149730
    35  H    0.162527
    36  H    0.152658
    37  H    0.152312
    38  H    0.159743
    39  H    0.155411
    40  H    0.161071
 Sum of Mulliken charges =  -0.00000

 Dipole moment (field-independent basis, Debye):
    X=             -0.0071    Y=             -0.0074    Z=             -0.0060  Tot=              0.0119
 Quadrupole moment (field-independent basis, Debye-Ang):
   XX=            -85.5783   YY=            -84.7561   ZZ=            -84.3725
   XY=              1.9532   XZ=             -0.5063   YZ=             -0.5890

 Normal termination of Gaussian 16 at Thu May  6 06:57:01 2021.
