 Gaussian 16, Revision A.03,
 Gaussian 16:  EM64L-G16RevA.03 25-Dec-2016

 -------------
 #p 6-31g* mp2
 -------------

 ------------------------------------------------------
 Input file generated by CHIRIPA (05-May-2021 14:57:25)
 ------------------------------------------------------
 Symbolic Z-matrix:
 Charge =  0 Multiplicity = 1

                         Standard orientation:
 ---------------------------------------------------------------------
 Center     Atomic      Atomic             Coordinates (Angstroms)
 Number     Number       Type             X           Y           Z
 ---------------------------------------------------------------------
      1          6           0       -1.966372    0.442940    1.065566
      2          6           0       -2.326543   -0.886465    0.821683
      3          6           0       -3.578110   -1.195158    0.280539
      4          6           0       -4.448796   -0.144885   -0.006031
      5          6           0       -4.119091    1.189635    0.225577
      6          6           0       -2.862216    1.474928    0.767261
      7          1           0       -0.992063    0.673651    1.486150
      8          1           0       -1.632842   -1.689962    1.052367
      9          1           0       -3.882657   -2.215515    0.081692
     10          1           0       -4.831917    1.969084   -0.014749
     11          1           0       -2.585197    2.508287    0.955611
     12          7           0       -5.776584   -0.459297   -0.579202
     13          8           0       -6.525669    0.484160   -0.822915
     14          8           0       -6.043077   -1.643239   -0.773886
     15          6           0        5.925386   -1.773766   -0.168415
     16          6           0        4.658300   -2.001867    0.378380
     17          6           0        3.710996   -0.974876    0.427894
     18          6           0        4.066053    0.273544   -0.080702
     19          6           0        5.320203    0.531974   -0.631714
     20          6           0        6.251718   -0.509802   -0.670831
     21          1           0        6.655143   -2.577300   -0.202840
     22          1           0        4.402099   -2.982471    0.769305
     23          1           0        2.722756   -1.123963    0.845712
     24          1           0        5.546434    1.520111   -1.013583
     25          1           0        7.234988   -0.329772   -1.096054
     26          7           0        3.071543    1.368599   -0.033787
     27          8           0        3.408971    2.459491   -0.488467
     28          8           0        1.973448    1.115277    0.456776
 ---------------------------------------------------------------------

 SCF Done:  E(RHF) =  -868.339541198     A.U. after   16 cycles
 E2 =    -0.2598233261D+01 EUMP2 =    -0.87093777445949D+03

 The electronic state is 1-A.
 Alpha  occ. eigenvalues --  -20.61735 -20.61678 -20.60221 -20.60212 -15.86758
 Alpha  occ. eigenvalues --  -15.85271 -11.31920 -11.30468 -11.28507 -11.28430
 Alpha  occ. eigenvalues --  -11.28144 -11.27441 -11.27399 -11.27084 -11.27022
 Alpha  occ. eigenvalues --  -11.26572 -11.26017 -11.25896  -1.60769  -1.59300
 Alpha  occ. eigenvalues --   -1.40334  -1.38858  -1.20067  -1.18622  -1.09492
 Alpha  occ. eigenvalues --   -1.08007  -1.05444  -1.04019  -0.96367  -0.94872
 Alpha  occ. eigenvalues --   -0.86850  -0.85403  -0.83216  -0.81729  -0.78289
 Alpha  occ. eigenvalues --   -0.76836  -0.73002  -0.72073  -0.71491  -0.71173
 Alpha  occ. eigenvalues --   -0.70623  -0.69613  -0.65725  -0.65442  -0.64260
 Alpha  occ. eigenvalues --   -0.64014  -0.62802  -0.61387  -0.55937  -0.54363
 Alpha  occ. eigenvalues --   -0.53775  -0.53535  -0.52337  -0.52103  -0.49756
 Alpha  occ. eigenvalues --   -0.49702  -0.48256  -0.48232  -0.45781  -0.44303
 Alpha  occ. eigenvalues --   -0.38022  -0.37036  -0.36523  -0.35643
 Alpha virt. eigenvalues --    0.04249   0.05724   0.10623   0.12030   0.15790
 Alpha virt. eigenvalues --    0.17275   0.20636   0.22224   0.26584   0.27326
 Alpha virt. eigenvalues --    0.28095   0.29170   0.30570   0.31664   0.32113

 Mulliken charges:
               1
     1  C   -0.171010
     2  C   -0.220218
     3  C   -0.171726
     4  C    0.157019
     5  C   -0.171480
     6  C   -0.219965
     7  H    0.243968
     8  H    0.216800
     9  H    0.271861
    10  H    0.273785
    11  H    0.226603
    12  N    0.488325
    13  O   -0.461863
    14  O   -0.463373
    15  C   -0.169936
    16  C   -0.217998
    17  C   -0.169524
    18  C    0.158586
    19  C   -0.170205
    20  C   -0.218230
    21  H    0.228133
    22  H    0.224450
    23  H    0.269386
    24  H    0.277109
    25  H    0.225971
    26  N    0.493238
    27  O   -0.455567
    28  O   -0.474142
 Sum of Mulliken charges =  -0.00000

 Dipole moment (field-independent basis, Debye):
    X=              8.7028    Y=             -2.6183    Z=              1.8477  Tot=              9.2740
 Quadrupole moment (field-independent basis, Debye-Ang):
   XX=           -116.3670   YY=           -100.8290   ZZ=           -105.4199
   XY=            -19.9640   XZ=            -12.0112   YZ=             -1.6718

 Normal termination of Gaussian 16 at Wed May  5 17:56:32 2021.
