 Gaussian 16, Revision A.03,
 Gaussian 16:  EM64L-G16RevA.03 25-Dec-2016

 -------------
 #p 6-31g* mp2
 -------------

 ------------------------------------------------------
 Input file generated by CHIRIPA (05-May-2021 14:53:16)
 ------------------------------------------------------
 Symbolic Z-matrix:
 Charge =  0 Multiplicity = 1

                         Standard orientation:
 ---------------------------------------------------------------------
 Center     Atomic      Atomic             Coordinates (Angstroms)
 Number     Number       Type             X           Y           Z
 ---------------------------------------------------------------------
      1          6           0       -5.183504   -0.150435   -0.059839
      2          6           0       -5.872878    1.209282   -0.177809
      3          6           0       -7.210535    1.131960   -0.914349
      4          1           0       -5.026509   -0.563313   -1.065737
      5          1           0       -5.851601   -0.848258    0.463691
      6          1           0       -5.203123    1.904719   -0.699739
      7          1           0       -6.028078    1.619057    0.828478
      8          1           0       -7.899298    0.459666   -0.392596
      9          1           0       -7.069657    0.746951   -1.929496
     10          1           0       -7.686080    2.115014   -0.987298
     11          6           0       -3.845076   -0.089437    0.674066
     12          6           0       -3.155701   -1.449154    0.792036
     13          6           0       -1.818045   -1.371832    1.528576
     14          1           0       -3.176979    0.608386    0.150535
     15          1           0       -4.002071    0.323441    1.679964
     16          1           0       -3.000502   -1.858930   -0.214251
     17          1           0       -3.825456   -2.144592    1.313966
     18          1           0       -1.958923   -0.986823    2.543723
     19          1           0       -1.129281   -0.699538    1.006823
     20          1           0       -1.342500   -2.354886    1.601525
     21          6           0        5.710914    1.082297    0.546324
     22          6           0        4.532912    1.831858    0.629929
     23          6           0        3.317052    1.294237    0.197266
     24          6           0        3.315636   -0.001874   -0.315945
     25          6           0        4.472471   -0.773726   -0.412200
     26          6           0        5.676994   -0.215814    0.026442
     27          1           0        6.651020    1.507816    0.884749
     28          1           0        4.556259    2.840245    1.033235
     29          1           0        2.390225    1.852421    0.250557
     30          1           0        4.417641   -1.776237   -0.818875
     31          1           0        6.590288   -0.800250   -0.039685
     32          7           0        2.034461   -0.581770   -0.777151
     33          8           0        2.059855   -1.725924   -1.225374
     34          8           0        1.029141    0.118841   -0.681687
 ---------------------------------------------------------------------

 SCF Done:  E(RHF) =  -669.536380644     A.U. after   15 cycles
 E2 =    -0.2090820933D+01 EUMP2 =    -0.67162720157750D+03

 The electronic state is 1-A.
 Alpha  occ. eigenvalues --  -20.60972 -20.60966 -15.85997 -11.31300 -11.27861
 Alpha  occ. eigenvalues --  -11.27857 -11.27597 -11.26865 -11.26855 -11.20947
 Alpha  occ. eigenvalues --  -11.20571 -11.20524 -11.20426 -11.20352 -11.19614
 Alpha  occ. eigenvalues --   -1.60024  -1.39582  -1.19466  -1.08874  -1.07514
 Alpha  occ. eigenvalues --   -1.04860  -1.02575  -0.95720  -0.95023  -0.86262
 Alpha  occ. eigenvalues --   -0.86046  -0.82555  -0.78678  -0.77610  -0.77305
 Alpha  occ. eigenvalues --   -0.72224  -0.71333  -0.70576  -0.65124  -0.64864
 Alpha  occ. eigenvalues --   -0.64140  -0.62208  -0.59956  -0.58440  -0.56634
 Alpha  occ. eigenvalues --   -0.55368  -0.54296  -0.53191  -0.52953  -0.51732
 Alpha  occ. eigenvalues --   -0.51458  -0.49143  -0.48977  -0.48795  -0.46987
 Alpha  occ. eigenvalues --   -0.45734  -0.45027  -0.44835  -0.44647  -0.42847
 Alpha  occ. eigenvalues --   -0.37443  -0.36460
 Alpha virt. eigenvalues --    0.04886   0.11195   0.16365   0.21324   0.23761
 Alpha virt. eigenvalues --    0.25339   0.27247   0.27551   0.28161   0.28413
 Alpha virt. eigenvalues --    0.29046   0.30877   0.32251   0.32525   0.32642

 Mulliken charges:
               1
     1  C   -0.297859
     2  C   -0.299052
     3  C   -0.475227
     4  H    0.150637
     5  H    0.147099
     6  H    0.152012
     7  H    0.149841
     8  H    0.154012
     9  H    0.155180
    10  H    0.157932
    11  C   -0.298967
    12  C   -0.297713
    13  C   -0.485624
    14  H    0.154745
    15  H    0.145042
    16  H    0.156459
    17  H    0.145775
    18  H    0.144895
    19  H    0.178598
    20  H    0.157443
    21  C   -0.170530
    22  C   -0.218551
    23  C   -0.170555
    24  C    0.158314
    25  C   -0.170651
    26  C   -0.218582
    27  H    0.226030
    28  H    0.223888
    29  H    0.275731
    30  H    0.275869
    31  H    0.223843
    32  N    0.489255
    33  O   -0.458336
    34  O   -0.460955
 Sum of Mulliken charges =  -0.00000

 Dipole moment (field-independent basis, Debye):
    X=              4.8531    Y=              2.0643    Z=              1.4926  Tot=              5.4810
 Quadrupole moment (field-independent basis, Debye-Ang):
   XX=            -65.9031   YY=            -91.5125   ZZ=            -96.1510
   XY=              4.7487   XZ=              2.8529   YZ=              0.7797

 Normal termination of Gaussian 16 at Thu May  6 13:52:23 2021.
