 Gaussian 16, Revision A.03,
 Gaussian 16:  EM64L-G16RevA.03 25-Dec-2016

 -------------
 #p 6-31g* mp2
 -------------

 ------------------------------------------------------
 Input file generated by CHIRIPA (05-May-2021 14:57:21)
 ------------------------------------------------------
 Symbolic Z-matrix:
 Charge =  0 Multiplicity = 1

                         Standard orientation:
 ---------------------------------------------------------------------
 Center     Atomic      Atomic             Coordinates (Angstroms)
 Number     Number       Type             X           Y           Z
 ---------------------------------------------------------------------
      1          6           0       -5.098258    2.086163   -0.135972
      2          6           0       -3.749971    2.186341    0.222645
      3          6           0       -2.937781    1.048899    0.256140
      4          6           0       -3.509285   -0.178325   -0.076415
      5          6           0       -4.849148   -0.310542   -0.437770
      6          6           0       -5.642584    0.840239   -0.464456
      7          1           0       -5.721903    2.974936   -0.159347
      8          1           0       -3.324542    3.152636    0.478239
      9          1           0       -1.890920    1.097858    0.530192
     10          1           0       -5.244799   -1.287555   -0.687414
     11          1           0       -6.689361    0.759442   -0.743339
     12          7           0       -2.659383   -1.389544   -0.044560
     13          8           0       -3.186888   -2.459110   -0.341885
     14          8           0       -1.481817   -1.246396    0.277130
     15          6           0        5.383593    1.686023   -0.584226
     16          6           0        4.388106    2.022773    0.338879
     17          6           0        3.422096    1.084803    0.715157
     18          6           0        3.481701   -0.186356    0.146042
     19          6           0        4.460977   -0.552115   -0.776200
     20          6           0        5.416793    0.401917   -1.137844
     21          1           0        6.130054    2.420899   -0.870845
     22          1           0        4.359868    3.019265    0.770448
     23          1           0        2.640348    1.318816    1.427565
     24          1           0        4.463272   -1.553485   -1.189321
     25          1           0        6.188740    0.137595   -1.854975
     26          7           0        2.464425   -1.187845    0.536644
     27          8           0        2.538762   -2.300969    0.020827
     28          8           0        1.612010   -0.840726    1.351220
 ---------------------------------------------------------------------

 SCF Done:  E(RHF) =  -868.334859231     A.U. after   16 cycles
 E2 =    -0.2600609077D+01 EUMP2 =    -0.87093546830843D+03

 The electronic state is 1-A.
 Alpha  occ. eigenvalues --  -20.59866 -20.59825 -20.59761 -20.59670 -15.84917
 Alpha  occ. eigenvalues --  -15.84773 -11.30692 -11.30534 -11.27335 -11.27282
 Alpha  occ. eigenvalues --  -11.27161 -11.27141 -11.27119 -11.26987 -11.26432
 Alpha  occ. eigenvalues --  -11.26390 -11.26271 -11.26256  -1.58898  -1.58803
 Alpha  occ. eigenvalues --   -1.38454  -1.38338  -1.18899  -1.18752  -1.08214
 Alpha  occ. eigenvalues --   -1.08077  -1.04366  -1.04213  -0.94985  -0.94834
 Alpha  occ. eigenvalues --   -0.85744  -0.85592  -0.81830  -0.81653  -0.76803
 Alpha  occ. eigenvalues --   -0.76642  -0.71211  -0.70900  -0.70213  -0.70154
 Alpha  occ. eigenvalues --   -0.70006  -0.69852  -0.64545  -0.64395  -0.64364
 Alpha  occ. eigenvalues --   -0.64225  -0.61713  -0.61553  -0.54849  -0.54710
 Alpha  occ. eigenvalues --   -0.52668  -0.52523  -0.52466  -0.52312  -0.47963
 Alpha  occ. eigenvalues --   -0.47862  -0.47722  -0.47674  -0.43752  -0.43664
 Alpha  occ. eigenvalues --   -0.36897  -0.36760  -0.35990  -0.35836
 Alpha virt. eigenvalues --    0.05750   0.05889   0.11659   0.11814   0.17166
 Alpha virt. eigenvalues --    0.17310   0.21706   0.21915   0.27564   0.27778
 Alpha virt. eigenvalues --    0.28554   0.28924   0.31133   0.31502   0.32736

 Mulliken charges:
               1
     1  C   -0.172011
     2  C   -0.218629
     3  C   -0.171964
     4  C    0.158713
     5  C   -0.171528
     6  C   -0.218630
     7  H    0.222718
     8  H    0.219681
     9  H    0.278174
    10  H    0.275101
    11  H    0.221301
    12  N    0.486810
    13  O   -0.464794
    14  O   -0.445753
    15  C   -0.172199
    16  C   -0.218505
    17  C   -0.172328
    18  C    0.160349
    19  C   -0.171242
    20  C   -0.218377
    21  H    0.223311
    22  H    0.220131
    23  H    0.272312
    24  H    0.276470
    25  H    0.222139
    26  N    0.488512
    27  O   -0.456992
    28  O   -0.452772
 Sum of Mulliken charges =  -0.00000

 Dipole moment (field-independent basis, Debye):
    X=              0.6806    Y=              7.5406    Z=             -1.4147  Tot=              7.7023
 Quadrupole moment (field-independent basis, Debye-Ang):
   XX=            -57.7773   YY=           -105.0498   ZZ=           -104.3560
   XY=             -2.1589   XZ=             -4.0739   YZ=              3.6648

 Normal termination of Gaussian 16 at Wed May  5 16:12:06 2021.
