 Gaussian 16, Revision A.03,
 Gaussian 16:  EM64L-G16RevA.03 25-Dec-2016

 -------------
 #p 6-31g* mp2
 -------------

 ------------------------------------------------------
 Input file generated by CHIRIPA (05-May-2021 14:51:13)
 ------------------------------------------------------
 Symbolic Z-matrix:
 Charge =  0 Multiplicity = 1

                         Standard orientation:
 ---------------------------------------------------------------------
 Center     Atomic      Atomic             Coordinates (Angstroms)
 Number     Number       Type             X           Y           Z
 ---------------------------------------------------------------------
      1          6           0       -5.250967   -0.099723   -0.150960
      2          6           0       -5.609568   -1.512818    0.310074
      3          6           0       -7.118915   -1.748439    0.374476
      4          1           0       -5.708479    0.629100    0.532009
      5          1           0       -5.693454    0.078877   -1.140759
      6          1           0       -5.165376   -1.689190    1.298104
      7          1           0       -5.150990   -2.238365   -0.373960
      8          1           0       -7.574405   -1.599560   -0.609884
      9          1           0       -7.588873   -1.047264    1.071681
     10          1           0       -7.352777   -2.764838    0.706291
     11          6           0       -3.745652    0.151141   -0.220402
     12          6           0       -3.387051    1.564236   -0.681436
     13          6           0       -1.877704    1.799857   -0.745837
     14          1           0       -3.303165   -0.027459    0.769397
     15          1           0       -3.288140   -0.577682   -0.903370
     16          1           0       -3.845629    2.289783    0.002599
     17          1           0       -3.831243    1.740608   -1.669466
     18          1           0       -1.407745    1.098682   -1.443042
     19          1           0       -1.422213    1.650978    0.238523
     20          1           0       -1.643841    2.816256   -1.077653
     21          6           0        4.912711   -0.439727   -0.304515
     22          6           0        6.301645   -0.796474    0.226125
     23          6           0        7.118656   -1.624855   -0.765879
     24          1           0        4.370812   -1.364368   -0.546032
     25          1           0        5.019274    0.115330   -1.246826
     26          1           0        6.192529   -1.349492    1.167868
     27          1           0        6.840230    0.129118    0.466588
     28          1           0        7.257025   -1.076706   -1.703422
     29          1           0        6.605643   -2.563718   -0.998157
     30          1           0        8.107956   -1.868684   -0.366263
     31          6           0        4.083908    0.388310    0.675877
     32          6           0        2.694974    0.745056    0.145236
     33          6           0        1.877963    1.573437    1.137240
     34          1           0        3.977344   -0.166748    1.618187
     35          1           0        4.625807    1.312951    0.917394
     36          1           0        2.156389   -0.180537   -0.095227
     37          1           0        2.804090    1.298074   -0.796507
     38          1           0        2.390976    2.512300    1.369519
     39          1           0        1.739594    1.025288    2.074784
     40          1           0        0.888662    1.817266    0.737625
 ---------------------------------------------------------------------

 SCF Done:  E(RHF) =  -470.733221378     A.U. after   11 cycles
 E2 =    -0.1582248760D+01 EUMP2 =    -0.47231547013830D+03

 The electronic state is 1-A.
 Alpha  occ. eigenvalues --  -11.21621 -11.21609 -11.21574 -11.21529 -11.21416
 Alpha  occ. eigenvalues --  -11.21361 -11.21356 -11.21299 -11.21098 -11.21077
 Alpha  occ. eigenvalues --  -11.21050 -11.20946  -1.08444  -1.08381  -1.03552
 Alpha  occ. eigenvalues --   -1.03470  -0.96021  -0.95906  -0.87059  -0.86906
 Alpha  occ. eigenvalues --   -0.79632  -0.79521  -0.78255  -0.78195  -0.65074
 Alpha  occ. eigenvalues --   -0.65012  -0.60960  -0.60871  -0.59364  -0.59320
 Alpha  occ. eigenvalues --   -0.57700  -0.57457  -0.55298  -0.55209  -0.52854
 Alpha  occ. eigenvalues --   -0.52632  -0.52429  -0.52176  -0.49932  -0.49862
 Alpha  occ. eigenvalues --   -0.47991  -0.47779  -0.46636  -0.46573  -0.45796
 Alpha  occ. eigenvalues --   -0.45741  -0.45714  -0.45663  -0.43819  -0.43681
 Alpha virt. eigenvalues --    0.22452   0.22955   0.23560   0.24689   0.26444
 Alpha virt. eigenvalues --    0.26681   0.26814   0.27578   0.27611   0.28892
 Alpha virt. eigenvalues --    0.30374   0.31419   0.31539   0.31876   0.32052

 Mulliken charges:
               1
     1  C   -0.298312
     2  C   -0.299663
     3  C   -0.475715
     4  H    0.149721
     5  H    0.149560
     6  H    0.151954
     7  H    0.151923
     8  H    0.155198
     9  H    0.155215
    10  H    0.160267
    11  C   -0.298494
    12  C   -0.299827
    13  C   -0.479668
    14  H    0.149765
    15  H    0.149648
    16  H    0.152142
    17  H    0.152005
    18  H    0.155835
    19  H    0.158478
    20  H    0.160544
    21  C   -0.298190
    22  C   -0.299594
    23  C   -0.475671
    24  H    0.149508
    25  H    0.149433
    26  H    0.151853
    27  H    0.151889
    28  H    0.155132
    29  H    0.155109
    30  H    0.160150
    31  C   -0.298317
    32  C   -0.298610
    33  C   -0.484359
    34  H    0.149294
    35  H    0.149503
    36  H    0.151739
    37  H    0.151841
    38  H    0.154552
    39  H    0.153956
    40  H    0.170207
 Sum of Mulliken charges =  -0.00000

 Dipole moment (field-independent basis, Debye):
    X=             -0.0398    Y=              0.0086    Z=             -0.0125  Tot=              0.0426
 Quadrupole moment (field-independent basis, Debye-Ang):
   XX=            -86.4132   YY=            -84.3993   ZZ=            -84.0757
   XY=              0.4028   XZ=              0.3271   YZ=             -0.3912

 Normal termination of Gaussian 16 at Wed May  5 15:20:25 2021.
