 Gaussian 16, Revision A.03,
 Gaussian 16:  EM64L-G16RevA.03 25-Dec-2016

 -------------
 #p 6-31g* mp2
 -------------

 ------------------------------------------------------
 Input file generated by CHIRIPA (05-May-2021 14:57:24)
 ------------------------------------------------------
 Symbolic Z-matrix:
 Charge =  0 Multiplicity = 1

                         Standard orientation:
 ---------------------------------------------------------------------
 Center     Atomic      Atomic             Coordinates (Angstroms)
 Number     Number       Type             X           Y           Z
 ---------------------------------------------------------------------
      1          6           0       -5.830515   -1.580808    0.213537
      2          6           0       -5.302514   -1.194619   -1.022826
      3          6           0       -4.248829   -0.278211   -1.089860
      4          6           0       -3.745012    0.234431    0.104567
      5          6           0       -4.249652   -0.130697    1.351687
      6          6           0       -5.303328   -1.048553    1.394766
      7          1           0       -6.649039   -2.293258    0.256307
      8          1           0       -5.709951   -1.606342   -1.941805
      9          1           0       -3.821168    0.038095   -2.033510
     10          1           0       -3.822611    0.296937    2.250678
     11          1           0       -5.711400   -1.346655    2.356357
     12          7           0       -2.629528    1.205357    0.046281
     13          8           0       -2.203297    1.642467    1.113005
     14          8           0       -2.202563    1.510875   -1.065023
     15          6           0        1.853480    1.130242   -0.893625
     16          6           0        2.098898   -0.182396   -1.309884
     17          6           0        3.245561   -0.859571   -0.884270
     18          6           0        4.129497   -0.190872   -0.038818
     19          6           0        3.912851    1.116661    0.393286
     20          6           0        2.759642    1.774445   -0.044865
     21          1           0        0.960182    1.648757   -1.229123
     22          1           0        1.396908   -0.685177   -1.969025
     23          1           0        3.460147   -1.876020   -1.191193
     24          1           0        4.631044    1.591676    1.050534
     25          1           0        2.571624    2.793831    0.280014
     26          7           0        5.346882   -0.897503    0.418396
     27          8           0        6.110084   -0.286275    1.163083
     28          8           0        5.514815   -2.049209    0.023417
 ---------------------------------------------------------------------

 SCF Done:  E(RHF) =  -868.340593232     A.U. after   16 cycles
 E2 =    -0.2598176856D+01 EUMP2 =    -0.87093877008772D+03

 The electronic state is 1-A.
 Alpha  occ. eigenvalues --  -20.61856 -20.61819 -20.60081 -20.60073 -15.86851
 Alpha  occ. eigenvalues --  -15.85129 -11.31926 -11.30270 -11.28474 -11.28436
 Alpha  occ. eigenvalues --  -11.28135 -11.27408 -11.27382 -11.26869 -11.26827
 Alpha  occ. eigenvalues --  -11.26290 -11.25749 -11.25679  -1.60896  -1.59162
 Alpha  occ. eigenvalues --   -1.40457  -1.38722  -1.20067  -1.18411  -1.09516
 Alpha  occ. eigenvalues --   -1.07795  -1.05425  -1.03800  -0.96400  -0.94673
 Alpha  occ. eigenvalues --   -0.86836  -0.85178  -0.83243  -0.81535  -0.78324
 Alpha  occ. eigenvalues --   -0.76658  -0.73086  -0.72193  -0.71350  -0.71168
 Alpha  occ. eigenvalues --   -0.70485  -0.69375  -0.65722  -0.65421  -0.64041
 Alpha  occ. eigenvalues --   -0.63782  -0.62775  -0.61170  -0.55932  -0.54114
 Alpha  occ. eigenvalues --   -0.53766  -0.53510  -0.52125  -0.51875  -0.49852
 Alpha  occ. eigenvalues --   -0.49814  -0.48118  -0.48084  -0.45921  -0.44179
 Alpha  occ. eigenvalues --   -0.38026  -0.37014  -0.36297  -0.35432
 Alpha virt. eigenvalues --    0.04172   0.05897   0.10645   0.12246   0.15724
 Alpha virt. eigenvalues --    0.17470   0.20823   0.22605   0.26753   0.27684
 Alpha virt. eigenvalues --    0.28258   0.29633   0.30451   0.31869   0.32364

 Mulliken charges:
               1
     1  C   -0.169627
     2  C   -0.218460
     3  C   -0.171264
     4  C    0.157775
     5  C   -0.170022
     6  C   -0.218431
     7  H    0.228312
     8  H    0.225275
     9  H    0.274098
    10  H    0.277062
    11  H    0.226197
    12  N    0.489524
    13  O   -0.457028
    14  O   -0.470139
    15  C   -0.174349
    16  C   -0.221921
    17  C   -0.172308
    18  C    0.156686
    19  C   -0.171958
    20  C   -0.219228
    21  H    0.248233
    22  H    0.220512
    23  H    0.271244
    24  H    0.272697
    25  H    0.225378
    26  N    0.488353
    27  O   -0.462714
    28  O   -0.463897
 Sum of Mulliken charges =  -0.00000

 Dipole moment (field-independent basis, Debye):
    X=             -8.7779    Y=             -0.8365    Z=             -1.3339  Tot=              8.9180
 Quadrupole moment (field-independent basis, Debye-Ang):
   XX=           -112.1009   YY=           -104.9719   ZZ=            -98.8131
   XY=             25.3738   XZ=             -7.2055   YZ=              2.6417

 Normal termination of Gaussian 16 at Thu May  6 01:53:36 2021.
