 Gaussian 16, Revision A.03,
 Gaussian 16:  EM64L-G16RevA.03 25-Dec-2016

 -------------
 #p 6-31g* mp2
 -------------

 ------------------------------------------------------
 Input file generated by CHIRIPA (05-May-2021 14:55:18)
 ------------------------------------------------------
 Symbolic Z-matrix:
 Charge =  0 Multiplicity = 1

                         Standard orientation:
 ---------------------------------------------------------------------
 Center     Atomic      Atomic             Coordinates (Angstroms)
 Number     Number       Type             X           Y           Z
 ---------------------------------------------------------------------
      1          6           0       -4.140004    1.375349   -1.434421
      2          6           0       -2.750660    1.325018   -1.588406
      3          6           0       -1.968272    0.551384   -0.725905
      4          6           0       -2.611120   -0.162514    0.284236
      5          6           0       -3.993270   -0.132769    0.463310
      6          6           0       -4.755789    0.647578   -0.410859
      7          1           0       -4.740064    1.978934   -2.108964
      8          1           0       -2.269721    1.889179   -2.382424
      9          1           0       -0.890846    0.494418   -0.822478
     10          1           0       -4.444113   -0.706066    1.264240
     11          1           0       -5.834578    0.684779   -0.288899
     12          7           0       -1.793358   -0.985079    1.203503
     13          8           0       -2.383838   -1.604811    2.085491
     14          8           0       -0.577400   -0.994499    1.024629
     15          6           0        3.563854   -0.471888   -0.739632
     16          6           0        3.004642   -1.848170   -0.377536
     17          6           0        3.109967   -2.850291   -1.527516
     18          1           0        3.027012   -0.084049   -1.616175
     19          1           0        4.615663   -0.578424   -1.039199
     20          1           0        1.954594   -1.738880   -0.077414
     21          1           0        3.542747   -2.232694    0.498364
     22          1           0        4.154915   -2.988778   -1.823330
     23          1           0        2.557739   -2.492158   -2.402379
     24          1           0        2.704445   -3.827382   -1.246973
     25          6           0        3.465643    0.540868    0.399845
     26          6           0        4.024854    1.917150    0.037749
     27          6           0        3.919530    2.919271    1.187728
     28          1           0        2.413833    0.647404    0.699412
     29          1           0        4.002485    0.153030    1.276388
     30          1           0        3.486749    2.301674   -0.838151
     31          1           0        5.074902    1.807861   -0.262373
     32          1           0        4.471758    2.561138    2.062592
     33          1           0        2.874582    3.057758    1.483543
     34          1           0        4.325053    3.896363    0.907186
 ---------------------------------------------------------------------

 SCF Done:  E(RHF) =  -669.536183362     A.U. after   15 cycles
 E2 =    -0.2091334665D+01 EUMP2 =    -0.67162751802679D+03

 The electronic state is 1-A.
 Alpha  occ. eigenvalues --  -20.60993 -20.60975 -15.86027 -11.31329 -11.27897
 Alpha  occ. eigenvalues --  -11.27886 -11.27623 -11.26896 -11.26885 -11.21204
 Alpha  occ. eigenvalues --  -11.20756 -11.20733 -11.20681 -11.20530 -11.20349
 Alpha  occ. eigenvalues --   -1.60047  -1.39605  -1.19497  -1.08902  -1.07775
 Alpha  occ. eigenvalues --   -1.04892  -1.02895  -0.95748  -0.95384  -0.86404
 Alpha  occ. eigenvalues --   -0.86293  -0.82586  -0.78952  -0.77685  -0.77494
 Alpha  occ. eigenvalues --   -0.72251  -0.71359  -0.70606  -0.65158  -0.64895
 Alpha  occ. eigenvalues --   -0.64409  -0.62241  -0.60297  -0.58751  -0.56967
 Alpha  occ. eigenvalues --   -0.55395  -0.54691  -0.53223  -0.52984  -0.52090
 Alpha  occ. eigenvalues --   -0.51798  -0.49351  -0.49009  -0.48997  -0.47270
 Alpha  occ. eigenvalues --   -0.45992  -0.45125  -0.45042  -0.44888  -0.43148
 Alpha  occ. eigenvalues --   -0.37473  -0.36492
 Alpha virt. eigenvalues --    0.04873   0.11162   0.16364   0.20749   0.22979
 Alpha virt. eigenvalues --    0.24853   0.26244   0.27438   0.27800   0.28379
 Alpha virt. eigenvalues --    0.29144   0.31163   0.31908   0.32315   0.32506

 Mulliken charges:
               1
     1  C   -0.170533
     2  C   -0.218517
     3  C   -0.170822
     4  C    0.157774
     5  C   -0.170699
     6  C   -0.218524
     7  H    0.226191
     8  H    0.224058
     9  H    0.275312
    10  H    0.275963
    11  H    0.223985
    12  N    0.495624
    13  O   -0.458252
    14  O   -0.468165
    15  C   -0.296173
    16  C   -0.311784
    17  C   -0.474586
    18  H    0.140901
    19  H    0.146197
    20  H    0.179318
    21  H    0.151275
    22  H    0.151235
    23  H    0.149270
    24  H    0.161262
    25  C   -0.301593
    26  C   -0.298534
    27  C   -0.474976
    28  H    0.158716
    29  H    0.150954
    30  H    0.145892
    31  H    0.150772
    32  H    0.156484
    33  H    0.154622
    34  H    0.157353
 Sum of Mulliken charges =  -0.00000

 Dipole moment (field-independent basis, Debye):
    X=             -3.1471    Y=              2.8259    Z=             -3.0721  Tot=              5.2276
 Quadrupole moment (field-independent basis, Debye-Ang):
   XX=            -76.1518   YY=            -96.9858   ZZ=            -96.6214
   XY=             -6.3238   XZ=              6.3224   YZ=             -0.5148

 Normal termination of Gaussian 16 at Thu May  6 15:41:12 2021.
