 Gaussian 16, Revision A.03,
 Gaussian 16:  EM64L-G16RevA.03 25-Dec-2016

 -------------
 #p 6-31g* mp2
 -------------

 ------------------------------------------------------
 Input file generated by CHIRIPA (05-May-2021 14:55:21)
 ------------------------------------------------------
 Symbolic Z-matrix:
 Charge =  0 Multiplicity = 1

                         Standard orientation:
 ---------------------------------------------------------------------
 Center     Atomic      Atomic             Coordinates (Angstroms)
 Number     Number       Type             X           Y           Z
 ---------------------------------------------------------------------
      1          6           0       -0.608122    0.014708    0.420204
      2          6           0       -1.455921    0.769859    1.237213
      3          6           0       -2.839705    0.745347    1.039506
      4          6           0       -3.343932   -0.048935    0.010836
      5          6           0       -2.525241   -0.812442   -0.819882
      6          6           0       -1.144542   -0.772645   -0.603931
      7          1           0        0.465636    0.039686    0.580873
      8          1           0       -1.042125    1.382236    2.033336
      9          1           0       -3.518977    1.320139    1.657261
     10          1           0       -2.967186   -1.413316   -1.605409
     11          1           0       -0.488534   -1.360135   -1.239976
     12          7           0       -4.807249   -0.082975   -0.208125
     13          8           0       -5.226608   -0.790821   -1.121213
     14          8           0       -5.507131    0.598834    0.537488
     15          6           0        3.736207   -0.587066    0.279381
     16          6           0        4.526896   -1.823751   -0.148875
     17          6           0        4.044368   -3.101292    0.538766
     18          1           0        3.812718   -0.469980    1.369051
     19          1           0        2.672046   -0.745320    0.055972
     20          1           0        5.589434   -1.662653    0.074007
     21          1           0        4.448652   -1.937797   -1.237676
     22          1           0        2.991082   -3.289384    0.306790
     23          1           0        4.138346   -3.012676    1.625926
     24          1           0        4.623290   -3.973015    0.218131
     25          6           0        4.206858    0.697976   -0.399505
     26          6           0        3.416169    1.934661    0.028752
     27          6           0        3.898697    3.212202   -0.658890
     28          1           0        5.271019    0.856231   -0.176095
     29          1           0        4.130348    0.580891   -1.489175
     30          1           0        3.494413    2.048708    1.117553
     31          1           0        2.353631    1.773563   -0.194131
     32          1           0        3.804719    3.123586   -1.746050
     33          1           0        4.951983    3.400295   -0.426914
     34          1           0        3.319777    4.083925   -0.338254
 ---------------------------------------------------------------------

 SCF Done:  E(RHF) =  -669.535459567     A.U. after   15 cycles
 E2 =    -0.2091696544D+01 EUMP2 =    -0.67162715611108D+03

 The electronic state is 1-A.
 Alpha  occ. eigenvalues --  -20.60730 -20.60725 -15.85784 -11.31143 -11.27716
 Alpha  occ. eigenvalues --  -11.27708 -11.27396 -11.26727 -11.26708 -11.22667
 Alpha  occ. eigenvalues --  -11.22634 -11.22540 -11.22389 -11.21925 -11.21878
 Alpha  occ. eigenvalues --   -1.59806  -1.39360  -1.19313  -1.09494  -1.08704
 Alpha  occ. eigenvalues --   -1.04718  -1.04485  -0.96923  -0.95543  -0.87932
 Alpha  occ. eigenvalues --   -0.86113  -0.82382  -0.80562  -0.79353  -0.77428
 Alpha  occ. eigenvalues --   -0.72002  -0.71129  -0.70435  -0.66121  -0.64962
 Alpha  occ. eigenvalues --   -0.64718  -0.62069  -0.61876  -0.60291  -0.58549
 Alpha  occ. eigenvalues --   -0.56225  -0.55225  -0.53571  -0.53339  -0.53043
 Alpha  occ. eigenvalues --   -0.52808  -0.50861  -0.48872  -0.48762  -0.48757
 Alpha  occ. eigenvalues --   -0.47605  -0.46826  -0.46776  -0.44770  -0.44767
 Alpha  occ. eigenvalues --   -0.37281  -0.36326
 Alpha virt. eigenvalues --    0.05087   0.11328   0.16504   0.19162   0.22594
 Alpha virt. eigenvalues --    0.23262   0.24892   0.25886   0.26956   0.27254
 Alpha virt. eigenvalues --    0.29912   0.30518   0.30821   0.31125   0.31831

 Mulliken charges:
               1
     1  C   -0.179570
     2  C   -0.220534
     3  C   -0.170644
     4  C    0.158254
     5  C   -0.170797
     6  C   -0.221633
     7  H    0.239646
     8  H    0.224137
     9  H    0.275374
    10  H    0.275388
    11  H    0.222074
    12  N    0.488017
    13  O   -0.460607
    14  O   -0.460511
    15  C   -0.302677
    16  C   -0.300074
    17  C   -0.475962
    18  H    0.151712
    19  H    0.139926
    20  H    0.156133
    21  H    0.153405
    22  H    0.152270
    23  H    0.157021
    24  H    0.164278
    25  C   -0.298505
    26  C   -0.303815
    27  C   -0.475821
    28  H    0.154226
    29  H    0.151895
    30  H    0.151953
    31  H    0.147270
    32  H    0.157681
    33  H    0.158010
    34  H    0.162478
 Sum of Mulliken charges =  -0.00000

 Dipole moment (field-independent basis, Debye):
    X=              5.4439    Y=              0.1427    Z=              0.7603  Tot=              5.4985
 Quadrupole moment (field-independent basis, Debye-Ang):
   XX=           -128.1953   YY=            -93.7907   ZZ=            -91.7400
   XY=             -1.2603   XZ=             -2.5868   YZ=              3.2724

 Normal termination of Gaussian 16 at Wed May  5 17:27:16 2021.
