 Gaussian 16, Revision A.03,
 Gaussian 16:  EM64L-G16RevA.03 25-Dec-2016

 -------------
 #p 6-31g* mp2
 -------------

 ------------------------------------------------------
 Input file generated by CHIRIPA (05-May-2021 14:57:22)
 ------------------------------------------------------
 Symbolic Z-matrix:
 Charge =  0 Multiplicity = 1

                         Standard orientation:
 ---------------------------------------------------------------------
 Center     Atomic      Atomic             Coordinates (Angstroms)
 Number     Number       Type             X           Y           Z
 ---------------------------------------------------------------------
      1          6           0       -4.400313    0.513800   -1.540849
      2          6           0       -4.807438   -0.287965   -0.469428
      3          6           0       -3.914476   -0.607423    0.557758
      4          6           0       -2.616074   -0.105838    0.481236
      5          6           0       -2.180452    0.695377   -0.573077
      6          6           0       -3.090428    1.002052   -1.589169
      7          1           0       -5.100596    0.756998   -2.334483
      8          1           0       -5.824095   -0.668547   -0.429278
      9          1           0       -4.203194   -1.226009    1.398836
     10          1           0       -1.160499    1.060016   -0.585443
     11          1           0       -2.771476    1.624935   -2.420030
     12          7           0       -1.661729   -0.437268    1.562800
     13          8           0       -0.523322    0.017076    1.472033
     14          8           0       -2.070190   -1.145111    2.480817
     15          6           0        2.706421    2.445384    0.490364
     16          6           0        1.798026    2.002787   -0.476823
     17          6           0        1.825931    0.678410   -0.923806
     18          6           0        2.779833   -0.180244   -0.379680
     19          6           0        3.698236    0.230740    0.585161
     20          6           0        3.651959    1.559509    1.017339
     21          1           0        2.677607    3.475898    0.831841
     22          1           0        1.062612    2.688553   -0.887844
     23          1           0        1.134459    0.309308   -1.671501
     24          1           0        4.419795   -0.476220    0.976286
     25          1           0        4.358665    1.900463    1.768580
     26          7           0        2.819100   -1.584628   -0.845043
     27          8           0        3.669229   -2.321386   -0.349963
     28          8           0        1.999005   -1.922034   -1.696066
 ---------------------------------------------------------------------

 SCF Done:  E(RHF) =  -868.336286706     A.U. after   16 cycles
 E2 =    -0.2602359121D+01 EUMP2 =    -0.87093864582744D+03

 The electronic state is 1-A.
 Alpha  occ. eigenvalues --  -20.60903 -20.60880 -20.60221 -20.60202 -15.85943
 Alpha  occ. eigenvalues --  -15.85270 -11.31391 -11.30563 -11.28029 -11.27919
 Alpha  occ. eigenvalues --  -11.27693 -11.27298 -11.27150 -11.27040 -11.26962
 Alpha  occ. eigenvalues --  -11.26950 -11.26318 -11.26149  -1.59967  -1.59281
 Alpha  occ. eigenvalues --   -1.39521  -1.38844  -1.19561  -1.18758  -1.08934
 Alpha  occ. eigenvalues --   -1.08172  -1.04997  -1.04226  -0.95769  -0.95026
 Alpha  occ. eigenvalues --   -0.86385  -0.85630  -0.82608  -0.81913  -0.77671
 Alpha  occ. eigenvalues --   -0.76940  -0.72181  -0.71512  -0.71285  -0.70696
 Alpha  occ. eigenvalues --   -0.70572  -0.69943  -0.65222  -0.65024  -0.64470
 Alpha  occ. eigenvalues --   -0.64304  -0.62441  -0.61547  -0.55471  -0.54743
 Alpha  occ. eigenvalues --   -0.53289  -0.53123  -0.52394  -0.52385  -0.48939
 Alpha  occ. eigenvalues --   -0.48908  -0.48263  -0.48251  -0.44919  -0.44269
 Alpha  occ. eigenvalues --   -0.37519  -0.36678  -0.36588  -0.35713
 Alpha virt. eigenvalues --    0.04867   0.05628   0.10999   0.11938   0.16386
 Alpha virt. eigenvalues --    0.16915   0.20133   0.22253   0.25770   0.27665
 Alpha virt. eigenvalues --    0.28530   0.29657   0.30746   0.31252   0.32607

 Mulliken charges:
               1
     1  C   -0.169838
     2  C   -0.218138
     3  C   -0.168978
     4  C    0.158178
     5  C   -0.173189
     6  C   -0.219841
     7  H    0.226529
     8  H    0.224862
     9  H    0.277106
    10  H    0.273220
    11  H    0.220740
    12  N    0.488860
    13  O   -0.463475
    14  O   -0.458195
    15  C   -0.166895
    16  C   -0.213861
    17  C   -0.158408
    18  C    0.164168
    19  C   -0.166686
    20  C   -0.216519
    21  H    0.223266
    22  H    0.210563
    23  H    0.265539
    24  H    0.275181
    25  H    0.222267
    26  N    0.488882
    27  O   -0.460282
    28  O   -0.465059
 Sum of Mulliken charges =  -0.00000

 Dipole moment (field-independent basis, Debye):
    X=             -3.5155    Y=              5.9565    Z=             -1.9216  Tot=              7.1785
 Quadrupole moment (field-independent basis, Debye-Ang):
   XX=            -82.2454   YY=           -106.8402   ZZ=           -107.9915
   XY=             12.7247   XZ=             14.4053   YZ=             -3.1765

 Normal termination of Gaussian 16 at Fri May  7 06:22:50 2021.
