 Gaussian 16, Revision A.03,
 Gaussian 16:  EM64L-G16RevA.03 25-Dec-2016

 -------------
 #p 6-31g* mp2
 -------------

 ------------------------------------------------------
 Input file generated by CHIRIPA (05-May-2021 14:53:16)
 ------------------------------------------------------
 Symbolic Z-matrix:
 Charge =  0 Multiplicity = 1

                         Standard orientation:
 ---------------------------------------------------------------------
 Center     Atomic      Atomic             Coordinates (Angstroms)
 Number     Number       Type             X           Y           Z
 ---------------------------------------------------------------------
      1          6           0       -4.185102   -0.040863   -0.013081
      2          6           0       -3.853642   -1.314227   -0.791968
      3          6           0       -5.004139   -2.321271   -0.795704
      4          1           0       -4.443919   -0.307880    1.020679
      5          1           0       -5.079824    0.424820   -0.448980
      6          1           0       -2.959003   -1.776629   -0.355595
      7          1           0       -3.595399   -1.044131   -1.823943
      8          1           0       -5.898462   -1.882766   -1.250128
      9          1           0       -5.258450   -2.619426    0.226564
     10          1           0       -4.745709   -3.223969   -1.358028
     11          6           0       -3.044752    0.975584   -0.000256
     12          6           0       -3.376212    2.248948    0.778630
     13          6           0       -2.225716    3.255992    0.782366
     14          1           0       -2.150031    0.509901    0.435642
     15          1           0       -2.785936    1.242601   -1.034017
     16          1           0       -3.634456    1.978851    1.810606
     17          1           0       -4.270852    2.711349    0.342257
     18          1           0       -1.971404    3.554147   -0.239902
     19          1           0       -1.331393    2.817487    1.236790
     20          1           0       -2.484146    4.158690    1.344691
     21          6           0        0.977154   -1.844950    0.879627
     22          6           0        2.282186   -1.996685    1.359614
     23          6           0        3.313440   -1.182308    0.882273
     24          6           0        3.002724   -0.222061   -0.079325
     25          6           0        1.712531   -0.046572   -0.577217
     26          6           0        0.696986   -0.872093   -0.085556
     27          1           0        0.182153   -2.481906    1.255999
     28          1           0        2.502689   -2.751383    2.109184
     29          1           0        4.332614   -1.278324    1.236509
     30          1           0        1.523497    0.714552   -1.324460
     31          1           0       -0.315591   -0.752005   -0.460139
     32          7           0        4.086151    0.645982   -0.592245
     33          8           0        3.786429    1.484526   -1.439385
     34          8           0        5.214549    0.471372   -0.137419
 ---------------------------------------------------------------------

 SCF Done:  E(RHF) =  -669.535527540     A.U. after   15 cycles
 E2 =    -0.2091825715D+01 EUMP2 =    -0.67162735325545D+03

 The electronic state is 1-A.
 Alpha  occ. eigenvalues --  -20.60728 -20.60723 -15.85780 -11.31144 -11.27718
 Alpha  occ. eigenvalues --  -11.27697 -11.27458 -11.26736 -11.26658 -11.22625
 Alpha  occ. eigenvalues --  -11.22305 -11.22225 -11.22201 -11.21872 -11.21520
 Alpha  occ. eigenvalues --   -1.59803  -1.39357  -1.19315  -1.09277  -1.08712
 Alpha  occ. eigenvalues --   -1.04713  -1.04281  -0.96709  -0.95548  -0.87723
 Alpha  occ. eigenvalues --   -0.86117  -0.82379  -0.80365  -0.79136  -0.77414
 Alpha  occ. eigenvalues --   -0.71999  -0.71126  -0.70429  -0.65946  -0.64965
 Alpha  occ. eigenvalues --   -0.64689  -0.62064  -0.61674  -0.60089  -0.58330
 Alpha  occ. eigenvalues --   -0.55989  -0.55222  -0.53387  -0.53178  -0.53037
 Alpha  occ. eigenvalues --   -0.52776  -0.50648  -0.48764  -0.48754  -0.48670
 Alpha  occ. eigenvalues --   -0.47410  -0.46596  -0.46541  -0.44762  -0.44556
 Alpha  occ. eigenvalues --   -0.37299  -0.36307
 Alpha virt. eigenvalues --    0.05104   0.11238   0.16553   0.19494   0.22647
 Alpha virt. eigenvalues --    0.23542   0.24915   0.25822   0.27238   0.27996
 Alpha virt. eigenvalues --    0.29393   0.30845   0.30942   0.31237   0.31553

 Mulliken charges:
               1
     1  C   -0.298113
     2  C   -0.301229
     3  C   -0.476031
     4  H    0.151092
     5  H    0.153931
     6  H    0.141803
     7  H    0.153989
     8  H    0.159007
     9  H    0.156177
    10  H    0.161876
    11  C   -0.304638
    12  C   -0.299565
    13  C   -0.477314
    14  H    0.145650
    15  H    0.149602
    16  H    0.153158
    17  H    0.154577
    18  H    0.156451
    19  H    0.156554
    20  H    0.163602
    21  C   -0.173049
    22  C   -0.218433
    23  C   -0.171166
    24  C    0.158797
    25  C   -0.172688
    26  C   -0.224937
    27  H    0.224834
    28  H    0.223141
    29  H    0.275458
    30  H    0.276084
    31  H    0.234323
    32  N    0.488044
    33  O   -0.460343
    34  O   -0.460645
 Sum of Mulliken charges =  -0.00000

 Dipole moment (field-independent basis, Debye):
    X=             -4.0210    Y=             -2.9690    Z=              1.8074  Tot=              5.3150
 Quadrupole moment (field-independent basis, Debye-Ang):
   XX=           -115.4383   YY=            -93.0796   ZZ=            -93.0199
   XY=            -11.0083   XZ=              8.3388   YZ=             -2.1674

 Normal termination of Gaussian 16 at Thu May  6 12:12:39 2021.
