 Gaussian 16, Revision A.03,
 Gaussian 16:  EM64L-G16RevA.03 25-Dec-2016

 -------------
 #p 6-31g* mp2
 -------------

 ------------------------------------------------------
 Input file generated by CHIRIPA (05-May-2021 14:51:11)
 ------------------------------------------------------
 Symbolic Z-matrix:
 Charge =  0 Multiplicity = 1

                         Standard orientation:
 ---------------------------------------------------------------------
 Center     Atomic      Atomic             Coordinates (Angstroms)
 Number     Number       Type             X           Y           Z
 ---------------------------------------------------------------------
      1          6           0       -4.771222   -0.245853   -0.513657
      2          6           0       -5.533741   -1.149094    0.456243
      3          6           0       -6.546158   -2.052243   -0.248830
      4          1           0       -5.488982    0.371073   -1.071481
      5          1           0       -4.253276   -0.870099   -1.254902
      6          1           0       -6.048972   -0.523384    1.196269
      7          1           0       -4.814070   -1.763805    1.011958
      8          1           0       -6.044318   -2.700524   -0.974426
      9          1           0       -7.286238   -1.453054   -0.789068
     10          1           0       -7.079917   -2.689423    0.463184
     11          6           0       -3.755404    0.662937    0.176229
     12          6           0       -2.992885    1.566178   -0.793671
     13          6           0       -1.980467    2.469327   -0.088599
     14          1           0       -4.273350    1.287183    0.917474
     15          1           0       -3.037644    0.046011    0.734052
     16          1           0       -3.712556    2.180889   -1.349387
     17          1           0       -2.477654    0.940467   -1.533697
     18          1           0       -1.240388    1.870138    0.451640
     19          1           0       -2.482307    3.117607    0.636997
     20          1           0       -1.446709    3.106506   -0.800612
     21          6           0        3.693814    0.268951    0.345078
     22          6           0        2.388005   -0.446759    0.692363
     23          6           0        1.258122    0.521876    1.042938
     24          1           0        3.997364    0.896831    1.193941
     25          1           0        3.517513    0.949257   -0.499611
     26          1           0        2.567043   -1.126537    1.535252
     27          1           0        2.087631   -1.073156   -0.157354
     28          1           0        1.050765    1.192244    0.202575
     29          1           0        1.532901    1.138559    1.904797
     30          1           0        0.334037   -0.010978    1.287871
     31          6           0        4.832811   -0.686035   -0.007649
     32          6           0        6.138621    0.029675   -0.354934
     33          6           0        7.268504   -0.938960   -0.705510
     34          1           0        5.009112   -1.366340    0.837038
     35          1           0        4.529262   -1.313915   -0.856513
     36          1           0        6.438995    0.656073    0.494782
     37          1           0        5.959583    0.709454   -1.197824
     38          1           0        6.993725   -1.555642   -1.567369
     39          1           0        7.475861   -1.609327    0.134854
     40          1           0        8.192589   -0.406106   -0.950443
 ---------------------------------------------------------------------

 SCF Done:  E(RHF) =  -470.732774475     A.U. after   11 cycles
 E2 =    -0.1582689341D+01 EUMP2 =    -0.47231546381596D+03

 The electronic state is 1-A.
 Alpha  occ. eigenvalues --  -11.21637 -11.21616 -11.21581 -11.21525 -11.21429
 Alpha  occ. eigenvalues --  -11.21371 -11.21370 -11.21310 -11.21116 -11.21083
 Alpha  occ. eigenvalues --  -11.21056 -11.20874  -1.08458  -1.08384  -1.03573
 Alpha  occ. eigenvalues --   -1.03462  -0.96053  -0.95888  -0.87104  -0.86878
 Alpha  occ. eigenvalues --   -0.79691  -0.79482  -0.78273  -0.78194  -0.65102
 Alpha  occ. eigenvalues --   -0.65007  -0.61054  -0.60803  -0.59411  -0.59269
 Alpha  occ. eigenvalues --   -0.57625  -0.57532  -0.55486  -0.55064  -0.52794
 Alpha  occ. eigenvalues --   -0.52629  -0.52452  -0.52248  -0.50121  -0.49668
 Alpha  occ. eigenvalues --   -0.47960  -0.47822  -0.46734  -0.46469  -0.45822
 Alpha  occ. eigenvalues --   -0.45753  -0.45707  -0.45636  -0.43788  -0.43729
 Alpha virt. eigenvalues --    0.21863   0.23003   0.23703   0.24948   0.26104
 Alpha virt. eigenvalues --    0.26594   0.27162   0.27260   0.27805   0.29099
 Alpha virt. eigenvalues --    0.30286   0.31179   0.31543   0.31823   0.31991

 Mulliken charges:
               1
     1  C   -0.298242
     2  C   -0.299604
     3  C   -0.475675
     4  H    0.149671
     5  H    0.149359
     6  H    0.151926
     7  H    0.151769
     8  H    0.155109
     9  H    0.155165
    10  H    0.160173
    11  C   -0.298614
    12  C   -0.298951
    13  C   -0.485264
    14  H    0.149585
    15  H    0.149258
    16  H    0.151443
    17  H    0.151127
    18  H    0.168893
    19  H    0.154134
    20  H    0.158275
    21  C   -0.298671
    22  C   -0.299915
    23  C   -0.479567
    24  H    0.149833
    25  H    0.149834
    26  H    0.151932
    27  H    0.151870
    28  H    0.159255
    29  H    0.156205
    30  H    0.159480
    31  C   -0.298338
    32  C   -0.299662
    33  C   -0.475721
    34  H    0.149580
    35  H    0.149633
    36  H    0.152015
    37  H    0.151989
    38  H    0.155180
    39  H    0.155200
    40  H    0.160329
 Sum of Mulliken charges =  -0.00000

 Dipole moment (field-independent basis, Debye):
    X=              0.0534    Y=             -0.0026    Z=              0.0188  Tot=              0.0566
 Quadrupole moment (field-independent basis, Debye-Ang):
   XX=            -85.7310   YY=            -85.2066   ZZ=            -84.0183
   XY=             -0.4798   XZ=              0.1498   YZ=             -0.3201

 Normal termination of Gaussian 16 at Wed May  5 19:49:12 2021.
