 Gaussian 16, Revision A.03,
 Gaussian 16:  EM64L-G16RevA.03 25-Dec-2016

 -------------
 #p 6-31g* mp2
 -------------

 ------------------------------------------------------
 Input file generated by CHIRIPA (05-May-2021 14:51:08)
 ------------------------------------------------------
 Symbolic Z-matrix:
 Charge =  0 Multiplicity = 1

                         Standard orientation:
 ---------------------------------------------------------------------
 Center     Atomic      Atomic             Coordinates (Angstroms)
 Number     Number       Type             X           Y           Z
 ---------------------------------------------------------------------
      1          6           0       -2.967304    1.119344   -0.345042
      2          6           0       -2.507424    2.402671    0.347465
      3          6           0       -2.631178    3.635096   -0.548976
      4          1           0       -2.375453    0.970919   -1.258622
      5          1           0       -4.011797    1.237728   -0.665063
      6          1           0       -1.464540    2.281393    0.667312
      7          1           0       -3.100307    2.547958    1.259604
      8          1           0       -3.670927    3.784027   -0.857753
      9          1           0       -2.025866    3.515947   -1.453410
     10          1           0       -2.297072    4.541246   -0.034073
     11          6           0       -2.849602   -0.121373    0.538414
     12          6           0       -3.309482   -1.404700   -0.154094
     13          6           0       -3.185727   -2.637125    0.742348
     14          1           0       -1.805108   -0.239757    0.858435
     15          1           0       -3.441452    0.027053    1.451994
     16          1           0       -2.716598   -1.549986   -1.066232
     17          1           0       -4.352365   -1.283421   -0.473940
     18          1           0       -3.791039   -2.517975    1.646782
     19          1           0       -2.145978   -2.786055    1.051125
     20          1           0       -3.519834   -3.543274    0.227445
     21          6           0        2.215654   -0.746045   -0.302655
     22          6           0        2.078320   -2.268404   -0.263331
     23          6           0        0.686743   -2.747328   -0.677990
     24          1           0        1.460432   -0.298933    0.358160
     25          1           0        1.992103   -0.390806   -1.318148
     26          1           0        2.303412   -2.620795    0.751446
     27          1           0        2.834081   -2.711951   -0.924169
     28          1           0        0.456144   -2.423873   -1.698187
     29          1           0       -0.077539   -2.332200   -0.013053
     30          1           0        0.610688   -3.838580   -0.642711
     31          6           0        3.601252   -0.251927    0.109284
     32          6           0        3.738586    1.270432    0.069959
     33          6           0        5.130162    1.749357    0.484618
     34          1           0        3.824803   -0.607165    1.124777
     35          1           0        4.356474   -0.699038   -0.551531
     36          1           0        2.982824    1.713979    0.730797
     37          1           0        3.513493    1.622823   -0.944817
     38          1           0        5.894445    1.334228   -0.180319
     39          1           0        5.360761    1.425902    1.504816
     40          1           0        5.206217    2.840609    0.449339
 ---------------------------------------------------------------------

 SCF Done:  E(RHF) =  -470.733108301     A.U. after   11 cycles
 E2 =    -0.1583382565D+01 EUMP2 =    -0.47231649086606D+03

 The electronic state is 1-A.
 Alpha  occ. eigenvalues --  -11.21657 -11.21643 -11.21587 -11.21544 -11.21470
 Alpha  occ. eigenvalues --  -11.21405 -11.21389 -11.21328 -11.21114 -11.21100
 Alpha  occ. eigenvalues --  -11.21056 -11.21001  -1.08489  -1.08403  -1.03594
 Alpha  occ. eigenvalues --   -1.03486  -0.96049  -0.95933  -0.87060  -0.86956
 Alpha  occ. eigenvalues --   -0.79652  -0.79554  -0.78308  -0.78215  -0.65191
 Alpha  occ. eigenvalues --   -0.64983  -0.61143  -0.60773  -0.59398  -0.59314
 Alpha  occ. eigenvalues --   -0.57638  -0.57557  -0.55489  -0.55088  -0.52720
 Alpha  occ. eigenvalues --   -0.52637  -0.52476  -0.52337  -0.50099  -0.49766
 Alpha  occ. eigenvalues --   -0.48041  -0.47796  -0.46786  -0.46492  -0.45965
 Alpha  occ. eigenvalues --   -0.45804  -0.45710  -0.45506  -0.43834  -0.43755
 Alpha virt. eigenvalues --    0.20109   0.23057   0.23669   0.24780   0.25355
 Alpha virt. eigenvalues --    0.26465   0.27141   0.27689   0.28552   0.29439
 Alpha virt. eigenvalues --    0.30528   0.31159   0.31774   0.31877   0.32115

 Mulliken charges:
               1
     1  C   -0.298055
     2  C   -0.299659
     3  C   -0.475678
     4  H    0.150191
     5  H    0.149487
     6  H    0.151767
     7  H    0.151760
     8  H    0.155115
     9  H    0.155334
    10  H    0.160153
    11  C   -0.300521
    12  C   -0.301141
    13  C   -0.478362
    14  H    0.149803
    15  H    0.149610
    16  H    0.154365
    17  H    0.152018
    18  H    0.154571
    19  H    0.157881
    20  H    0.160417
    21  C   -0.299226
    22  C   -0.299698
    23  C   -0.482800
    24  H    0.149479
    25  H    0.149475
    26  H    0.152097
    27  H    0.152281
    28  H    0.155012
    29  H    0.162570
    30  H    0.161005
    31  C   -0.298319
    32  C   -0.299687
    33  C   -0.475751
    34  H    0.149764
    35  H    0.149962
    36  H    0.151834
    37  H    0.151945
    38  H    0.155263
    39  H    0.155302
    40  H    0.160438
 Sum of Mulliken charges =  -0.00000

 Dipole moment (field-independent basis, Debye):
    X=              0.0218    Y=             -0.0149    Z=             -0.0158  Tot=              0.0308
 Quadrupole moment (field-independent basis, Debye-Ang):
   XX=            -84.6920   YY=            -85.9430   ZZ=            -84.0649
   XY=             -0.6203   XZ=             -0.8706   YZ=              0.4988

 Normal termination of Gaussian 16 at Thu May  6 02:04:51 2021.
