 Gaussian 16, Revision A.03,
 Gaussian 16:  EM64L-G16RevA.03 25-Dec-2016

 -------------
 #p 6-31g* mp2
 -------------

 ------------------------------------------------------
 Input file generated by CHIRIPA (05-May-2021 14:51:11)
 ------------------------------------------------------
 Symbolic Z-matrix:
 Charge =  0 Multiplicity = 1

                         Standard orientation:
 ---------------------------------------------------------------------
 Center     Atomic      Atomic             Coordinates (Angstroms)
 Number     Number       Type             X           Y           Z
 ---------------------------------------------------------------------
      1          6           0       -3.512224    0.968778   -0.447784
      2          6           0       -2.024646    1.187940   -0.170177
      3          6           0       -1.565712    2.609622   -0.495744
      4          1           0       -3.717909    1.189118   -1.504236
      5          1           0       -4.097880    1.688070    0.141301
      6          1           0       -1.442033    0.467532   -0.758558
      7          1           0       -1.822444    0.966867    0.885690
      8          1           0       -2.121413    3.340017    0.101182
      9          1           0       -1.738842    2.837845   -1.552409
     10          1           0       -0.499242    2.744259   -0.289895
     11          6           0       -3.986055   -0.447719   -0.127239
     12          6           0       -5.473633   -0.666880   -0.404846
     13          6           0       -5.932567   -2.088562   -0.079280
     14          1           0       -3.400399   -1.167010   -0.716325
     15          1           0       -3.780370   -0.668059    0.929212
     16          1           0       -5.675835   -0.445808   -1.460714
     17          1           0       -6.056246    0.053527    0.183534
     18          1           0       -5.759437   -2.316785    0.977386
     19          1           0       -5.376866   -2.818957   -0.676205
     20          1           0       -6.999037   -2.223199   -0.285129
     21          6           0        3.055875   -0.517482    0.479323
     22          6           0        2.260046    0.467189    1.336683
     23          6           0        0.875277   -0.061112    1.712326
     24          1           0        2.487321   -0.741641   -0.433607
     25          1           0        3.159665   -1.466262    1.023787
     26          1           0        2.158977    1.414289    0.791337
     27          1           0        2.830648    0.689177    2.247589
     28          1           0        0.959539   -0.994474    2.278307
     29          1           0        0.284052   -0.265243    0.813780
     30          1           0        0.323650    0.658632    2.325136
     31          6           0        4.442404   -0.003578    0.095700
     32          6           0        5.238233   -0.988248   -0.761659
     33          6           0        6.623002   -0.459948   -1.137303
     34          1           0        4.338614    0.945202   -0.448764
     35          1           0        5.010959    0.220581    1.008632
     36          1           0        4.667631   -1.210236   -1.672565
     37          1           0        5.339302   -1.935349   -0.216313
     38          1           0        7.214227   -0.255817   -0.238757
     39          1           0        6.538740    0.473415   -1.703284
     40          1           0        7.174629   -1.179692   -1.750113
 ---------------------------------------------------------------------

 SCF Done:  E(RHF) =  -470.731930891     A.U. after   11 cycles
 E2 =    -0.1583550265D+01 EUMP2 =    -0.47231548115592D+03

 The electronic state is 1-A.
 Alpha  occ. eigenvalues --  -11.21596 -11.21585 -11.21569 -11.21519 -11.21393
 Alpha  occ. eigenvalues --  -11.21374 -11.21334 -11.21311 -11.21073 -11.21066
 Alpha  occ. eigenvalues --  -11.21056 -11.20921  -1.08434  -1.08386  -1.03576
 Alpha  occ. eigenvalues --   -1.03443  -0.96018  -0.95899  -0.87031  -0.86928
 Alpha  occ. eigenvalues --   -0.79764  -0.79418  -0.78286  -0.78153  -0.65052
 Alpha  occ. eigenvalues --   -0.65039  -0.60974  -0.60917  -0.59422  -0.59220
 Alpha  occ. eigenvalues --   -0.57600  -0.57557  -0.55258  -0.55194  -0.52704
 Alpha  occ. eigenvalues --   -0.52617  -0.52443  -0.52322  -0.49970  -0.49898
 Alpha  occ. eigenvalues --   -0.48022  -0.47759  -0.46630  -0.46583  -0.45859
 Alpha  occ. eigenvalues --   -0.45727  -0.45689  -0.45469  -0.43787  -0.43691
 Alpha virt. eigenvalues --    0.21219   0.23055   0.23533   0.25281   0.25881
 Alpha virt. eigenvalues --    0.26501   0.26602   0.27439   0.28115   0.29257
 Alpha virt. eigenvalues --    0.29766   0.30506   0.31186   0.31973   0.32350

 Mulliken charges:
               1
     1  C   -0.297473
     2  C   -0.303338
     3  C   -0.477628
     4  H    0.148963
     5  H    0.149200
     6  H    0.150387
     7  H    0.159131
     8  H    0.155231
     9  H    0.154952
    10  H    0.161184
    11  C   -0.298412
    12  C   -0.299547
    13  C   -0.475684
    14  H    0.149078
    15  H    0.149976
    16  H    0.151847
    17  H    0.151886
    18  H    0.155241
    19  H    0.155130
    20  H    0.160167
    21  C   -0.298377
    22  C   -0.300843
    23  C   -0.480292
    24  H    0.149312
    25  H    0.149627
    26  H    0.151766
    27  H    0.151630
    28  H    0.153944
    29  H    0.164087
    30  H    0.158983
    31  C   -0.298277
    32  C   -0.299626
    33  C   -0.475698
    34  H    0.149451
    35  H    0.149687
    36  H    0.151833
    37  H    0.151920
    38  H    0.155186
    39  H    0.155182
    40  H    0.160212
 Sum of Mulliken charges =  -0.00000

 Dipole moment (field-independent basis, Debye):
    X=             -0.0174    Y=             -0.0064    Z=              0.0107  Tot=              0.0214
 Quadrupole moment (field-independent basis, Debye-Ang):
   XX=            -86.0438   YY=            -85.6152   ZZ=            -83.3534
   XY=             -0.9593   XZ=              0.4759   YZ=              0.2178

 Normal termination of Gaussian 16 at Thu May  6 03:50:43 2021.
