 Gaussian 16, Revision A.03,
 Gaussian 16:  EM64L-G16RevA.03 25-Dec-2016

 -------------
 #p 6-31g* mp2
 -------------

 ------------------------------------------------------
 Input file generated by CHIRIPA (05-May-2021 14:55:19)
 ------------------------------------------------------
 Symbolic Z-matrix:
 Charge =  0 Multiplicity = 1

                         Standard orientation:
 ---------------------------------------------------------------------
 Center     Atomic      Atomic             Coordinates (Angstroms)
 Number     Number       Type             X           Y           Z
 ---------------------------------------------------------------------
      1          6           0       -3.601300    2.562724   -0.263177
      2          6           0       -3.030783    1.807353   -1.292956
      3          6           0       -2.761826    0.447548   -1.110907
      4          6           0       -3.077556   -0.127209    0.119239
      5          6           0       -3.646545    0.598768    1.164465
      6          6           0       -3.906822    1.957089    0.960090
      7          1           0       -3.806861    3.618477   -0.413269
      8          1           0       -2.792462    2.275047   -2.244014
      9          1           0       -2.320653   -0.160723   -1.891158
     10          1           0       -3.873072    0.104624    2.101442
     11          1           0       -4.349946    2.541259    1.761609
     12          7           0       -2.797418   -1.565987    0.323784
     13          8           0       -3.084899   -2.048773    1.416903
     14          8           0       -2.295668   -2.183672   -0.612886
     15          6           0        3.340100   -0.121869   -0.496463
     16          6           0        2.470851   -1.360142   -0.274939
     17          6           0        1.157321   -1.307717   -1.055761
     18          1           0        2.773668    0.772969   -0.204290
     19          1           0        3.554089   -0.019837   -1.569400
     20          1           0        2.259716   -1.460585    0.797418
     21          1           0        3.039488   -2.252151   -0.567492
     22          1           0        1.350883   -1.231397   -2.130614
     23          1           0        0.566681   -0.435334   -0.757949
     24          1           0        0.551499   -2.202670   -0.882847
     25          6           0        4.656637   -0.159525    0.277513
     26          6           0        5.525887    1.078747    0.055989
     27          6           0        6.839417    1.026324    0.836811
     28          1           0        4.442649   -0.261557    1.350449
     29          1           0        5.223070   -1.054364   -0.014660
     30          1           0        4.957250    1.970758    0.348543
     31          1           0        5.737021    1.179191   -1.016367
     32          1           0        7.430057    0.153940    0.538998
     33          1           0        6.645855    0.950003    1.911664
     34          1           0        7.445239    1.921277    0.663896
 ---------------------------------------------------------------------

 SCF Done:  E(RHF) =  -669.536057313     A.U. after   15 cycles
 E2 =    -0.2091483854D+01 EUMP2 =    -0.67162754116774D+03

 The electronic state is 1-A.
 Alpha  occ. eigenvalues --  -20.60860 -20.60844 -15.85882 -11.31232 -11.27797
 Alpha  occ. eigenvalues --  -11.27781 -11.27539 -11.26812 -11.26798 -11.21450
 Alpha  occ. eigenvalues --  -11.21142 -11.21089 -11.21032 -11.20945 -11.20315
 Alpha  occ. eigenvalues --   -1.59913  -1.39468  -1.19401  -1.08801  -1.08122
 Alpha  occ. eigenvalues --   -1.04799  -1.03169  -0.95667  -0.95580  -0.86627
 Alpha  occ. eigenvalues --   -0.86195  -0.82472  -0.79250  -0.77940  -0.77512
 Alpha  occ. eigenvalues --   -0.72114  -0.71228  -0.70506  -0.65056  -0.64803
 Alpha  occ. eigenvalues --   -0.64758  -0.62143  -0.60580  -0.58966  -0.57204
 Alpha  occ. eigenvalues --   -0.55305  -0.54924  -0.53136  -0.52891  -0.52244
 Alpha  occ. eigenvalues --   -0.52033  -0.49592  -0.48872  -0.48861  -0.47554
 Alpha  occ. eigenvalues --   -0.46314  -0.45479  -0.45414  -0.44875  -0.43326
 Alpha  occ. eigenvalues --   -0.37378  -0.36395
 Alpha virt. eigenvalues --    0.04981   0.11190   0.16459   0.21341   0.23142
 Alpha virt. eigenvalues --    0.24677   0.26853   0.27026   0.27723   0.27893
 Alpha virt. eigenvalues --    0.28743   0.30803   0.31547   0.31889   0.32493

 Mulliken charges:
               1
     1  C   -0.170720
     2  C   -0.219192
     3  C   -0.170644
     4  C    0.158059
     5  C   -0.171047
     6  C   -0.218578
     7  H    0.225770
     8  H    0.223955
     9  H    0.278071
    10  H    0.275616
    11  H    0.223558
    12  N    0.488616
    13  O   -0.459958
    14  O   -0.458966
    15  C   -0.297457
    16  C   -0.300208
    17  C   -0.482174
    18  H    0.146479
    19  H    0.147492
    20  H    0.152795
    21  H    0.152011
    22  H    0.148512
    23  H    0.144923
    24  H    0.184958
    25  C   -0.297920
    26  C   -0.299124
    27  C   -0.475490
    28  H    0.149631
    29  H    0.150007
    30  H    0.150263
    31  H    0.151071
    32  H    0.155480
    33  H    0.155136
    34  H    0.159077
 Sum of Mulliken charges =  -0.00000

 Dipole moment (field-independent basis, Debye):
    X=             -1.1555    Y=              4.9496    Z=             -0.7058  Tot=              5.1314
 Quadrupole moment (field-independent basis, Debye-Ang):
   XX=            -89.9604   YY=            -96.1732   ZZ=            -90.3911
   XY=            -16.3293   XZ=             -0.6081   YZ=              1.3743

 Normal termination of Gaussian 16 at Thu May  6 09:12:57 2021.
