 Gaussian 16, Revision A.03,
 Gaussian 16:  EM64L-G16RevA.03 25-Dec-2016

 -------------
 #p 6-31g* mp2
 -------------

 ------------------------------------------------------
 Input file generated by CHIRIPA (05-May-2021 14:57:21)
 ------------------------------------------------------
 Symbolic Z-matrix:
 Charge =  0 Multiplicity = 1

                         Standard orientation:
 ---------------------------------------------------------------------
 Center     Atomic      Atomic             Coordinates (Angstroms)
 Number     Number       Type             X           Y           Z
 ---------------------------------------------------------------------
      1          6           0       -0.868823   -0.950202    1.197752
      2          6           0       -1.704592   -1.922146    0.637988
      3          6           0       -2.957875   -1.571927    0.126934
      4          6           0       -3.345286   -0.234415    0.192235
      5          6           0       -2.535189    0.756974    0.743761
      6          6           0       -1.286053    0.383904    1.248763
      7          1           0        0.103147   -1.231136    1.592401
      8          1           0       -1.383181   -2.958998    0.597033
      9          1           0       -3.624840   -2.304063   -0.311872
     10          1           0       -2.883152    1.782462    0.770475
     11          1           0       -0.639074    1.140857    1.682912
     12          7           0       -4.669886    0.148442   -0.345591
     13          8           0       -4.987923    1.333629   -0.276147
     14          8           0       -5.364988   -0.743910   -0.826400
     15          6           0        5.056436   -1.292390    0.058705
     16          6           0        5.006133   -0.090229    0.772007
     17          6           0        3.941854    0.798254    0.591852
     18          6           0        2.940443    0.451220   -0.313705
     19          6           0        2.962234   -0.738948   -1.039181
     20          6           0        4.036124   -1.612349   -0.843022
     21          1           0        5.886927   -1.976727    0.204869
     22          1           0        5.797118    0.160868    1.472961
     23          1           0        3.877916    1.735611    1.131012
     24          1           0        2.158975   -0.961720   -1.730965
     25          1           0        4.072571   -2.545261   -1.398351
     26          7           0        1.808651    1.383834   -0.512897
     27          8           0        0.938873    1.054851   -1.316572
     28          8           0        1.812762    2.426141    0.138421
 ---------------------------------------------------------------------

 SCF Done:  E(RHF) =  -868.338162803     A.U. after   16 cycles
 E2 =    -0.2601252849D+01 EUMP2 =    -0.87093941565164D+03

 The electronic state is 1-A.
 Alpha  occ. eigenvalues --  -20.61715 -20.61627 -20.60058 -20.60039 -15.86669
 Alpha  occ. eigenvalues --  -15.85098 -11.32033 -11.30365 -11.28581 -11.28569
 Alpha  occ. eigenvalues --  -11.28285 -11.27563 -11.27553 -11.26975 -11.26823
 Alpha  occ. eigenvalues --  -11.26724 -11.26060 -11.25835  -1.60736  -1.59125
 Alpha  occ. eigenvalues --   -1.40284  -1.38682  -1.20194  -1.18523  -1.09586
 Alpha  occ. eigenvalues --   -1.07973  -1.05574  -1.03908  -0.96422  -0.94824
 Alpha  occ. eigenvalues --   -0.86968  -0.85350  -0.83245  -0.81649  -0.78306
 Alpha  occ. eigenvalues --   -0.76693  -0.72895  -0.72101  -0.71325  -0.71264
 Alpha  occ. eigenvalues --   -0.70439  -0.69716  -0.65828  -0.65553  -0.64205
 Alpha  occ. eigenvalues --   -0.63941  -0.62907  -0.61266  -0.56052  -0.54549
 Alpha  occ. eigenvalues --   -0.53903  -0.53645  -0.52244  -0.52030  -0.49673
 Alpha  occ. eigenvalues --   -0.49656  -0.48084  -0.48074  -0.45680  -0.44109
 Alpha  occ. eigenvalues --   -0.38175  -0.37191  -0.36512  -0.35431
 Alpha virt. eigenvalues --    0.04181   0.05825   0.10460   0.12149   0.15690
 Alpha virt. eigenvalues --    0.17334   0.20702   0.22068   0.26622   0.27576
 Alpha virt. eigenvalues --    0.28077   0.28785   0.30330   0.31583   0.31866

 Mulliken charges:
               1
     1  C   -0.174311
     2  C   -0.218658
     3  C   -0.172185
     4  C    0.158854
     5  C   -0.166104
     6  C   -0.210648
     7  H    0.218049
     8  H    0.216624
     9  H    0.271977
    10  H    0.277372
    11  H    0.231112
    12  N    0.488119
    13  O   -0.459817
    14  O   -0.463936
    15  C   -0.170693
    16  C   -0.218668
    17  C   -0.172963
    18  C    0.154531
    19  C   -0.173741
    20  C   -0.219512
    21  H    0.228280
    22  H    0.225972
    23  H    0.276402
    24  H    0.278455
    25  H    0.225723
    26  N    0.485189
    27  O   -0.450676
    28  O   -0.464744
 Sum of Mulliken charges =  -0.00000

 Dipole moment (field-independent basis, Debye):
    X=              8.8796    Y=             -4.4391    Z=              2.4781  Tot=             10.2320
 Quadrupole moment (field-independent basis, Debye-Ang):
   XX=           -112.6671   YY=           -101.3640   ZZ=           -103.2087
   XY=             -2.9054   XZ=             -2.8843   YZ=              4.6398

 Normal termination of Gaussian 16 at Thu May  6 09:37:52 2021.
