 Gaussian 16, Revision A.03,
 Gaussian 16:  EM64L-G16RevA.03 25-Dec-2016

 -------------
 #p 6-31g* mp2
 -------------

 ------------------------------------------------------
 Input file generated by CHIRIPA (05-May-2021 14:55:22)
 ------------------------------------------------------
 Symbolic Z-matrix:
 Charge =  0 Multiplicity = 1

                         Standard orientation:
 ---------------------------------------------------------------------
 Center     Atomic      Atomic             Coordinates (Angstroms)
 Number     Number       Type             X           Y           Z
 ---------------------------------------------------------------------
      1          6           0       -3.905003    1.053675    1.616021
      2          6           0       -4.543125    0.098421    0.818017
      3          6           0       -3.817893   -0.641635   -0.120547
      4          6           0       -2.449846   -0.399562   -0.235171
      5          6           0       -1.785449    0.545233    0.545361
      6          6           0       -2.530624    1.273644    1.477391
      7          1           0       -4.476127    1.624045    2.342582
      8          1           0       -5.610367   -0.074529    0.923506
      9          1           0       -4.286653   -1.387291   -0.751165
     10          1           0       -0.720322    0.695309    0.417304
     11          1           0       -2.032403    2.014864    2.095786
     12          7           0       -1.671518   -1.176862   -1.225327
     13          8           0       -0.467321   -0.944743   -1.306978
     14          8           0       -2.280400   -2.003511   -1.901013
     15          6           0        3.836827   -0.193274    0.145554
     16          6           0        3.493890   -1.290692    1.153549
     17          6           0        4.577464   -2.365181    1.249117
     18          1           0        3.992915   -0.647533   -0.842490
     19          1           0        4.791048    0.271262    0.430272
     20          1           0        2.539911   -1.752086    0.867794
     21          1           0        3.338413   -0.833745    2.139268
     22          1           0        5.531163   -1.924244    1.556745
     23          1           0        4.728124   -2.847803    0.278047
     24          1           0        4.311858   -3.139720    1.975343
     25          6           0        2.763169    0.888194    0.038717
     26          6           0        3.106107    1.985612   -0.969278
     27          6           0        2.022533    3.060102   -1.064846
     28          1           0        1.808949    0.423659   -0.246001
     29          1           0        2.607081    1.342454    1.026761
     30          1           0        3.261584    1.528666   -1.954997
     31          1           0        4.060085    2.447007   -0.683523
     32          1           0        1.871871    3.542724   -0.093776
     33          1           0        1.068834    2.619165   -1.372474
     34          1           0        2.288138    3.834640   -1.791073
 ---------------------------------------------------------------------

 SCF Done:  E(RHF) =  -669.536401345     A.U. after   15 cycles
 E2 =    -0.2092006460D+01 EUMP2 =    -0.67162840780489D+03

 The electronic state is 1-A.
 Alpha  occ. eigenvalues --  -20.60948 -20.60931 -15.85980 -11.31250 -11.27817
 Alpha  occ. eigenvalues --  -11.27786 -11.27548 -11.26818 -11.26798 -11.21243
 Alpha  occ. eigenvalues --  -11.21085 -11.20937 -11.20923 -11.20853 -11.20614
 Alpha  occ. eigenvalues --   -1.60006  -1.39565  -1.19419  -1.08834  -1.07981
 Alpha  occ. eigenvalues --   -1.04807  -1.03138  -0.95687  -0.95601  -0.86629
 Alpha  occ. eigenvalues --   -0.86213  -0.82520  -0.79208  -0.77886  -0.77507
 Alpha  occ. eigenvalues --   -0.72210  -0.71317  -0.70530  -0.65086  -0.64831
 Alpha  occ. eigenvalues --   -0.64549  -0.62158  -0.60515  -0.58982  -0.57224
 Alpha  occ. eigenvalues --   -0.55319  -0.54882  -0.53144  -0.52906  -0.52314
 Alpha  occ. eigenvalues --   -0.52053  -0.49554  -0.48973  -0.48947  -0.47531
 Alpha  occ. eigenvalues --   -0.46202  -0.45366  -0.45185  -0.44970  -0.43374
 Alpha  occ. eigenvalues --   -0.37401  -0.36406
 Alpha virt. eigenvalues --    0.04939   0.11230   0.16455   0.20621   0.23254
 Alpha virt. eigenvalues --    0.24221   0.25959   0.27235   0.27707   0.28341
 Alpha virt. eigenvalues --    0.29406   0.30931   0.31557   0.32157   0.32218

 Mulliken charges:
               1
     1  C   -0.170147
     2  C   -0.218983
     3  C   -0.170228
     4  C    0.155538
     5  C   -0.173079
     6  C   -0.221331
     7  H    0.225902
     8  H    0.223625
     9  H    0.275557
    10  H    0.284780
    11  H    0.224733
    12  N    0.493144
    13  O   -0.469167
    14  O   -0.458909
    15  C   -0.295909
    16  C   -0.302235
    17  C   -0.475546
    18  H    0.154783
    19  H    0.146199
    20  H    0.160670
    21  H    0.146121
    22  H    0.152777
    23  H    0.157637
    24  H    0.158644
    25  C   -0.318055
    26  C   -0.297258
    27  C   -0.478690
    28  H    0.176176
    29  H    0.139483
    30  H    0.157415
    31  H    0.149686
    32  H    0.148309
    33  H    0.157364
    34  H    0.160993
 Sum of Mulliken charges =  -0.00000

 Dipole moment (field-independent basis, Debye):
    X=             -2.8607    Y=              2.6030    Z=              3.3411  Tot=              5.1110
 Quadrupole moment (field-independent basis, Debye-Ang):
   XX=            -78.4981   YY=            -97.1432   ZZ=            -96.2635
   XY=             -2.8364   XZ=             -7.1207   YZ=             -0.6136

 Normal termination of Gaussian 16 at Thu May  6 01:27:52 2021.
