 Gaussian 16, Revision A.03,
 Gaussian 16:  EM64L-G16RevA.03 25-Dec-2016

 -------------
 #p 6-31g* mp2
 -------------

 ------------------------------------------------------
 Input file generated by CHIRIPA (05-May-2021 14:51:08)
 ------------------------------------------------------
 Symbolic Z-matrix:
 Charge =  0 Multiplicity = 1

                         Standard orientation:
 ---------------------------------------------------------------------
 Center     Atomic      Atomic             Coordinates (Angstroms)
 Number     Number       Type             X           Y           Z
 ---------------------------------------------------------------------
      1          6           0        3.334295    0.573720   -0.620897
      2          6           0        2.865019    1.810436    0.146110
      3          6           0        2.114258    2.805553   -0.739269
      4          1           0        3.981169    0.888606   -1.451166
      5          1           0        2.463584    0.079131   -1.073267
      6          1           0        3.736200    2.301770    0.598051
      7          1           0        2.219342    1.492556    0.974765
      8          1           0        1.227948    2.337205   -1.179390
      9          1           0        2.753425    3.151017   -1.558244
     10          1           0        1.787888    3.681988   -0.170758
     11          6           0        4.086452   -0.430437    0.250686
     12          6           0        4.555728   -1.667152   -0.516321
     13          6           0        5.306489   -2.662269    0.369058
     14          1           0        4.957163    0.064153    0.703056
     15          1           0        3.439578   -0.745322    1.080955
     16          1           0        5.201405   -1.349272   -1.344976
     17          1           0        3.684547   -2.158487   -0.968262
     18          1           0        4.667322   -3.007734    1.188033
     19          1           0        6.192799   -2.193922    0.809179
     20          1           0        5.632859   -3.538704   -0.199453
     21          6           0       -4.426172   -0.260981    0.372764
     22          6           0       -5.237846   -0.804505   -0.803566
     23          6           0       -6.667743   -1.178866   -0.412361
     24          1           0       -4.403854   -1.013090    1.173249
     25          1           0       -4.936892    0.619946    0.785715
     26          1           0       -4.725031   -1.683321   -1.215049
     27          1           0       -5.258073   -0.051089   -1.601420
     28          1           0       -7.201219   -0.306319   -0.021636
     29          1           0       -6.665148   -1.947825    0.366931
     30          1           0       -7.230062   -1.565096   -1.268214
     31          6           0       -2.994575    0.117697   -0.002553
     32          6           0       -2.182901    0.661221    1.173777
     33          6           0       -0.753004    1.035582    0.782572
     34          1           0       -2.483855   -0.763230   -0.415504
     35          1           0       -3.016893    0.869808   -0.803038
     36          1           0       -2.162674   -0.092195    1.971631
     37          1           0       -2.695716    1.540038    1.585259
     38          1           0       -0.755600    1.804542    0.003280
     39          1           0       -0.219528    0.163035    0.391847
     40          1           0       -0.190685    1.421813    1.638425
 ---------------------------------------------------------------------

 SCF Done:  E(RHF) =  -470.732094577     A.U. after   11 cycles
 E2 =    -0.1583702241D+01 EUMP2 =    -0.47231579681741D+03

 The electronic state is 1-A.
 Alpha  occ. eigenvalues --  -11.21628 -11.21624 -11.21568 -11.21440 -11.21428
 Alpha  occ. eigenvalues --  -11.21380 -11.21337 -11.21268 -11.21106 -11.21089
 Alpha  occ. eigenvalues --  -11.21049 -11.20905  -1.08470  -1.08347  -1.03602
 Alpha  occ. eigenvalues --   -1.03413  -0.96074  -0.95855  -0.87067  -0.86903
 Alpha  occ. eigenvalues --   -0.79646  -0.79514  -0.78280  -0.78168  -0.65097
 Alpha  occ. eigenvalues --   -0.64989  -0.60995  -0.60868  -0.59433  -0.59221
 Alpha  occ. eigenvalues --   -0.57684  -0.57465  -0.55505  -0.55061  -0.52703
 Alpha  occ. eigenvalues --   -0.52586  -0.52482  -0.52275  -0.50196  -0.49614
 Alpha  occ. eigenvalues --   -0.47997  -0.47781  -0.46743  -0.46415  -0.45849
 Alpha  occ. eigenvalues --   -0.45744  -0.45671  -0.45595  -0.43784  -0.43688
 Alpha virt. eigenvalues --    0.21257   0.22971   0.23745   0.24811   0.26157
 Alpha virt. eigenvalues --    0.26424   0.26821   0.27669   0.27797   0.29354
 Alpha virt. eigenvalues --    0.30272   0.31024   0.31407   0.31900   0.32527

 Mulliken charges:
               1
     1  C   -0.299199
     2  C   -0.303297
     3  C   -0.477006
     4  H    0.149294
     5  H    0.149829
     6  H    0.150861
     7  H    0.157997
     8  H    0.158513
     9  H    0.153849
    10  H    0.158832
    11  C   -0.298378
    12  C   -0.299505
    13  C   -0.475641
    14  H    0.149428
    15  H    0.149404
    16  H    0.151939
    17  H    0.151490
    18  H    0.154984
    19  H    0.155181
    20  H    0.160083
    21  C   -0.298269
    22  C   -0.299653
    23  C   -0.475724
    24  H    0.149695
    25  H    0.149665
    26  H    0.151894
    27  H    0.152016
    28  H    0.155244
    29  H    0.155196
    30  H    0.160339
    31  C   -0.298620
    32  C   -0.300619
    33  C   -0.478644
    34  H    0.149220
    35  H    0.149628
    36  H    0.151663
    37  H    0.152141
    38  H    0.159636
    39  H    0.155035
    40  H    0.161498
 Sum of Mulliken charges =  -0.00000

 Dipole moment (field-independent basis, Debye):
    X=             -0.0523    Y=              0.0104    Z=              0.0131  Tot=              0.0549
 Quadrupole moment (field-independent basis, Debye-Ang):
   XX=            -85.5591   YY=            -84.5055   ZZ=            -84.9973
   XY=              0.1519   XZ=             -0.2243   YZ=              0.1707

 Normal termination of Gaussian 16 at Thu May  6 02:06:15 2021.
