 Gaussian 16, Revision A.03,
 Gaussian 16:  EM64L-G16RevA.03 25-Dec-2016

 -------------
 #p 6-31g* mp2
 -------------

 ------------------------------------------------------
 Input file generated by CHIRIPA (05-May-2021 14:51:13)
 ------------------------------------------------------
 Symbolic Z-matrix:
 Charge =  0 Multiplicity = 1

                         Standard orientation:
 ---------------------------------------------------------------------
 Center     Atomic      Atomic             Coordinates (Angstroms)
 Number     Number       Type             X           Y           Z
 ---------------------------------------------------------------------
      1          6           0       -2.794100   -0.491936    1.047332
      2          6           0       -1.713875    0.444678    1.589412
      3          6           0       -1.039698   -0.097452    2.850116
      4          1           0       -3.550446   -0.658801    1.826461
      5          1           0       -2.345710   -1.471726    0.832033
      6          1           0       -2.163881    1.422830    1.802323
      7          1           0       -0.960113    0.609485    0.808837
      8          1           0       -0.564826   -1.063018    2.648174
      9          1           0       -1.775434   -0.245052    3.647304
     10          1           0       -0.270927    0.587823    3.220588
     11          6           0       -3.477236    0.036285   -0.212841
     12          6           0       -4.557461   -0.900330   -0.754922
     13          6           0       -5.231638   -0.358200   -2.015626
     14          1           0       -3.925626    1.016075    0.002457
     15          1           0       -2.720890    0.203149   -0.991970
     16          1           0       -5.311223   -1.065136    0.025653
     17          1           0       -4.107455   -1.878481   -0.967832
     18          1           0       -4.495902   -0.210600   -2.812814
     19          1           0       -5.706509    0.607366   -1.813683
     20          1           0       -6.000409   -1.043474   -2.386097
     21          6           0        3.103220   -0.520201   -0.568358
     22          6           0        4.342442   -1.286741   -0.104967
     23          6           0        4.262618   -2.781979   -0.414298
     24          1           0        2.213532   -0.948702   -0.086915
     25          1           0        2.973921   -0.665453   -1.649829
     26          1           0        4.470153   -1.138958    0.975064
     27          1           0        5.229303   -0.856243   -0.587422
     28          1           0        4.158865   -2.947515   -1.491532
     29          1           0        3.395401   -3.231837    0.079831
     30          1           0        5.158711   -3.310624   -0.074574
     31          6           0        3.168116    0.975852   -0.266132
     32          6           0        1.928894    1.742393   -0.729523
     33          6           0        2.008718    3.237630   -0.420192
     34          1           0        3.297414    1.121104    0.815339
     35          1           0        4.057803    1.404353   -0.747576
     36          1           0        1.042033    1.311893   -0.247068
     37          1           0        1.801183    1.594609   -1.809555
     38          1           0        2.875935    3.687489   -0.914322
     39          1           0        2.112470    3.403166    0.657042
     40          1           0        1.112625    3.766275   -0.759916
 ---------------------------------------------------------------------

 SCF Done:  E(RHF) =  -470.733383612     A.U. after   11 cycles
 E2 =    -0.1582883695D+01 EUMP2 =    -0.47231626730688D+03

 The electronic state is 1-A.
 Alpha  occ. eigenvalues --  -11.21633 -11.21615 -11.21608 -11.21601 -11.21424
 Alpha  occ. eigenvalues --  -11.21422 -11.21363 -11.21361 -11.21133 -11.21087
 Alpha  occ. eigenvalues --  -11.21074 -11.21071  -1.08462  -1.08436  -1.03569
 Alpha  occ. eigenvalues --   -1.03529  -0.96006  -0.95987  -0.87024  -0.87002
 Alpha  occ. eigenvalues --   -0.79680  -0.79554  -0.78315  -0.78209  -0.65182
 Alpha  occ. eigenvalues --   -0.64990  -0.61076  -0.60833  -0.59401  -0.59326
 Alpha  occ. eigenvalues --   -0.57632  -0.57582  -0.55294  -0.55274  -0.52703
 Alpha  occ. eigenvalues --   -0.52680  -0.52432  -0.52413  -0.50000  -0.49892
 Alpha  occ. eigenvalues --   -0.48077  -0.47846  -0.46895  -0.46466  -0.45973
 Alpha  occ. eigenvalues --   -0.45768  -0.45754  -0.45403  -0.43809  -0.43792
 Alpha virt. eigenvalues --    0.20726   0.23259   0.23797   0.24620   0.25682
 Alpha virt. eigenvalues --    0.26935   0.27082   0.27851   0.28125   0.28819
 Alpha virt. eigenvalues --    0.30580   0.31521   0.31615   0.31783   0.32146

 Mulliken charges:
               1
     1  C   -0.297414
     2  C   -0.309464
     3  C   -0.475450
     4  H    0.149766
     5  H    0.149394
     6  H    0.152372
     7  H    0.160255
     8  H    0.154644
     9  H    0.155758
    10  H    0.159947
    11  C   -0.298546
    12  C   -0.299686
    13  C   -0.475746
    14  H    0.149562
    15  H    0.150003
    16  H    0.151932
    17  H    0.152014
    18  H    0.155300
    19  H    0.155173
    20  H    0.160279
    21  C   -0.298465
    22  C   -0.299694
    23  C   -0.475697
    24  H    0.149117
    25  H    0.149402
    26  H    0.152206
    27  H    0.152053
    28  H    0.155117
    29  H    0.155024
    30  H    0.160383
    31  C   -0.297425
    32  C   -0.309795
    33  C   -0.474971
    34  H    0.149629
    35  H    0.149738
    36  H    0.160871
    37  H    0.151700
    38  H    0.155165
    39  H    0.155072
    40  H    0.160474
 Sum of Mulliken charges =  -0.00000

 Dipole moment (field-independent basis, Debye):
    X=             -0.0077    Y=              0.0064    Z=              0.0017  Tot=              0.0102
 Quadrupole moment (field-independent basis, Debye-Ang):
   XX=            -84.4087   YY=            -85.8218   ZZ=            -84.4797
   XY=             -0.0211   XZ=             -1.3342   YZ=              0.1993

 Normal termination of Gaussian 16 at Wed May  5 21:35:32 2021.
