 Gaussian 16, Revision A.03,
 Gaussian 16:  EM64L-G16RevA.03 25-Dec-2016

 -------------
 #p 6-31g* mp2
 -------------

 ------------------------------------------------------
 Input file generated by CHIRIPA (05-May-2021 14:55:19)
 ------------------------------------------------------
 Symbolic Z-matrix:
 Charge =  0 Multiplicity = 1

                         Standard orientation:
 ---------------------------------------------------------------------
 Center     Atomic      Atomic             Coordinates (Angstroms)
 Number     Number       Type             X           Y           Z
 ---------------------------------------------------------------------
      1          6           0       -0.859685   -1.193277    0.853990
      2          6           0       -1.429396   -1.549362   -0.372857
      3          6           0       -2.624580   -0.961657   -0.797927
      4          6           0       -3.225828   -0.017239    0.032655
      5          6           0       -2.682912    0.358498    1.260399
      6          6           0       -1.487155   -0.242160    1.665272
      7          1           0        0.068986   -1.654852    1.176350
      8          1           0       -0.944306   -2.287716   -1.004970
      9          1           0       -3.087427   -1.218831   -1.742941
     10          1           0       -3.189782    1.097648    1.868806
     11          1           0       -1.046995    0.036319    2.618558
     12          7           0       -4.491419    0.611795   -0.406656
     13          8           0       -5.001441    1.441192    0.343420
     14          8           0       -4.949404    0.263523   -1.492747
     15          6           0        3.658014    0.849305    0.109262
     16          6           0        4.441947    1.980362   -0.557183
     17          6           0        4.022376    3.363752   -0.059200
     18          1           0        2.585130    0.997129   -0.075170
     19          1           0        3.798897    0.906575    1.197501
     20          1           0        4.300743    1.920141   -1.643944
     21          1           0        5.513102    1.829724   -0.371306
     22          1           0        4.179605    3.448395    1.020946
     23          1           0        2.960357    3.539326   -0.258924
     24          1           0        4.595374    4.157449   -0.548668
     25          6           0        4.066129   -0.539772   -0.378213
     26          6           0        3.282195   -1.670829    0.288231
     27          6           0        3.701766   -3.054218   -0.209751
     28          1           0        3.925245   -0.597042   -1.466453
     29          1           0        5.139012   -0.687595   -0.193782
     30          1           0        2.211040   -1.520191    0.102354
     31          1           0        3.423399   -1.610607    1.374993
     32          1           0        4.763785   -3.229792   -0.010028
     33          1           0        3.544537   -3.138862   -1.289898
     34          1           0        3.128768   -3.847916    0.279716
 ---------------------------------------------------------------------

 SCF Done:  E(RHF) =  -669.535598396     A.U. after   15 cycles
 E2 =    -0.2091308394D+01 EUMP2 =    -0.67162690679040D+03

 The electronic state is 1-A.
 Alpha  occ. eigenvalues --  -20.60761 -20.60756 -15.85815 -11.31184 -11.27752
 Alpha  occ. eigenvalues --  -11.27746 -11.27449 -11.26767 -11.26750 -11.22694
 Alpha  occ. eigenvalues --  -11.22182 -11.22117 -11.22033 -11.22031 -11.21483
 Alpha  occ. eigenvalues --   -1.59837  -1.39390  -1.19354  -1.09193  -1.08744
 Alpha  occ. eigenvalues --   -1.04757  -1.04280  -0.96696  -0.95581  -0.87714
 Alpha  occ. eigenvalues --   -0.86151  -0.82417  -0.80386  -0.78987  -0.77462
 Alpha  occ. eigenvalues --   -0.72032  -0.71161  -0.70466  -0.65821  -0.65002
 Alpha  occ. eigenvalues --   -0.64757  -0.62105  -0.61674  -0.60105  -0.58318
 Alpha  occ. eigenvalues --   -0.55971  -0.55258  -0.53403  -0.53120  -0.53080
 Alpha  occ. eigenvalues --   -0.52845  -0.50633  -0.48802  -0.48788  -0.48659
 Alpha  occ. eigenvalues --   -0.47412  -0.46517  -0.46420  -0.44795  -0.44520
 Alpha  occ. eigenvalues --   -0.37316  -0.36364
 Alpha virt. eigenvalues --    0.05043   0.11266   0.16445   0.20220   0.22476
 Alpha virt. eigenvalues --    0.23754   0.25685   0.26136   0.27173   0.27377
 Alpha virt. eigenvalues --    0.28973   0.30282   0.30799   0.31301   0.32237

 Mulliken charges:
               1
     1  C   -0.173728
     2  C   -0.220555
     3  C   -0.170955
     4  C    0.158453
     5  C   -0.170998
     6  C   -0.219573
     7  H    0.232032
     8  H    0.223491
     9  H    0.275529
    10  H    0.275583
    11  H    0.223956
    12  N    0.488069
    13  O   -0.460391
    14  O   -0.460494
    15  C   -0.300004
    16  C   -0.300132
    17  C   -0.476380
    18  H    0.150587
    19  H    0.148398
    20  H    0.153515
    21  H    0.152914
    22  H    0.154838
    23  H    0.156633
    24  H    0.162443
    25  C   -0.297637
    26  C   -0.305788
    27  C   -0.476261
    28  H    0.151697
    29  H    0.152695
    30  H    0.145318
    31  H    0.151690
    32  H    0.160115
    33  H    0.156974
    34  H    0.157966
 Sum of Mulliken charges =  -0.00000

 Dipole moment (field-independent basis, Debye):
    X=              4.6264    Y=             -2.1612    Z=              1.5125  Tot=              5.3256
 Quadrupole moment (field-independent basis, Debye-Ang):
   XX=           -123.1594   YY=            -94.7724   ZZ=            -90.8260
   XY=              7.2254   XZ=             -4.5837   YZ=              2.2485

 Normal termination of Gaussian 16 at Wed May  5 18:52:47 2021.
