 Gaussian 16, Revision A.03,
 Gaussian 16:  EM64L-G16RevA.03 25-Dec-2016

 -------------
 #p 6-31g* mp2
 -------------

 ------------------------------------------------------
 Input file generated by CHIRIPA (05-May-2021 14:51:08)
 ------------------------------------------------------
 Symbolic Z-matrix:
 Charge =  0 Multiplicity = 1

                         Standard orientation:
 ---------------------------------------------------------------------
 Center     Atomic      Atomic             Coordinates (Angstroms)
 Number     Number       Type             X           Y           Z
 ---------------------------------------------------------------------
      1          6           0        2.255283   -0.442847   -0.439759
      2          6           0        2.931950   -1.809602   -0.549705
      3          6           0        2.011655   -2.879205   -1.138602
      4          1           0        1.354153   -0.535868    0.181737
      5          1           0        1.916429   -0.127994   -1.436474
      6          1           0        3.270657   -2.121155    0.446702
      7          1           0        3.831679   -1.713277   -1.170854
      8          1           0        1.683569   -2.594338   -2.143496
      9          1           0        1.119360   -3.004534   -0.516749
     10          1           0        2.515517   -3.848297   -1.208210
     11          6           0        3.162648    0.636912    0.147214
     12          6           0        2.485980    2.003666    0.257160
     13          6           0        3.406275    3.073270    0.846057
     14          1           0        3.501502    0.322059    1.143929
     15          1           0        4.063778    0.729932   -0.474282
     16          1           0        1.586252    1.907342    0.878309
     17          1           0        2.147274    2.315220   -0.739248
     18          1           0        4.298571    3.198599    0.224204
     19          1           0        3.734361    2.788403    1.850951
     20          1           0        2.902413    4.042361    0.915664
     21          6           0       -2.768276   -0.857767    0.111693
     22          6           0       -1.825258   -1.583757    1.071714
     23          6           0       -1.955618   -3.105030    0.990886
     24          1           0       -3.803653   -1.150773    0.333250
     25          1           0       -2.562232   -1.190321   -0.915123
     26          1           0       -2.032083   -1.248906    2.096270
     27          1           0       -0.792021   -1.288844    0.847971
     28          1           0       -1.728908   -3.457914   -0.020388
     29          1           0       -2.976016   -3.417750    1.235003
     30          1           0       -1.272557   -3.603963    1.685402
     31          6           0       -2.649655    0.663703    0.180853
     32          6           0       -3.592672    1.389693   -0.779169
     33          6           0       -3.462313    2.910965   -0.698340
     34          1           0       -2.855698    0.996256    1.207668
     35          1           0       -1.614278    0.956708   -0.040705
     36          1           0       -4.625910    1.094779   -0.555426
     37          1           0       -3.385848    1.054842   -1.803725
     38          1           0       -2.441913    3.223685   -0.942458
     39          1           0       -3.689022    3.263850    0.312934
     40          1           0       -4.145373    3.409899   -1.392856
 ---------------------------------------------------------------------

 SCF Done:  E(RHF) =  -470.733305693     A.U. after   11 cycles
 E2 =    -0.1583826114D+01 EUMP2 =    -0.47231713180713D+03

 The electronic state is 1-A.
 Alpha  occ. eigenvalues --  -11.21636 -11.21635 -11.21608 -11.21588 -11.21445
 Alpha  occ. eigenvalues --  -11.21394 -11.21385 -11.21334 -11.21093 -11.21091
 Alpha  occ. eigenvalues --  -11.21084 -11.21056  -1.08481  -1.08417  -1.03575
 Alpha  occ. eigenvalues --   -1.03519  -0.96017  -0.95971  -0.87044  -0.86977
 Alpha  occ. eigenvalues --   -0.79644  -0.79582  -0.78370  -0.78164  -0.65237
 Alpha  occ. eigenvalues --   -0.64939  -0.61108  -0.60793  -0.59396  -0.59323
 Alpha  occ. eigenvalues --   -0.57624  -0.57590  -0.55376  -0.55193  -0.52699
 Alpha  occ. eigenvalues --   -0.52678  -0.52446  -0.52399  -0.50067  -0.49804
 Alpha  occ. eigenvalues --   -0.48049  -0.47841  -0.46811  -0.46569  -0.46169
 Alpha  occ. eigenvalues --   -0.45775  -0.45738  -0.45200  -0.43816  -0.43781
 Alpha virt. eigenvalues --    0.20131   0.22757   0.23476   0.24632   0.25107
 Alpha virt. eigenvalues --    0.26666   0.26854   0.27462   0.28739   0.30139
 Alpha virt. eigenvalues --    0.30524   0.31408   0.31585   0.31843   0.32152

 Mulliken charges:
               1
     1  C   -0.308320
     2  C   -0.298976
     3  C   -0.480859
     4  H    0.158432
     5  H    0.149061
     6  H    0.151953
     7  H    0.152192
     8  H    0.154657
     9  H    0.160548
    10  H    0.160588
    11  C   -0.297411
    12  C   -0.300781
    13  C   -0.475716
    14  H    0.149720
    15  H    0.149909
    16  H    0.152924
    17  H    0.151541
    18  H    0.155256
    19  H    0.155368
    20  H    0.160501
    21  C   -0.297318
    22  C   -0.310676
    23  C   -0.476561
    24  H    0.149639
    25  H    0.149976
    26  H    0.151808
    27  H    0.160773
    28  H    0.156767
    29  H    0.155551
    30  H    0.159834
    31  C   -0.300216
    32  C   -0.299591
    33  C   -0.475808
    34  H    0.149144
    35  H    0.151492
    36  H    0.151888
    37  H    0.152001
    38  H    0.155519
    39  H    0.155050
    40  H    0.160140
 Sum of Mulliken charges =  -0.00000

 Dipole moment (field-independent basis, Debye):
    X=              0.0100    Y=             -0.0022    Z=              0.0016  Tot=              0.0104
 Quadrupole moment (field-independent basis, Debye-Ang):
   XX=            -84.4390   YY=            -86.7248   ZZ=            -83.5528
   XY=             -0.3648   XZ=             -1.0166   YZ=             -0.4953

 Normal termination of Gaussian 16 at Thu May  6 05:17:20 2021.
