 Gaussian 16, Revision A.03,
 Gaussian 16:  EM64L-G16RevA.03 25-Dec-2016

 -------------
 #p 6-31g* mp2
 -------------

 ------------------------------------------------------
 Input file generated by CHIRIPA (05-May-2021 14:53:14)
 ------------------------------------------------------
 Symbolic Z-matrix:
 Charge =  0 Multiplicity = 1

                         Standard orientation:
 ---------------------------------------------------------------------
 Center     Atomic      Atomic             Coordinates (Angstroms)
 Number     Number       Type             X           Y           Z
 ---------------------------------------------------------------------
      1          6           0        4.420143    0.577556   -0.455534
      2          6           0        2.915509    0.585231   -0.183500
      3          6           0        2.188469    1.714700   -0.913916
      4          1           0        4.845708    1.544569   -0.154327
      5          1           0        4.589663    0.484774   -1.537222
      6          1           0        2.748894    0.676579    0.897477
      7          1           0        2.493508   -0.381982   -0.485211
      8          1           0        2.325183    1.624190   -1.996375
      9          1           0        2.582020    2.688765   -0.605831
     10          1           0        1.114135    1.701488   -0.705369
     11          6           0        5.160817   -0.545847    0.267719
     12          6           0        6.665451   -0.553521   -0.004314
     13          6           0        7.392491   -1.682991    0.726101
     14          1           0        4.991297   -0.453065    1.349408
     15          1           0        4.735252   -1.512860   -0.033487
     16          1           0        7.087452    0.413692    0.297397
     17          1           0        6.832066   -0.644869   -1.085291
     18          1           0        6.998940   -2.657056    0.418016
     19          1           0        7.255777   -1.592480    1.808560
     20          1           0        8.466825   -1.669778    0.517554
     21          6           0       -1.768518    1.534454    0.349687
     22          6           0       -1.924378    0.802699   -0.832160
     23          6           0       -3.014284   -0.057381   -0.996217
     24          6           0       -3.933406   -0.161930    0.046651
     25          6           0       -3.805682    0.553820    1.236054
     26          6           0       -2.708011    1.407903    1.378209
     27          1           0       -0.918836    2.200257    0.468622
     28          1           0       -1.196320    0.898989   -1.632601
     29          1           0       -3.159268   -0.635633   -1.900664
     30          1           0       -4.547935    0.436843    2.016307
     31          1           0       -2.589518    1.974963    2.297147
     32          7           0       -5.091351   -1.069283   -0.115434
     33          8           0       -5.887178   -1.143668    0.818248
     34          8           0       -5.181196   -1.688902   -1.173092
 ---------------------------------------------------------------------

 SCF Done:  E(RHF) =  -669.535167613     A.U. after   15 cycles
 E2 =    -0.2091360769D+01 EUMP2 =    -0.67162652838161D+03

 The electronic state is 1-A.
 Alpha  occ. eigenvalues --  -20.60743 -20.60738 -15.85797 -11.31161 -11.27729
 Alpha  occ. eigenvalues --  -11.27725 -11.27450 -11.26742 -11.26721 -11.22491
 Alpha  occ. eigenvalues --  -11.22293 -11.22074 -11.22038 -11.21902 -11.21424
 Alpha  occ. eigenvalues --   -1.59819  -1.39372  -1.19332  -1.09087  -1.08729
 Alpha  occ. eigenvalues --   -1.04736  -1.04233  -0.96709  -0.95564  -0.87732
 Alpha  occ. eigenvalues --   -0.86133  -0.82396  -0.80300  -0.78850  -0.77443
 Alpha  occ. eigenvalues --   -0.72016  -0.71142  -0.70473  -0.65711  -0.64993
 Alpha  occ. eigenvalues --   -0.64770  -0.62106  -0.61619  -0.60111  -0.58293
 Alpha  occ. eigenvalues --   -0.55981  -0.55256  -0.53437  -0.53156  -0.53011
 Alpha  occ. eigenvalues --   -0.52793  -0.50625  -0.48774  -0.48771  -0.48609
 Alpha  occ. eigenvalues --   -0.47310  -0.46404  -0.46299  -0.44778  -0.44481
 Alpha  occ. eigenvalues --   -0.37306  -0.36337
 Alpha virt. eigenvalues --    0.05083   0.11272   0.16561   0.19962   0.22514
 Alpha virt. eigenvalues --    0.23930   0.26014   0.26182   0.26869   0.27442
 Alpha virt. eigenvalues --    0.28699   0.30349   0.30728   0.31396   0.31471

 Mulliken charges:
               1
     1  C   -0.299225
     2  C   -0.298798
     3  C   -0.482736
     4  H    0.150463
     5  H    0.150878
     6  H    0.152504
     7  H    0.154647
     8  H    0.158749
     9  H    0.158463
    10  H    0.151034
    11  C   -0.298845
    12  C   -0.300149
    13  C   -0.476080
    14  H    0.150155
    15  H    0.151131
    16  H    0.152260
    17  H    0.152640
    18  H    0.156124
    19  H    0.155632
    20  H    0.161542
    21  C   -0.173519
    22  C   -0.220271
    23  C   -0.171114
    24  C    0.158346
    25  C   -0.170953
    26  C   -0.218610
    27  H    0.228584
    28  H    0.225604
    29  H    0.275523
    30  H    0.275495
    31  H    0.223406
    32  N    0.488078
    33  O   -0.460462
    34  O   -0.460495
 Sum of Mulliken charges =  -0.00000

 Dipole moment (field-independent basis, Debye):
    X=              4.2914    Y=              3.1545    Z=              0.5797  Tot=              5.3575
 Quadrupole moment (field-independent basis, Debye-Ang):
   XX=           -126.6329   YY=            -96.4604   ZZ=            -90.1899
   XY=            -13.2433   XZ=             -3.9986   YZ=              2.3058

 Normal termination of Gaussian 16 at Wed May  5 18:35:41 2021.
