 Gaussian 16, Revision A.03,
 Gaussian 16:  EM64L-G16RevA.03 25-Dec-2016

 -------------
 #p 6-31g* mp2
 -------------

 ------------------------------------------------------
 Input file generated by CHIRIPA (05-May-2021 14:57:23)
 ------------------------------------------------------
 Symbolic Z-matrix:
 Charge =  0 Multiplicity = 1

                         Standard orientation:
 ---------------------------------------------------------------------
 Center     Atomic      Atomic             Coordinates (Angstroms)
 Number     Number       Type             X           Y           Z
 ---------------------------------------------------------------------
      1          6           0       -1.945737   -1.161631    1.282949
      2          6           0       -1.719722   -0.447855    0.101440
      3          6           0       -2.783663    0.146666   -0.583485
      4          6           0       -4.066504    0.006877   -0.056165
      5          6           0       -4.323836   -0.697952    1.118692
      6          6           0       -3.244783   -1.284185    1.786915
      7          1           0       -1.113372   -1.620250    1.808528
      8          1           0       -0.711923   -0.351042   -0.292278
      9          1           0       -2.637054    0.704827   -1.500207
     10          1           0       -5.339599   -0.777224    1.486605
     11          1           0       -3.423282   -1.837928    2.704277
     12          7           0       -5.200851    0.631882   -0.772423
     13          8           0       -6.321631    0.494177   -0.287115
     14          8           0       -4.947691    1.247633   -1.805573
     15          6           0        3.867033    2.492647    0.727091
     16          6           0        5.052387    1.915853    0.259368
     17          6           0        5.071035    0.588853   -0.180257
     18          6           0        3.880761   -0.135554   -0.138159
     19          6           0        2.683849    0.410921    0.322336
     20          6           0        2.688625    1.739668    0.757031
     21          1           0        3.861645    3.524172    1.066688
     22          1           0        5.969053    2.498240    0.234983
     23          1           0        5.974653    0.117437   -0.547213
     24          1           0        1.785856   -0.194779    0.334688
     25          1           0        1.766590    2.185006    1.119762
     26          7           0        3.888103   -1.541314   -0.600960
     27          8           0        2.826144   -2.158286   -0.553776
     28          8           0        4.955678   -1.999559   -1.002123
 ---------------------------------------------------------------------

 SCF Done:  E(RHF) =  -868.337562144     A.U. after   16 cycles
 E2 =    -0.2599365621D+01 EUMP2 =    -0.87093692776519D+03

 The electronic state is 1-A.
 Alpha  occ. eigenvalues --  -20.61532 -20.61496 -20.60876 -20.60870 -15.86569
 Alpha  occ. eigenvalues --  -15.85932 -11.31947 -11.31322 -11.28613 -11.28434
 Alpha  occ. eigenvalues --  -11.28167 -11.27924 -11.27892 -11.27644 -11.27524
 Alpha  occ. eigenvalues --  -11.27442 -11.26973 -11.26890  -1.60587  -1.59951
 Alpha  occ. eigenvalues --   -1.40145  -1.39504  -1.20095  -1.19506  -1.09472
 Alpha  occ. eigenvalues --   -1.08894  -1.05508  -1.04919  -0.96319  -0.95720
 Alpha  occ. eigenvalues --   -0.86900  -0.86318  -0.83157  -0.82555  -0.78229
 Alpha  occ. eigenvalues --   -0.77600  -0.72787  -0.72149  -0.71908  -0.71275
 Alpha  occ. eigenvalues --   -0.71205  -0.70596  -0.65746  -0.65527  -0.65159
 Alpha  occ. eigenvalues --   -0.64931  -0.62896  -0.62235  -0.55965  -0.55400
 Alpha  occ. eigenvalues --   -0.53816  -0.53620  -0.53240  -0.52987  -0.49558
 Alpha  occ. eigenvalues --   -0.49529  -0.48910  -0.48901  -0.45548  -0.44903
 Alpha  occ. eigenvalues --   -0.38038  -0.37482  -0.37108  -0.36526
 Alpha virt. eigenvalues --    0.04315   0.04947   0.10532   0.11101   0.15841
 Alpha virt. eigenvalues --    0.16426   0.18444   0.21884   0.24807   0.27160
 Alpha virt. eigenvalues --    0.27933   0.29042   0.30507   0.30899   0.31667

 Mulliken charges:
               1
     1  C   -0.171658
     2  C   -0.224462
     3  C   -0.171245
     4  C    0.158689
     5  C   -0.170630
     6  C   -0.218772
     7  H    0.228278
     8  H    0.224614
     9  H    0.276356
    10  H    0.276266
    11  H    0.224736
    12  N    0.487967
    13  O   -0.459928
    14  O   -0.460340
    15  C   -0.170300
    16  C   -0.217813
    17  C   -0.169834
    18  C    0.160805
    19  C   -0.178008
    20  C   -0.219481
    21  H    0.228809
    22  H    0.226512
    23  H    0.277821
    24  H    0.270177
    25  H    0.224920
    26  N    0.487747
    27  O   -0.465129
    28  O   -0.456099
 Sum of Mulliken charges =  -0.00000

 Dipole moment (field-independent basis, Debye):
    X=              4.1499    Y=              2.8107    Z=              4.1790  Tot=              6.5258
 Quadrupole moment (field-independent basis, Debye-Ang):
   XX=           -129.6076   YY=           -106.5379   ZZ=           -104.0350
   XY=             30.6119   XZ=             -7.9548   YZ=             -2.2288

 Normal termination of Gaussian 16 at Fri May  7 10:59:52 2021.
