 Gaussian 16, Revision A.03,
 Gaussian 16:  EM64L-G16RevA.03 25-Dec-2016

 -------------
 #p 6-31g* mp2
 -------------

 ------------------------------------------------------
 Input file generated by CHIRIPA (05-May-2021 14:55:19)
 ------------------------------------------------------
 Symbolic Z-matrix:
 Charge =  0 Multiplicity = 1

                         Standard orientation:
 ---------------------------------------------------------------------
 Center     Atomic      Atomic             Coordinates (Angstroms)
 Number     Number       Type             X           Y           Z
 ---------------------------------------------------------------------
      1          6           0        3.858678   -2.284027    0.482292
      2          6           0        4.636075   -1.187444    0.095405
      3          6           0        4.034199    0.036284   -0.212464
      4          6           0        2.646148    0.128507   -0.122473
      5          6           0        1.844423   -0.945865    0.259956
      6          6           0        2.467785   -2.159956    0.563189
      7          1           0        4.334575   -3.230905    0.719651
      8          1           0        5.716471   -1.280896    0.031711
      9          1           0        4.612047    0.901263   -0.514657
     10          1           0        0.769644   -0.822116    0.314298
     11          1           0        1.861534   -3.009895    0.863370
     12          7           0        1.997595    1.418912   -0.445947
     13          8           0        0.772852    1.474332   -0.358938
     14          8           0        2.726283    2.350476   -0.780369
     15          6           0       -3.790253   -0.403918   -0.412167
     16          6           0       -4.231812   -1.715513    0.238010
     17          6           0       -4.762270   -2.729002   -0.776509
     18          1           0       -4.638608    0.031181   -0.957996
     19          1           0       -3.013569   -0.616631   -1.159770
     20          1           0       -5.006448   -1.500234    0.985143
     21          1           0       -3.382361   -2.147443    0.782513
     22          1           0       -3.992624   -2.972799   -1.515973
     23          1           0       -5.625939   -2.321913   -1.312192
     24          1           0       -5.072286   -3.659198   -0.290210
     25          6           0       -3.257521    0.619387    0.589219
     26          6           0       -2.815963    1.930981   -0.060959
     27          6           0       -2.285504    2.944470    0.953560
     28          1           0       -4.034206    0.832099    1.336821
     29          1           0       -2.409168    0.184288    1.135048
     30          1           0       -3.665414    2.362911   -0.605462
     31          1           0       -2.041327    1.715702   -0.808092
     32          1           0       -1.421836    2.537381    1.489243
     33          1           0       -3.055151    3.188267    1.693024
     34          1           0       -1.975489    3.874666    0.467262
 ---------------------------------------------------------------------

 SCF Done:  E(RHF) =  -669.536022830     A.U. after   15 cycles
 E2 =    -0.2091706319D+01 EUMP2 =    -0.67162772914951D+03

 The electronic state is 1-A.
 Alpha  occ. eigenvalues --  -20.60989 -20.60976 -15.86020 -11.31329 -11.27895
 Alpha  occ. eigenvalues --  -11.27885 -11.27623 -11.26894 -11.26885 -11.21404
 Alpha  occ. eigenvalues --  -11.20957 -11.20926 -11.20667 -11.20314 -11.19687
 Alpha  occ. eigenvalues --   -1.60046  -1.39604  -1.19496  -1.08902  -1.07806
 Alpha  occ. eigenvalues --   -1.04891  -1.02788  -0.95750  -0.95263  -0.86301
 Alpha  occ. eigenvalues --   -0.86287  -0.82584  -0.78944  -0.77646  -0.77522
 Alpha  occ. eigenvalues --   -0.72262  -0.71358  -0.70605  -0.65164  -0.64893
 Alpha  occ. eigenvalues --   -0.64427  -0.62239  -0.60144  -0.58725  -0.56847
 Alpha  occ. eigenvalues --   -0.55393  -0.54549  -0.53222  -0.52981  -0.51962
 Alpha  occ. eigenvalues --   -0.51696  -0.49275  -0.48997  -0.48962  -0.47231
 Alpha  occ. eigenvalues --   -0.46018  -0.45160  -0.45073  -0.44752  -0.43075
 Alpha  occ. eigenvalues --   -0.37472  -0.36491
 Alpha virt. eigenvalues --    0.04872   0.11163   0.16357   0.20525   0.22872
 Alpha virt. eigenvalues --    0.24774   0.26262   0.27468   0.28088   0.28644
 Alpha virt. eigenvalues --    0.29054   0.31049   0.31842   0.32293   0.32677

 Mulliken charges:
               1
     1  C   -0.170501
     2  C   -0.218582
     3  C   -0.170483
     4  C    0.157494
     5  C   -0.171515
     6  C   -0.218657
     7  H    0.226195
     8  H    0.223972
     9  H    0.275962
    10  H    0.275908
    11  H    0.224145
    12  N    0.494814
    13  O   -0.466691
    14  O   -0.458356
    15  C   -0.298315
    16  C   -0.297783
    17  C   -0.475123
    18  H    0.149963
    19  H    0.148630
    20  H    0.152252
    21  H    0.145073
    22  H    0.153278
    23  H    0.156371
    24  H    0.158027
    25  C   -0.297018
    26  C   -0.302990
    27  C   -0.471522
    28  H    0.146278
    29  H    0.144086
    30  H    0.144978
    31  H    0.171709
    32  H    0.161400
    33  H    0.144264
    34  H    0.162738
 Sum of Mulliken charges =  -0.00000

 Dipole moment (field-independent basis, Debye):
    X=              2.5787    Y=             -4.4443    Z=              1.0424  Tot=              5.2429
 Quadrupole moment (field-independent basis, Debye-Ang):
   XX=            -78.6672   YY=            -96.3403   ZZ=            -96.2465
   XY=            -10.6120   XZ=              1.7199   YZ=             -0.4794

 Normal termination of Gaussian 16 at Wed May  5 22:06:39 2021.
