 Gaussian 16, Revision A.03,
 Gaussian 16:  EM64L-G16RevA.03 25-Dec-2016

 -------------
 #p 6-31g* mp2
 -------------

 ------------------------------------------------------
 Input file generated by CHIRIPA (05-May-2021 14:57:24)
 ------------------------------------------------------
 Symbolic Z-matrix:
 Charge =  0 Multiplicity = 1

                         Standard orientation:
 ---------------------------------------------------------------------
 Center     Atomic      Atomic             Coordinates (Angstroms)
 Number     Number       Type             X           Y           Z
 ---------------------------------------------------------------------
      1          6           0        6.257788    0.387557    0.471166
      2          6           0        5.670887    0.864528   -0.705510
      3          6           0        4.329459    0.592791   -0.990599
      4          6           0        3.601086   -0.162364   -0.072718
      5          6           0        4.157378   -0.651602    1.108161
      6          6           0        5.500496   -0.367655    1.372657
      7          1           0        7.300498    0.603391    0.684632
      8          1           0        6.256593    1.451287   -1.407441
      9          1           0        3.849995    0.949677   -1.894017
     10          1           0        3.548046   -1.233861    1.788679
     11          1           0        5.953659   -0.739374    2.287268
     12          7           0        2.180082   -0.456503   -0.363629
     13          8           0        1.559890   -1.124033    0.461237
     14          8           0        1.713397   -0.013949   -1.411001
     15          6           0       -6.337050   -0.071926    0.294164
     16          6           0       -5.678545    1.105022    0.665225
     17          6           0       -4.292706    1.219129    0.520377
     18          6           0       -3.593423    0.131850   -0.001271
     19          6           0       -4.220837   -1.053966   -0.380059
     20          6           0       -5.607380   -1.145771   -0.226376
     21          1           0       -7.413876   -0.151906    0.410117
     22          1           0       -6.242653    1.940591    1.069763
     23          1           0       -3.757617    2.118641    0.799618
     24          1           0       -3.631507   -1.869964   -0.780379
     25          1           0       -6.116132   -2.061024   -0.515388
     26          7           0       -2.125925    0.240845   -0.159292
     27          8           0       -1.532651   -0.731351   -0.621350
     28          8           0       -1.596763    1.296407    0.181901
 ---------------------------------------------------------------------

 SCF Done:  E(RHF) =  -868.333714065     A.U. after   16 cycles
 E2 =    -0.2601434339D+01 EUMP2 =    -0.87093514840351D+03

 The electronic state is 1-A.
 Alpha  occ. eigenvalues --  -20.59254 -20.59130 -20.59106 -20.59081 -15.84277
 Alpha  occ. eigenvalues --  -15.84202 -11.30177 -11.30118 -11.26826 -11.26792
 Alpha  occ. eigenvalues --  -11.26759 -11.26747 -11.26659 -11.26605 -11.25957
 Alpha  occ. eigenvalues --  -11.25937 -11.25902 -11.25889  -1.58258  -1.58136
 Alpha  occ. eigenvalues --   -1.37804  -1.37701  -1.18402  -1.18340  -1.07702
 Alpha  occ. eigenvalues --   -1.07620  -1.03884  -1.03830  -0.94467  -0.94337
 Alpha  occ. eigenvalues --   -0.85258  -0.85203  -0.81287  -0.81208  -0.76230
 Alpha  occ. eigenvalues --   -0.76158  -0.70494  -0.70395  -0.69615  -0.69530
 Alpha  occ. eigenvalues --   -0.69486  -0.69450  -0.64042  -0.63983  -0.63904
 Alpha  occ. eigenvalues --   -0.63829  -0.61228  -0.61176  -0.54389  -0.54304
 Alpha  occ. eigenvalues --   -0.52185  -0.52126  -0.51987  -0.51934  -0.47824
 Alpha  occ. eigenvalues --   -0.47236  -0.47086  -0.46446  -0.43089  -0.42999
 Alpha  occ. eigenvalues --   -0.36413  -0.36352  -0.35514  -0.35460
 Alpha virt. eigenvalues --    0.06316   0.06392   0.12132   0.12187   0.17717
 Alpha virt. eigenvalues --    0.17789   0.22189   0.22236   0.28064   0.28103
 Alpha virt. eigenvalues --    0.29127   0.29173   0.31695   0.31741   0.33404

 Mulliken charges:
               1
     1  C   -0.172760
     2  C   -0.218501
     3  C   -0.171456
     4  C    0.160800
     5  C   -0.171756
     6  C   -0.218489
     7  H    0.221592
     8  H    0.220034
     9  H    0.275022
    10  H    0.274043
    11  H    0.219729
    12  N    0.488742
    13  O   -0.455072
    14  O   -0.451732
    15  C   -0.172694
    16  C   -0.218519
    17  C   -0.172128
    18  C    0.159987
    19  C   -0.171636
    20  C   -0.218575
    21  H    0.221823
    22  H    0.219796
    23  H    0.273607
    24  H    0.276583
    25  H    0.220476
    26  N    0.486511
    27  O   -0.439388
    28  O   -0.466038
 Sum of Mulliken charges =  -0.00000

 Dipole moment (field-independent basis, Debye):
    X=             -0.1693    Y=              0.5050    Z=              1.4312  Tot=              1.5271
 Quadrupole moment (field-independent basis, Debye-Ang):
   XX=            -37.2075   YY=           -100.6026   ZZ=           -101.7061
   XY=              3.9692   XZ=              0.9431   YZ=             -0.6924

 Normal termination of Gaussian 16 at Fri May  7 08:00:52 2021.
