 Gaussian 16, Revision A.03,
 Gaussian 16:  EM64L-G16RevA.03 25-Dec-2016

 -------------
 #p 6-31g* mp2
 -------------

 ------------------------------------------------------
 Input file generated by CHIRIPA (05-May-2021 14:55:23)
 ------------------------------------------------------
 Symbolic Z-matrix:
 Charge =  0 Multiplicity = 1

                         Standard orientation:
 ---------------------------------------------------------------------
 Center     Atomic      Atomic             Coordinates (Angstroms)
 Number     Number       Type             X           Y           Z
 ---------------------------------------------------------------------
      1          6           0        5.115070    0.358864   -0.870465
      2          6           0        4.142493    1.362568   -0.813958
      3          6           0        2.888614    1.105384   -0.251649
      4          6           0        2.640117   -0.172490    0.246925
      5          6           0        3.588400   -1.193425    0.205178
      6          6           0        4.835412   -0.913686   -0.361613
      7          1           0        6.086447    0.567411   -1.309021
      8          1           0        4.356892    2.351772   -1.208362
      9          1           0        2.117394    1.863959   -0.195063
     10          1           0        3.345309   -2.169765    0.606533
     11          1           0        5.588812   -1.695111   -0.404151
     12          7           0        1.316326   -0.456698    0.844589
     13          8           0        1.122194   -1.590737    1.276916
     14          8           0        0.497937    0.459959    0.869395
     15          6           0       -3.297797    0.737913    0.156743
     16          6           0       -3.759708    2.115496   -0.319586
     17          6           0       -3.028683    3.259786    0.383263
     18          1           0       -3.451679    0.661565    1.241840
     19          1           0       -2.216382    0.642527   -0.013070
     20          1           0       -4.840178    2.207732   -0.150197
     21          1           0       -3.604886    2.188504   -1.403706
     22          1           0       -1.950527    3.195780    0.204139
     23          1           0       -3.192838    3.215117    1.464770
     24          1           0       -3.374339    4.235456    0.027664
     25          6           0       -4.019436   -0.416251   -0.536705
     26          6           0       -3.557526   -1.793834   -0.060376
     27          6           0       -4.288550   -2.938125   -0.763225
     28          1           0       -5.100852   -0.320865   -0.366892
     29          1           0       -3.865554   -0.339903   -1.621802
     30          1           0       -3.712347   -1.866842    1.023744
     31          1           0       -2.477055   -1.886070   -0.229764
     32          1           0       -4.124395   -2.893455   -1.844733
     33          1           0       -5.366706   -2.874117   -0.584102
     34          1           0       -3.942895   -3.913794   -0.407626
 ---------------------------------------------------------------------

 SCF Done:  E(RHF) =  -669.536181917     A.U. after   15 cycles
 E2 =    -0.2091264277D+01 EUMP2 =    -0.67162744619398D+03

 The electronic state is 1-A.
 Alpha  occ. eigenvalues --  -20.61011 -20.61005 -15.86038 -11.31342 -11.27904
 Alpha  occ. eigenvalues --  -11.27898 -11.27635 -11.26904 -11.26894 -11.20536
 Alpha  occ. eigenvalues --  -11.20341 -11.20195 -11.20111 -11.20105 -11.19836
 Alpha  occ. eigenvalues --   -1.60068  -1.39624  -1.19508  -1.08915  -1.07194
 Alpha  occ. eigenvalues --   -1.04901  -1.02421  -0.95759  -0.94876  -0.86302
 Alpha  occ. eigenvalues --   -0.85901  -0.82594  -0.78464  -0.77651  -0.76947
 Alpha  occ. eigenvalues --   -0.72254  -0.71381  -0.70616  -0.65164  -0.64903
 Alpha  occ. eigenvalues --   -0.63833  -0.62248  -0.59834  -0.58242  -0.56473
 Alpha  occ. eigenvalues --   -0.55405  -0.54176  -0.53234  -0.52992  -0.51628
 Alpha  occ. eigenvalues --   -0.51298  -0.49058  -0.49014  -0.48801  -0.46785
 Alpha  occ. eigenvalues --   -0.45511  -0.45093  -0.44529  -0.44256  -0.42630
 Alpha  occ. eigenvalues --   -0.37485  -0.36501
 Alpha virt. eigenvalues --    0.04850   0.11154   0.16334   0.21251   0.24029
 Alpha virt. eigenvalues --    0.25268   0.27158   0.27641   0.28163   0.28888
 Alpha virt. eigenvalues --    0.29166   0.30872   0.31982   0.32629   0.32868

 Mulliken charges:
               1
     1  C   -0.170521
     2  C   -0.218521
     3  C   -0.170760
     4  C    0.157720
     5  C   -0.170601
     6  C   -0.218567
     7  H    0.226196
     8  H    0.224058
     9  H    0.275499
    10  H    0.275979
    11  H    0.224000
    12  N    0.489985
    13  O   -0.458559
    14  O   -0.461374
    15  C   -0.306523
    16  C   -0.298601
    17  C   -0.474233
    18  H    0.149467
    19  H    0.173945
    20  H    0.147258
    21  H    0.146455
    22  H    0.157614
    23  H    0.155453
    24  H    0.153358
    25  C   -0.297926
    26  C   -0.299122
    27  C   -0.475231
    28  H    0.144098
    29  H    0.143983
    30  H    0.153170
    31  H    0.160577
    32  H    0.151234
    33  H    0.151762
    34  H    0.158726
 Sum of Mulliken charges =  -0.00000

 Dipole moment (field-independent basis, Debye):
    X=              5.0600    Y=              0.9306    Z=             -1.9820  Tot=              5.5135
 Quadrupole moment (field-independent basis, Debye-Ang):
   XX=            -71.3628   YY=            -92.3331   ZZ=            -96.2308
   XY=              0.0711   XZ=             -5.4920   YZ=             -0.9120

 Normal termination of Gaussian 16 at Wed May  5 17:33:32 2021.
