 Gaussian 16, Revision A.03,
 Gaussian 16:  EM64L-G16RevA.03 25-Dec-2016

 -------------
 #p 6-31g* mp2
 -------------

 ------------------------------------------------------
 Input file generated by CHIRIPA (05-May-2021 14:51:13)
 ------------------------------------------------------
 Symbolic Z-matrix:
 Charge =  0 Multiplicity = 1

                         Standard orientation:
 ---------------------------------------------------------------------
 Center     Atomic      Atomic             Coordinates (Angstroms)
 Number     Number       Type             X           Y           Z
 ---------------------------------------------------------------------
      1          6           0        2.894417   -1.046722   -0.403925
      2          6           0        1.443486   -1.514349   -0.522711
      3          6           0        1.325060   -2.948833   -1.038488
      4          1           0        3.380108   -1.125993   -1.386149
      5          1           0        3.437105   -1.725209    0.268787
      6          1           0        0.903350   -0.834378   -1.193909
      7          1           0        0.961138   -1.433775    0.459869
      8          1           0        1.839139   -3.643542   -0.366400
      9          1           0        1.781022   -3.040739   -2.029575
     10          1           0        0.279396   -3.262659   -1.115693
     11          6           0        3.029168    0.385412    0.110431
     12          6           0        4.480098    0.853038    0.229217
     13          6           0        4.598525    2.287522    0.744994
     14          1           0        2.486480    1.063899   -0.562281
     15          1           0        2.543476    0.464683    1.092655
     16          1           0        4.962447    0.772464   -0.753363
     17          1           0        5.020235    0.173067    0.900416
     18          1           0        4.142563    2.379429    1.736081
     19          1           0        4.084446    2.982231    0.072906
     20          1           0        5.644189    2.601349    0.822199
     21          6           0       -2.712766    1.048669    0.223399
     22          6           0       -3.460012    2.047313   -0.661088
     23          6           0       -2.950443    3.479464   -0.496544
     24          1           0       -2.809204    1.355257    1.273946
     25          1           0       -1.641133    1.087369   -0.016391
     26          1           0       -4.530099    2.005746   -0.420667
     27          1           0       -3.361946    1.738204   -1.709635
     28          1           0       -1.888670    3.542752   -0.755834
     29          1           0       -3.063459    3.811815    0.540458
     30          1           0       -3.498446    4.176745   -1.137911
     31          6           0       -3.210819   -0.387358    0.070095
     32          6           0       -2.463573   -1.386002    0.954582
     33          6           0       -2.973141   -2.818154    0.790037
     34          1           0       -4.282452   -0.426059    0.309886
     35          1           0       -3.114381   -0.693946   -0.980451
     36          1           0       -2.561639   -1.076894    2.003130
     37          1           0       -1.393486   -1.344436    0.714161
     38          1           0       -2.860125   -3.150503   -0.246964
     39          1           0       -4.034915   -2.881442    1.049329
     40          1           0       -2.425139   -3.515435    1.431404
 ---------------------------------------------------------------------

 SCF Done:  E(RHF) =  -470.733219493     A.U. after   11 cycles
 E2 =    -0.1583306751D+01 EUMP2 =    -0.47231652624441D+03

 The electronic state is 1-A.
 Alpha  occ. eigenvalues --  -11.21675 -11.21631 -11.21578 -11.21507 -11.21452
 Alpha  occ. eigenvalues --  -11.21392 -11.21363 -11.21304 -11.21127 -11.21089
 Alpha  occ. eigenvalues --  -11.21055 -11.21051  -1.08486  -1.08386  -1.03595
 Alpha  occ. eigenvalues --   -1.03483  -0.96027  -0.95945  -0.87041  -0.86961
 Alpha  occ. eigenvalues --   -0.79718  -0.79508  -0.78353  -0.78144  -0.65131
 Alpha  occ. eigenvalues --   -0.65015  -0.61059  -0.60859  -0.59423  -0.59266
 Alpha  occ. eigenvalues --   -0.57658  -0.57527  -0.55318  -0.55223  -0.52720
 Alpha  occ. eigenvalues --   -0.52637  -0.52445  -0.52374  -0.49990  -0.49881
 Alpha  occ. eigenvalues --   -0.48112  -0.47809  -0.46831  -0.46472  -0.46021
 Alpha  occ. eigenvalues --   -0.45761  -0.45723  -0.45347  -0.43826  -0.43744
 Alpha virt. eigenvalues --    0.20691   0.23064   0.23452   0.24957   0.25664
 Alpha virt. eigenvalues --    0.26351   0.26800   0.27549   0.28488   0.29246
 Alpha virt. eigenvalues --    0.30567   0.30668   0.31689   0.31814   0.32379

 Mulliken charges:
               1
     1  C   -0.297370
     2  C   -0.304696
     3  C   -0.477724
     4  H    0.149770
     5  H    0.149833
     6  H    0.151571
     7  H    0.155792
     8  H    0.155633
     9  H    0.155499
    10  H    0.162137
    11  C   -0.298516
    12  C   -0.299681
    13  C   -0.475749
    14  H    0.149086
    15  H    0.150070
    16  H    0.151993
    17  H    0.152062
    18  H    0.155374
    19  H    0.155204
    20  H    0.160366
    21  C   -0.299352
    22  C   -0.299608
    23  C   -0.475622
    24  H    0.149432
    25  H    0.150669
    26  H    0.151887
    27  H    0.151683
    28  H    0.155060
    29  H    0.155200
    30  H    0.160107
    31  C   -0.297238
    32  C   -0.310464
    33  C   -0.475485
    34  H    0.149207
    35  H    0.149092
    36  H    0.151114
    37  H    0.163832
    38  H    0.154697
    39  H    0.155093
    40  H    0.160042
 Sum of Mulliken charges =  -0.00000

 Dipole moment (field-independent basis, Debye):
    X=              0.0481    Y=             -0.0076    Z=              0.0057  Tot=              0.0491
 Quadrupole moment (field-independent basis, Debye-Ang):
   XX=            -84.5380   YY=            -86.8839   ZZ=            -83.4188
   XY=             -0.7006   XZ=             -0.5510   YZ=             -0.5831

 Normal termination of Gaussian 16 at Wed May  5 18:22:06 2021.
