 Gaussian 16, Revision A.03,
 Gaussian 16:  EM64L-G16RevA.03 25-Dec-2016

 -------------
 #p 6-31g* mp2
 -------------

 ------------------------------------------------------
 Input file generated by CHIRIPA (05-May-2021 14:51:12)
 ------------------------------------------------------
 Symbolic Z-matrix:
 Charge =  0 Multiplicity = 1

                         Standard orientation:
 ---------------------------------------------------------------------
 Center     Atomic      Atomic             Coordinates (Angstroms)
 Number     Number       Type             X           Y           Z
 ---------------------------------------------------------------------
      1          6           0       -2.826663    0.273407   -0.643155
      2          6           0       -3.029745   -1.161291   -0.154908
      3          6           0       -3.635478   -2.069805   -1.225181
      4          1           0       -3.792280    0.682861   -0.970073
      5          1           0       -2.175618    0.263413   -1.528274
      6          1           0       -3.679093   -1.148470    0.729852
      7          1           0       -2.063565   -1.567311    0.171065
      8          1           0       -2.987145   -2.112342   -2.106349
      9          1           0       -4.611852   -1.691121   -1.544387
     10          1           0       -3.772054   -3.090628   -0.854876
     11          6           0       -2.221857    1.193749    0.415575
     12          6           0       -2.018775    2.628447   -0.072672
     13          6           0       -1.413042    3.536961    0.997602
     14          1           0       -2.872902    1.203743    1.300694
     15          1           0       -1.256240    0.784295    0.742494
     16          1           0       -2.984955    3.034467   -0.398645
     17          1           0       -1.369428    2.615626   -0.957431
     18          1           0       -0.436668    3.158277    1.316808
     19          1           0       -2.061375    3.579498    1.878769
     20          1           0       -1.276467    4.557785    0.627297
     21          6           0        2.239369   -1.441474    0.079847
     22          6           0        1.129815   -1.698132    1.100142
     23          6           0        0.569958   -3.118665    1.019888
     24          1           0        1.849812   -1.627055   -0.930475
     25          1           0        3.050049   -2.165689    0.240177
     26          1           0        0.322084   -0.972763    0.938824
     27          1           0        1.522005   -1.511734    2.108139
     28          1           0        1.359506   -3.854800    1.202429
     29          1           0        0.152766   -3.312766    0.026470
     30          1           0       -0.221887   -3.280396    1.757914
     31          6           0        2.809151   -0.025682    0.147732
     32          6           0        3.918705    0.230977   -0.872563
     33          6           0        4.478562    1.651509   -0.792308
     34          1           0        1.998471    0.698533   -0.012598
     35          1           0        3.198709    0.159899    1.158054
     36          1           0        3.526515    0.044578   -1.880560
     37          1           0        4.726437   -0.494394   -0.711246
     38          1           0        4.895753    1.845609    0.201109
     39          1           0        3.689015    2.387644   -0.974849
     40          1           0        5.270408    1.813240   -1.530334
 ---------------------------------------------------------------------

 SCF Done:  E(RHF) =  -470.732915546     A.U. after   11 cycles
 E2 =    -0.1584313027D+01 EUMP2 =    -0.47231722857282D+03

 The electronic state is 1-A.
 Alpha  occ. eigenvalues --  -11.21651 -11.21644 -11.21629 -11.21570 -11.21471
 Alpha  occ. eigenvalues --  -11.21423 -11.21411 -11.21364 -11.21121 -11.21105
 Alpha  occ. eigenvalues --  -11.21085 -11.21071  -1.08513  -1.08433  -1.03601
 Alpha  occ. eigenvalues --   -1.03526  -0.96037  -0.95990  -0.87055  -0.87001
 Alpha  occ. eigenvalues --   -0.79662  -0.79598  -0.78395  -0.78186  -0.65378
 Alpha  occ. eigenvalues --   -0.64874  -0.61138  -0.60797  -0.59427  -0.59327
 Alpha  occ. eigenvalues --   -0.57643  -0.57605  -0.55355  -0.55263  -0.52729
 Alpha  occ. eigenvalues --   -0.52675  -0.52475  -0.52397  -0.50030  -0.49889
 Alpha  occ. eigenvalues --   -0.48001  -0.47911  -0.46831  -0.46620  -0.46167
 Alpha  occ. eigenvalues --   -0.45815  -0.45767  -0.45176  -0.43838  -0.43794
 Alpha virt. eigenvalues --    0.19880   0.22410   0.23720   0.24532   0.25798
 Alpha virt. eigenvalues --    0.26855   0.27085   0.27367   0.28074   0.29885
 Alpha virt. eigenvalues --    0.31297   0.31563   0.31637   0.31820   0.32196

 Mulliken charges:
               1
     1  C   -0.297476
     2  C   -0.308832
     3  C   -0.475292
     4  H    0.149905
     5  H    0.148494
     6  H    0.151728
     7  H    0.162130
     8  H    0.154458
     9  H    0.155173
    10  H    0.160576
    11  C   -0.307357
    12  C   -0.298949
    13  C   -0.476186
    14  H    0.149943
    15  H    0.157121
    16  H    0.152204
    17  H    0.151219
    18  H    0.155668
    19  H    0.155396
    20  H    0.160333
    21  C   -0.297353
    22  C   -0.312459
    23  C   -0.476617
    24  H    0.149212
    25  H    0.150009
    26  H    0.162203
    27  H    0.152565
    28  H    0.155931
    29  H    0.155463
    30  H    0.161181
    31  C   -0.299125
    32  C   -0.299684
    33  C   -0.475803
    34  H    0.148906
    35  H    0.150041
    36  H    0.151940
    37  H    0.152261
    38  H    0.155344
    39  H    0.155271
    40  H    0.160457
 Sum of Mulliken charges =  -0.00000

 Dipole moment (field-independent basis, Debye):
    X=              0.0167    Y=             -0.0158    Z=              0.0241  Tot=              0.0333
 Quadrupole moment (field-independent basis, Debye-Ang):
   XX=            -83.8146   YY=            -86.1812   ZZ=            -84.6633
   XY=             -1.2960   XZ=             -0.1195   YZ=             -0.6091

 Normal termination of Gaussian 16 at Thu May  6 07:05:47 2021.
