 Gaussian 16, Revision A.03,
 Gaussian 16:  EM64L-G16RevA.03 25-Dec-2016

 -------------
 #p 6-31g* mp2
 -------------

 ------------------------------------------------------
 Input file generated by CHIRIPA (05-May-2021 14:57:27)
 ------------------------------------------------------
 Symbolic Z-matrix:
 Charge =  0 Multiplicity = 1

                         Standard orientation:
 ---------------------------------------------------------------------
 Center     Atomic      Atomic             Coordinates (Angstroms)
 Number     Number       Type             X           Y           Z
 ---------------------------------------------------------------------
      1          6           0       -3.225383    2.402568   -0.083460
      2          6           0       -3.176377    1.752844    1.154271
      3          6           0       -2.770399    0.417770    1.239756
      4          6           0       -2.418808   -0.240255    0.062184
      5          6           0       -2.457241    0.379672   -1.185815
      6          6           0       -2.866291    1.715120   -1.247501
      7          1           0       -3.541949    3.439830   -0.140624
      8          1           0       -3.454681    2.284238    2.059927
      9          1           0       -2.723291   -0.109408    2.184892
     10          1           0       -2.173791   -0.176258   -2.071261
     11          1           0       -2.903388    2.217169   -2.210110
     12          7           0       -1.987391   -1.653836    0.140086
     13          8           0       -1.682724   -2.211429   -0.912010
     14          8           0       -1.962083   -2.177442    1.251767
     15          6           0        3.237991    2.400707    0.229589
     16          6           0        2.773076    1.952710   -1.011247
     17          6           0        2.356025    0.628689   -1.177329
     18          6           0        2.417589   -0.224107   -0.076312
     19          6           0        2.875863    0.192342    1.172626
     20          6           0        3.287814    1.520646    1.315650
     21          1           0        3.559985    3.430902    0.349650
     22          1           0        2.733280    2.633955   -1.856449
     23          1           0        1.991751    0.255480   -2.126769
     24          1           0        2.903912   -0.510178    1.996699
     25          1           0        3.648417    1.865800    2.280471
     26          7           0        1.978776   -1.628056   -0.239930
     27          8           0        2.042826   -2.359598    0.745657
     28          8           0        1.579094   -1.970346   -1.350663
 ---------------------------------------------------------------------

 SCF Done:  E(RHF) =  -868.334511538     A.U. after   16 cycles
 E2 =    -0.2602254720D+01 EUMP2 =    -0.87093676625867D+03

 The electronic state is 1-A.
 Alpha  occ. eigenvalues --  -20.60063 -20.60050 -20.60012 -20.59963 -15.85090
 Alpha  occ. eigenvalues --  -15.85067 -11.30884 -11.30866 -11.27521 -11.27486
 Alpha  occ. eigenvalues --  -11.27478 -11.27474 -11.27324 -11.27316 -11.26625
 Alpha  occ. eigenvalues --  -11.26601 -11.26589 -11.26588  -1.59113  -1.59069
 Alpha  occ. eigenvalues --   -1.38658  -1.38604  -1.19098  -1.19080  -1.08419
 Alpha  occ. eigenvalues --   -1.08395  -1.04559  -1.04543  -0.95189  -0.95142
 Alpha  occ. eigenvalues --   -0.85939  -0.85920  -0.82024  -0.81964  -0.76999
 Alpha  occ. eigenvalues --   -0.76940  -0.71373  -0.71207  -0.70778  -0.70202
 Alpha  occ. eigenvalues --   -0.70180  -0.70107  -0.64741  -0.64712  -0.64569
 Alpha  occ. eigenvalues --   -0.64547  -0.61904  -0.61878  -0.55051  -0.55033
 Alpha  occ. eigenvalues --   -0.52934  -0.52792  -0.52658  -0.52637  -0.48165
 Alpha  occ. eigenvalues --   -0.48056  -0.48010  -0.47956  -0.44340  -0.43481
 Alpha  occ. eigenvalues --   -0.37186  -0.37012  -0.36235  -0.36115
 Alpha virt. eigenvalues --    0.05321   0.05810   0.11346   0.11591   0.16815
 Alpha virt. eigenvalues --    0.17154   0.21476   0.21640   0.27315   0.27532
 Alpha virt. eigenvalues --    0.28333   0.28660   0.30890   0.31245   0.32495

 Mulliken charges:
               1
     1  C   -0.172259
     2  C   -0.218647
     3  C   -0.171695
     4  C    0.157664
     5  C   -0.172635
     6  C   -0.219201
     7  H    0.222848
     8  H    0.221395
     9  H    0.275820
    10  H    0.277933
    11  H    0.220577
    12  N    0.484213
    13  O   -0.446656
    14  O   -0.459374
    15  C   -0.172259
    16  C   -0.218404
    17  C   -0.172225
    18  C    0.157945
    19  C   -0.171342
    20  C   -0.218727
    21  H    0.223027
    22  H    0.220109
    23  H    0.274218
    24  H    0.277376
    25  H    0.222000
    26  N    0.485082
    27  O   -0.455009
    28  O   -0.451775
 Sum of Mulliken charges =  -0.00000

 Dipole moment (field-independent basis, Debye):
    X=              0.0383    Y=              9.5153    Z=              0.2550  Tot=              9.5188
 Quadrupole moment (field-independent basis, Debye-Ang):
   XX=            -91.9628   YY=           -110.4963   ZZ=            -95.4390
   XY=             -0.2922   XZ=              2.4557   YZ=             -0.8089

 Normal termination of Gaussian 16 at Fri May  7 00:31:56 2021.
