 Gaussian 16, Revision A.03,
 Gaussian 16:  EM64L-G16RevA.03 25-Dec-2016

 -------------
 #p 6-31g* mp2
 -------------

 ------------------------------------------------------
 Input file generated by CHIRIPA (05-May-2021 14:55:25)
 ------------------------------------------------------
 Symbolic Z-matrix:
 Charge =  0 Multiplicity = 1

                         Standard orientation:
 ---------------------------------------------------------------------
 Center     Atomic      Atomic             Coordinates (Angstroms)
 Number     Number       Type             X           Y           Z
 ---------------------------------------------------------------------
      1          6           0        1.886966    0.809875    2.015183
      2          6           0        2.948698   -0.045211    2.328352
      3          6           0        3.769762   -0.556809    1.319061
      4          6           0        3.499239   -0.190903    0.001404
      5          6           0        2.449091    0.658936   -0.342478
      6          6           0        1.640985    1.158605    0.683117
      7          1           0        1.254177    1.202664    2.805557
      8          1           0        3.142083   -0.317746    3.361973
      9          1           0        4.598497   -1.220646    1.533390
     10          1           0        2.281114    0.912623   -1.382114
     11          1           0        0.817141    1.822481    0.436959
     12          7           0        4.361604   -0.726195   -1.075717
     13          8           0        4.102335   -0.388644   -2.228746
     14          8           0        5.280464   -1.473172   -0.746540
     15          6           0       -3.671810    0.454403   -0.525896
     16          6           0       -3.559964    1.949214   -0.224212
     17          6           0       -2.303843    2.581120   -0.824754
     18          1           0       -2.780724   -0.058875   -0.139301
     19          1           0       -3.670268    0.306059   -1.614650
     20          1           0       -3.563110    2.094802    0.863635
     21          1           0       -4.451510    2.458966   -0.611401
     22          1           0       -2.297106    2.465258   -1.913391
     23          1           0       -1.403658    2.099023   -0.429975
     24          1           0       -2.243942    3.649942   -0.596955
     25          6           0       -4.922393   -0.191541    0.067845
     26          6           0       -5.034240   -1.686353   -0.233839
     27          6           0       -6.290360   -2.318258    0.366702
     28          1           0       -4.923935   -0.043197    1.156599
     29          1           0       -5.813480    0.321737   -0.318750
     30          1           0       -4.142694   -2.196105    0.153350
     31          1           0       -5.031094   -1.831939   -1.321686
     32          1           0       -7.190545   -1.836160   -0.028076
     33          1           0       -6.297097   -2.202395    1.455340
     34          1           0       -6.350261   -3.387079    0.138904
 ---------------------------------------------------------------------

 SCF Done:  E(RHF) =  -669.535534334     A.U. after   15 cycles
 E2 =    -0.2090788478D+01 EUMP2 =    -0.67162632281199D+03

 The electronic state is 1-A.
 Alpha  occ. eigenvalues --  -20.60748 -20.60742 -15.85801 -11.31171 -11.27748
 Alpha  occ. eigenvalues --  -11.27735 -11.27492 -11.26763 -11.26733 -11.22313
 Alpha  occ. eigenvalues --  -11.22015 -11.21952 -11.21937 -11.21815 -11.21363
 Alpha  occ. eigenvalues --   -1.59823  -1.39376  -1.19347  -1.08961  -1.08742
 Alpha  occ. eigenvalues --   -1.04751  -1.04088  -0.96551  -0.95575  -0.87574
 Alpha  occ. eigenvalues --   -0.86149  -0.82407  -0.80155  -0.78743  -0.77453
 Alpha  occ. eigenvalues --   -0.72020  -0.71146  -0.70457  -0.65607  -0.64999
 Alpha  occ. eigenvalues --   -0.64769  -0.62141  -0.61459  -0.59920  -0.58140
 Alpha  occ. eigenvalues --   -0.55872  -0.55246  -0.53256  -0.53097  -0.53051
 Alpha  occ. eigenvalues --   -0.52746  -0.50485  -0.48782  -0.48774  -0.48459
 Alpha  occ. eigenvalues --   -0.47178  -0.46292  -0.46199  -0.44781  -0.44324
 Alpha  occ. eigenvalues --   -0.37331  -0.36351
 Alpha virt. eigenvalues --    0.05081   0.11259   0.16535   0.20085   0.22547
 Alpha virt. eigenvalues --    0.23770   0.25349   0.26404   0.27197   0.28331
 Alpha virt. eigenvalues --    0.28556   0.30069   0.31120   0.31510   0.32114

 Mulliken charges:
               1
     1  C   -0.172387
     2  C   -0.218574
     3  C   -0.170978
     4  C    0.158623
     5  C   -0.172678
     6  C   -0.225967
     7  H    0.225702
     8  H    0.223283
     9  H    0.275576
    10  H    0.276144
    11  H    0.233843
    12  N    0.488104
    13  O   -0.460280
    14  O   -0.460602
    15  C   -0.299093
    16  C   -0.299278
    17  C   -0.481182
    18  H    0.148862
    19  H    0.152125
    20  H    0.150454
    21  H    0.155592
    22  H    0.160802
    23  H    0.146734
    24  H    0.162093
    25  C   -0.298568
    26  C   -0.300140
    27  C   -0.475978
    28  H    0.148683
    29  H    0.150878
    30  H    0.152332
    31  H    0.153518
    32  H    0.155783
    33  H    0.154782
    34  H    0.161789
 Sum of Mulliken charges =  -0.00000

 Dipole moment (field-independent basis, Debye):
    X=             -3.1985    Y=              1.8658    Z=              3.7515  Tot=              5.2712
 Quadrupole moment (field-independent basis, Debye-Ang):
   XX=           -115.0040   YY=            -95.1350   ZZ=            -92.0815
   XY=              4.9970   XZ=             16.4472   YZ=             -2.7102

 Normal termination of Gaussian 16 at Thu May  6 04:49:21 2021.
