 Gaussian 16, Revision A.03,
 Gaussian 16:  EM64L-G16RevA.03 25-Dec-2016

 -------------
 #p 6-31g* mp2
 -------------

 ------------------------------------------------------
 Input file generated by CHIRIPA (05-May-2021 14:57:26)
 ------------------------------------------------------
 Symbolic Z-matrix:
 Charge =  0 Multiplicity = 1

                         Standard orientation:
 ---------------------------------------------------------------------
 Center     Atomic      Atomic             Coordinates (Angstroms)
 Number     Number       Type             X           Y           Z
 ---------------------------------------------------------------------
      1          6           0       -3.699810    2.550786    0.447629
      2          6           0       -2.793545    1.754518    1.155556
      3          6           0       -2.740725    0.374429    0.938503
      4          6           0       -3.612607   -0.178689    0.001929
      5          6           0       -4.526658    0.588047   -0.719124
      6          6           0       -4.561954    1.966040   -0.485806
      7          1           0       -3.734036    3.622058    0.622559
      8          1           0       -2.122799    2.205912    1.881082
      9          1           0       -2.048932   -0.265491    1.472679
     10          1           0       -5.182712    0.109346   -1.435962
     11          1           0       -5.266800    2.581972   -1.037046
     12          7           0       -3.565965   -1.638618   -0.236465
     13          8           0       -4.344715   -2.101661   -1.066994
     14          8           0       -2.751540   -2.292224    0.411723
     15          6           0        1.241999   -0.846196    0.266273
     16          6           0        1.497544    0.440124   -0.220141
     17          6           0        2.811317    0.885267   -0.394493
     18          6           0        3.850219    0.013896   -0.070946
     19          6           0        3.627902   -1.273378    0.415665
     20          6           0        2.306117   -1.697341    0.582066
     21          1           0        0.218317   -1.183767    0.398625
     22          1           0        0.673106    1.103295   -0.466216
     23          1           0        3.037642    1.876080   -0.769308
     24          1           0        4.470504   -1.911699    0.652278
     25          1           0        2.110644   -2.696839    0.960006
     26          7           0        5.245292    0.473937   -0.251316
     27          8           0        6.143039   -0.312957    0.041063
     28          8           0        5.414589    1.612703   -0.681654
 ---------------------------------------------------------------------

 SCF Done:  E(RHF) =  -868.339138795     A.U. after   16 cycles
 E2 =    -0.2599902141D+01 EUMP2 =    -0.87093904093558D+03

 The electronic state is 1-A.
 Alpha  occ. eigenvalues --  -20.61951 -20.61890 -20.60706 -20.60696 -15.86947
 Alpha  occ. eigenvalues --  -15.85756 -11.32252 -11.31080 -11.28865 -11.28734
 Alpha  occ. eigenvalues --  -11.28456 -11.27806 -11.27724 -11.27682 -11.27615
 Alpha  occ. eigenvalues --  -11.27279 -11.26671 -11.26563  -1.60973  -1.59780
 Alpha  occ. eigenvalues --   -1.40535  -1.39335  -1.20400  -1.19241  -1.09790
 Alpha  occ. eigenvalues --   -1.08629  -1.05789  -1.04642  -0.96644  -0.95472
 Alpha  occ. eigenvalues --   -0.87183  -0.86031  -0.83475  -0.82312  -0.78554
 Alpha  occ. eigenvalues --   -0.77379  -0.73165  -0.72288  -0.71973  -0.71492
 Alpha  occ. eigenvalues --   -0.71104  -0.70291  -0.66042  -0.65763  -0.64885
 Alpha  occ. eigenvalues --   -0.64638  -0.63133  -0.61992  -0.56253  -0.55083
 Alpha  occ. eigenvalues --   -0.54120  -0.53837  -0.52973  -0.52719  -0.49934
 Alpha  occ. eigenvalues --   -0.49902  -0.48733  -0.48727  -0.45939  -0.44750
 Alpha  occ. eigenvalues --   -0.38348  -0.37409  -0.37193  -0.36258
 Alpha virt. eigenvalues --    0.03919   0.05148   0.10181   0.11390   0.15445
 Alpha virt. eigenvalues --    0.16618   0.19875   0.21847   0.25690   0.26815
 Alpha virt. eigenvalues --    0.27449   0.28774   0.30024   0.30881   0.32552

 Mulliken charges:
               1
     1  C   -0.170631
     2  C   -0.221206
     3  C   -0.179223
     4  C    0.159608
     5  C   -0.170026
     6  C   -0.217639
     7  H    0.229788
     8  H    0.227298
     9  H    0.272600
    10  H    0.278598
    11  H    0.227674
    12  N    0.489394
    13  O   -0.453028
    14  O   -0.467990
    15  C   -0.182133
    16  C   -0.222665
    17  C   -0.171252
    18  C    0.158187
    19  C   -0.171068
    20  C   -0.219584
    21  H    0.239383
    22  H    0.220092
    23  H    0.273507
    24  H    0.275725
    25  H    0.228449
    26  N    0.488123
    27  O   -0.460094
    28  O   -0.461887
 Sum of Mulliken charges =  -0.00000

 Dipole moment (field-independent basis, Debye):
    X=             -5.4645    Y=              3.5227    Z=              1.4181  Tot=              6.6544
 Quadrupole moment (field-independent basis, Debye-Ang):
   XX=           -137.9463   YY=           -102.9906   ZZ=           -103.2160
   XY=            -27.7782   XZ=              3.6387   YZ=             -1.9405

 Normal termination of Gaussian 16 at Thu May  6 16:30:00 2021.
