 Gaussian 16, Revision A.03,
 Gaussian 16:  EM64L-G16RevA.03 25-Dec-2016

 -------------
 #p 6-31g* mp2
 -------------

 ------------------------------------------------------
 Input file generated by CHIRIPA (05-May-2021 14:51:09)
 ------------------------------------------------------
 Symbolic Z-matrix:
 Charge =  0 Multiplicity = 1

                         Standard orientation:
 ---------------------------------------------------------------------
 Center     Atomic      Atomic             Coordinates (Angstroms)
 Number     Number       Type             X           Y           Z
 ---------------------------------------------------------------------
      1          6           0       -2.723073   -0.530199    0.906494
      2          6           0       -1.220158   -0.756696    0.739363
      3          6           0       -0.602624   -1.516433    1.913776
      4          1           0       -2.902615    0.023429    1.838270
      5          1           0       -3.223006   -1.502191    1.019152
      6          1           0       -0.723374    0.215361    0.625668
      7          1           0       -1.044159   -1.309682   -0.192219
      8          1           0       -1.071533   -2.499350    2.026027
      9          1           0       -0.748926   -0.965641    2.848562
     10          1           0        0.472287   -1.667358    1.773600
     11          6           0       -3.354818    0.228047   -0.259563
     12          6           0       -4.857733    0.454544   -0.092432
     13          6           0       -5.475267    1.214282   -1.266844
     14          1           0       -2.854885    1.200040   -0.372221
     15          1           0       -3.175276   -0.325581   -1.191338
     16          1           0       -5.033732    1.007530    0.839151
     17          1           0       -5.354517   -0.517513    0.021263
     18          1           0       -5.328965    0.663490   -2.201630
     19          1           0       -5.006358    2.197198   -1.379095
     20          1           0       -6.550178    1.365207   -1.126669
     21          6           0        3.250626   -0.581882   -0.286102
     22          6           0        2.295314   -1.526874   -1.015730
     23          6           0        2.732227   -2.989711   -0.932013
     24          1           0        4.258250   -0.689942   -0.710319
     25          1           0        3.321053   -0.884746    0.767799
     26          1           0        2.225638   -1.221475   -2.067630
     27          1           0        1.289807   -1.416413   -0.589855
     28          1           0        2.783669   -3.317291    0.111369
     29          1           0        3.724819   -3.121245   -1.374802
     30          1           0        2.035200   -3.647744   -1.460224
     31          6           0        2.827266    0.884034   -0.360830
     32          6           0        3.782577    1.829026    0.368798
     33          6           0        3.345664    3.291863    0.285081
     34          1           0        2.756838    1.186897   -1.414731
     35          1           0        1.819641    0.992093    0.063388
     36          1           0        4.788085    1.718565   -0.057076
     37          1           0        3.852252    1.523627    1.420698
     38          1           0        2.353073    3.423397    0.727870
     39          1           0        3.294222    3.619442   -0.758301
     40          1           0        4.042691    3.949896    0.813291
 ---------------------------------------------------------------------

 SCF Done:  E(RHF) =  -470.732514277     A.U. after   11 cycles
 E2 =    -0.1584323480D+01 EUMP2 =    -0.47231683775712D+03

 The electronic state is 1-A.
 Alpha  occ. eigenvalues --  -11.21686 -11.21628 -11.21588 -11.21468 -11.21454
 Alpha  occ. eigenvalues --  -11.21390 -11.21373 -11.21315 -11.21160 -11.21088
 Alpha  occ. eigenvalues --  -11.21072 -11.21034  -1.08503  -1.08384  -1.03625
 Alpha  occ. eigenvalues --   -1.03471  -0.96042  -0.95952  -0.87053  -0.86967
 Alpha  occ. eigenvalues --   -0.79729  -0.79521  -0.78397  -0.78105  -0.65121
 Alpha  occ. eigenvalues --   -0.65077  -0.61133  -0.60870  -0.59421  -0.59248
 Alpha  occ. eigenvalues --   -0.57651  -0.57538  -0.55366  -0.55196  -0.52735
 Alpha  occ. eigenvalues --   -0.52641  -0.52470  -0.52370  -0.50009  -0.49862
 Alpha  occ. eigenvalues --   -0.48061  -0.47861  -0.46837  -0.46444  -0.46067
 Alpha  occ. eigenvalues --   -0.45731  -0.45702  -0.45373  -0.43838  -0.43747
 Alpha virt. eigenvalues --    0.20196   0.23045   0.23645   0.24491   0.25859
 Alpha virt. eigenvalues --    0.26421   0.26668   0.27849   0.27996   0.29378
 Alpha virt. eigenvalues --    0.30496   0.30611   0.31723   0.31810   0.32219

 Mulliken charges:
               1
     1  C   -0.297239
     2  C   -0.306734
     3  C   -0.479927
     4  H    0.149692
     5  H    0.149849
     6  H    0.155031
     7  H    0.153904
     8  H    0.156120
     9  H    0.155772
    10  H    0.163144
    11  C   -0.298495
    12  C   -0.299726
    13  C   -0.475742
    14  H    0.149694
    15  H    0.149973
    16  H    0.151972
    17  H    0.151987
    18  H    0.155269
    19  H    0.155301
    20  H    0.160343
    21  C   -0.298176
    22  C   -0.312728
    23  C   -0.475439
    24  H    0.149613
    25  H    0.148871
    26  H    0.151411
    27  H    0.167356
    28  H    0.154801
    29  H    0.155072
    30  H    0.159621
    31  C   -0.302716
    32  C   -0.299496
    33  C   -0.475576
    34  H    0.149565
    35  H    0.153637
    36  H    0.152022
    37  H    0.151896
    38  H    0.154601
    39  H    0.155217
    40  H    0.160261
 Sum of Mulliken charges =  -0.00000

 Dipole moment (field-independent basis, Debye):
    X=             -0.0562    Y=              0.0027    Z=              0.0033  Tot=              0.0564
 Quadrupole moment (field-independent basis, Debye-Ang):
   XX=            -84.9417   YY=            -85.5327   ZZ=            -84.4371
   XY=              0.8182   XZ=             -0.8057   YZ=              0.6900

 Normal termination of Gaussian 16 at Thu May  6 06:55:21 2021.
