 Gaussian 16, Revision A.03,
 Gaussian 16:  EM64L-G16RevA.03 25-Dec-2016

 -------------
 #p 6-31g* mp2
 -------------

 ------------------------------------------------------
 Input file generated by CHIRIPA (05-May-2021 14:51:13)
 ------------------------------------------------------
 Symbolic Z-matrix:
 Charge =  0 Multiplicity = 1

                         Standard orientation:
 ---------------------------------------------------------------------
 Center     Atomic      Atomic             Coordinates (Angstroms)
 Number     Number       Type             X           Y           Z
 ---------------------------------------------------------------------
      1          6           0       -4.070945    0.675459    0.076639
      2          6           0       -3.575455    2.102586   -0.159553
      3          6           0       -4.670414    3.149972    0.044998
      4          1           0       -4.909803    0.468350   -0.601865
      5          1           0       -4.468400    0.597086    1.098050
      6          1           0       -3.177786    2.177880   -1.179752
      7          1           0       -2.737555    2.306257    0.519459
      8          1           0       -5.061606    3.103890    1.066490
      9          1           0       -5.504338    2.974784   -0.642375
     10          1           0       -4.294470    4.163023   -0.128938
     11          6           0       -2.987748   -0.382909   -0.124035
     12          6           0       -3.483238   -1.810035    0.112157
     13          6           0       -2.388279   -2.857422   -0.092394
     14          1           0       -2.590293   -0.304535   -1.145447
     15          1           0       -2.148890   -0.175800    0.554469
     16          1           0       -4.321138   -2.013706   -0.566855
     17          1           0       -3.880907   -1.885330    1.132356
     18          1           0       -1.554355   -2.682234    0.594978
     19          1           0       -1.997087   -2.811340   -1.113887
     20          1           0       -2.764223   -3.870473    0.081542
     21          6           0        4.196796    0.165192   -0.178616
     22          6           0        4.354074    1.614595    0.282339
     23          6           0        5.694439    2.223898   -0.129926
     24          1           0        5.017512   -0.435910    0.236172
     25          1           0        4.299411    0.122229   -1.271785
     26          1           0        4.249815    1.655003    1.374179
     27          1           0        3.532781    2.212277   -0.133438
     28          1           0        5.803862    2.212880   -1.219195
     29          1           0        6.524970    1.652438    0.296988
     30          1           0        5.785745    3.260308    0.209747
     31          6           0        2.861896   -0.457742    0.226012
     32          6           0        2.704620   -1.907145   -0.234943
     33          6           0        1.364253   -2.516448    0.177323
     34          1           0        2.759282   -0.414779    1.319181
     35          1           0        2.041181    0.143359   -0.188776
     36          1           0        3.525912   -2.504828    0.180834
     37          1           0        2.808878   -1.947553   -1.326782
     38          1           0        0.533724   -1.944989   -0.249591
     39          1           0        1.254832   -2.505430    1.266592
     40          1           0        1.272949   -3.552858   -0.162350
 ---------------------------------------------------------------------

 SCF Done:  E(RHF) =  -470.732530523     A.U. after   11 cycles
 E2 =    -0.1582888668D+01 EUMP2 =    -0.47231541919046D+03

 The electronic state is 1-A.
 Alpha  occ. eigenvalues --  -11.21602 -11.21588 -11.21546 -11.21542 -11.21399
 Alpha  occ. eigenvalues --  -11.21381 -11.21340 -11.21321 -11.21071 -11.21061
 Alpha  occ. eigenvalues --  -11.20963 -11.20915  -1.08420  -1.08395  -1.03536
 Alpha  occ. eigenvalues --   -1.03460  -0.96025  -0.95873  -0.87092  -0.86846
 Alpha  occ. eigenvalues --   -0.79702  -0.79436  -0.78267  -0.78176  -0.65049
 Alpha  occ. eigenvalues --   -0.65028  -0.60925  -0.60877  -0.59335  -0.59301
 Alpha  occ. eigenvalues --   -0.57696  -0.57455  -0.55271  -0.55209  -0.52801
 Alpha  occ. eigenvalues --   -0.52634  -0.52500  -0.52110  -0.49922  -0.49854
 Alpha  occ. eigenvalues --   -0.48100  -0.47647  -0.46616  -0.46554  -0.45878
 Alpha  occ. eigenvalues --   -0.45721  -0.45680  -0.45520  -0.43768  -0.43731
 Alpha virt. eigenvalues --    0.22191   0.23061   0.23586   0.24845   0.26370
 Alpha virt. eigenvalues --    0.26515   0.26864   0.27446   0.27934   0.29301
 Alpha virt. eigenvalues --    0.30256   0.31351   0.31627   0.31810   0.32184

 Mulliken charges:
               1
     1  C   -0.298090
     2  C   -0.299694
     3  C   -0.475695
     4  H    0.149736
     5  H    0.149649
     6  H    0.151653
     7  H    0.152011
     8  H    0.155241
     9  H    0.155182
    10  H    0.160205
    11  C   -0.299357
    12  C   -0.299504
    13  C   -0.480796
    14  H    0.148727
    15  H    0.150151
    16  H    0.151379
    17  H    0.151571
    18  H    0.164873
    19  H    0.154265
    20  H    0.159320
    21  C   -0.298178
    22  C   -0.299633
    23  C   -0.475682
    24  H    0.149616
    25  H    0.149491
    26  H    0.151772
    27  H    0.151963
    28  H    0.155172
    29  H    0.155152
    30  H    0.160181
    31  C   -0.298441
    32  C   -0.300544
    33  C   -0.478576
    34  H    0.149034
    35  H    0.149823
    36  H    0.151397
    37  H    0.151649
    38  H    0.160908
    39  H    0.153105
    40  H    0.160964
 Sum of Mulliken charges =  -0.00000

 Dipole moment (field-independent basis, Debye):
    X=             -0.0073    Y=             -0.0143    Z=              0.0064  Tot=              0.0173
 Quadrupole moment (field-independent basis, Debye-Ang):
   XX=            -86.0837   YY=            -85.7875   ZZ=            -83.0895
   XY=             -0.0707   XZ=              0.8639   YZ=             -0.1920

 Normal termination of Gaussian 16 at Thu May  6 05:34:17 2021.
