 Gaussian 16, Revision A.03,
 Gaussian 16:  EM64L-G16RevA.03 25-Dec-2016

 -------------
 #p 6-31g* mp2
 -------------

 ------------------------------------------------------
 Input file generated by CHIRIPA (05-May-2021 14:53:12)
 ------------------------------------------------------
 Symbolic Z-matrix:
 Charge =  0 Multiplicity = 1

                         Standard orientation:
 ---------------------------------------------------------------------
 Center     Atomic      Atomic             Coordinates (Angstroms)
 Number     Number       Type             X           Y           Z
 ---------------------------------------------------------------------
      1          6           0       -3.270176    0.515665   -0.018642
      2          6           0       -3.641184    1.821008   -0.723212
      3          6           0       -2.530291    2.868995   -0.649502
      4          1           0       -3.033968    0.728345    1.032985
      5          1           0       -2.353158    0.111613   -0.469433
      6          1           0       -4.558000    2.221761   -0.272146
      7          1           0       -3.876722    1.605168   -1.773237
      8          1           0       -1.614498    2.493172   -1.117135
      9          1           0       -2.299648    3.113268    0.392484
     10          1           0       -2.816619    3.794104   -1.159454
     11          6           0       -4.370676   -0.541877   -0.083710
     12          6           0       -3.999668   -1.847220    0.620860
     13          6           0       -5.110561   -2.895207    0.547150
     14          1           0       -5.287694   -0.137825    0.367082
     15          1           0       -4.606884   -0.754557   -1.135336
     16          1           0       -3.764130   -1.631380    1.670885
     17          1           0       -3.082852   -2.247973    0.169794
     18          1           0       -5.341204   -3.139480   -0.494836
     19          1           0       -6.026354   -2.519384    1.014784
     20          1           0       -4.824233   -3.820316    1.057102
     21          6           0        1.201141    1.704642    0.600170
     22          6           0        0.981133    0.765663   -0.412961
     23          6           0        1.962297   -0.177827   -0.731853
     24          6           0        3.157137   -0.153570   -0.014176
     25          6           0        3.406142    0.769238    1.000571
     26          6           0        2.410811    1.703435    1.302465
     27          1           0        0.433447    2.433958    0.841289
     28          1           0        0.042648    0.764245   -0.960035
     29          1           0        1.818273   -0.915979   -1.511473
     30          1           0        4.351791    0.745838    1.528415
     31          1           0        2.584429    2.431482    2.089770
     32          7           0        4.203350   -1.147481   -0.342774
     33          8           0        5.247461   -1.105161    0.304280
     34          8           0        3.959451   -1.950008   -1.241161
 ---------------------------------------------------------------------

 SCF Done:  E(RHF) =  -669.535029956     A.U. after   15 cycles
 E2 =    -0.2092240550D+01 EUMP2 =    -0.67162727050599D+03

 The electronic state is 1-A.
 Alpha  occ. eigenvalues --  -20.60707 -20.60702 -15.85760 -11.31105 -11.27681
 Alpha  occ. eigenvalues --  -11.27676 -11.27370 -11.26677 -11.26642 -11.22661
 Alpha  occ. eigenvalues --  -11.22451 -11.22405 -11.22168 -11.22093 -11.21496
 Alpha  occ. eigenvalues --   -1.59784  -1.39338  -1.19275  -1.09309  -1.08666
 Alpha  occ. eigenvalues --   -1.04685  -1.04386  -0.96867  -0.95505  -0.87885
 Alpha  occ. eigenvalues --   -0.86084  -0.82344  -0.80478  -0.79084  -0.77399
 Alpha  occ. eigenvalues --   -0.71979  -0.71107  -0.70371  -0.65992  -0.64926
 Alpha  occ. eigenvalues --   -0.64694  -0.62134  -0.61690  -0.60229  -0.58455
 Alpha  occ. eigenvalues --   -0.56185  -0.55171  -0.53528  -0.53290  -0.52990
 Alpha  occ. eigenvalues --   -0.52800  -0.50822  -0.48803  -0.48736  -0.48700
 Alpha  occ. eigenvalues --   -0.47476  -0.46604  -0.46503  -0.44748  -0.44625
 Alpha  occ. eigenvalues --   -0.37240  -0.36283
 Alpha virt. eigenvalues --    0.05139   0.11289   0.16615   0.19260   0.22511
 Alpha virt. eigenvalues --    0.23905   0.24270   0.25854   0.26715   0.28113
 Alpha virt. eigenvalues --    0.29346   0.30085   0.31008   0.31455   0.31835

 Mulliken charges:
               1
     1  C   -0.301775
     2  C   -0.300518
     3  C   -0.482241
     4  H    0.150709
     5  H    0.144542
     6  H    0.156816
     7  H    0.155496
     8  H    0.149388
     9  H    0.152910
    10  H    0.167927
    11  C   -0.298693
    12  C   -0.300288
    13  C   -0.476344
    14  H    0.151896
    15  H    0.151353
    16  H    0.152969
    17  H    0.152613
    18  H    0.156175
    19  H    0.155830
    20  H    0.162937
    21  C   -0.174312
    22  C   -0.224620
    23  C   -0.171992
    24  C    0.158599
    25  C   -0.170887
    26  C   -0.219175
    27  H    0.230075
    28  H    0.230508
    29  H    0.275158
    30  H    0.275251
    31  H    0.223126
    32  N    0.488004
    33  O   -0.460669
    34  O   -0.460770
 Sum of Mulliken charges =  -0.00000

 Dipole moment (field-independent basis, Debye):
    X=             -3.9644    Y=              3.4916    Z=              1.1781  Tot=              5.4125
 Quadrupole moment (field-independent basis, Debye-Ang):
   XX=           -116.1781   YY=            -96.0123   ZZ=            -91.9069
   XY=             12.2286   XZ=              5.8918   YZ=              1.6692

 Normal termination of Gaussian 16 at Wed May  5 23:21:13 2021.
