 Gaussian 16, Revision A.03,
 Gaussian 16:  EM64L-G16RevA.03 25-Dec-2016

 -------------
 #p 6-31g* mp2
 -------------

 ------------------------------------------------------
 Input file generated by CHIRIPA (05-May-2021 14:51:12)
 ------------------------------------------------------
 Symbolic Z-matrix:
 Charge =  0 Multiplicity = 1

                         Standard orientation:
 ---------------------------------------------------------------------
 Center     Atomic      Atomic             Coordinates (Angstroms)
 Number     Number       Type             X           Y           Z
 ---------------------------------------------------------------------
      1          6           0        3.593559   -0.531901    0.117180
      2          6           0        4.213708   -1.608732   -0.773795
      3          6           0        4.049598   -3.016755   -0.200792
      4          1           0        4.053699   -0.579730    1.113638
      5          1           0        2.525576   -0.750405    0.255249
      6          1           0        5.279903   -1.387498   -0.911273
      7          1           0        3.752175   -1.558209   -1.768304
      8          1           0        2.989566   -3.262269   -0.079731
      9          1           0        4.525974   -3.090588    0.782170
     10          1           0        4.500095   -3.770891   -0.853625
     11          6           0        3.749523    0.881042   -0.442280
     12          6           0        3.129373    1.957873    0.448695
     13          6           0        3.293484    3.365896   -0.124308
     14          1           0        4.817506    1.099546   -0.580349
     15          1           0        3.289383    0.928871   -1.438738
     16          1           0        3.590907    1.907350    1.443205
     17          1           0        2.063179    1.736639    0.586173
     18          1           0        2.817107    3.439729   -1.107270
     19          1           0        4.353516    3.611410   -0.245369
     20          1           0        2.842987    4.120032    0.528525
     21          6           0       -3.141005   -0.534772    0.577543
     22          6           0       -1.728184    0.007084    0.357740
     23          6           0       -0.677912   -0.723638    1.194859
     24          1           0       -3.396852   -0.452379    1.642765
     25          1           0       -3.157280   -1.606165    0.334138
     26          1           0       -1.714905    1.077445    0.600162
     27          1           0       -1.475744   -0.076431   -0.707115
     28          1           0       -0.661910   -1.790027    0.947557
     29          1           0       -0.902429   -0.629596    2.262262
     30          1           0        0.324762   -0.320263    1.022253
     31          6           0       -4.202077    0.185631   -0.252443
     32          6           0       -5.614897   -0.356225   -0.032640
     33          6           0       -6.665170    0.374497   -0.869759
     34          1           0       -4.185802    1.257024   -0.009038
     35          1           0       -3.946229    0.103238   -1.317665
     36          1           0       -5.867338   -0.272710    1.032215
     37          1           0       -5.628177   -1.426586   -0.275063
     38          1           0       -6.440652    0.280455   -1.937161
     39          1           0       -6.681171    1.440886   -0.622457
     40          1           0       -7.667844   -0.028878   -0.697153
 ---------------------------------------------------------------------

 SCF Done:  E(RHF) =  -470.733186472     A.U. after   11 cycles
 E2 =    -0.1582919922D+01 EUMP2 =    -0.47231610639436D+03

 The electronic state is 1-A.
 Alpha  occ. eigenvalues --  -11.21652 -11.21620 -11.21611 -11.21581 -11.21434
 Alpha  occ. eigenvalues --  -11.21386 -11.21374 -11.21318 -11.21103 -11.21086
 Alpha  occ. eigenvalues --  -11.21074 -11.21045  -1.08464  -1.08420  -1.03564
 Alpha  occ. eigenvalues --   -1.03519  -0.96022  -0.95960  -0.87037  -0.86979
 Alpha  occ. eigenvalues --   -0.79633  -0.79581  -0.78276  -0.78235  -0.65097
 Alpha  occ. eigenvalues --   -0.65070  -0.60971  -0.60905  -0.59407  -0.59328
 Alpha  occ. eigenvalues --   -0.57674  -0.57539  -0.55309  -0.55245  -0.52789
 Alpha  occ. eigenvalues --   -0.52633  -0.52448  -0.52362  -0.49961  -0.49898
 Alpha  occ. eigenvalues --   -0.47964  -0.47901  -0.46667  -0.46613  -0.45820
 Alpha  occ. eigenvalues --   -0.45768  -0.45742  -0.45679  -0.43795  -0.43712
 Alpha virt. eigenvalues --    0.20959   0.23094   0.23934   0.24286   0.25998
 Alpha virt. eigenvalues --    0.26613   0.27061   0.27433   0.27857   0.29208
 Alpha virt. eigenvalues --    0.30622   0.31416   0.31700   0.31901   0.32066

 Mulliken charges:
               1
     1  C   -0.306608
     2  C   -0.298979
     3  C   -0.475784
     4  H    0.149551
     5  H    0.157572
     6  H    0.151829
     7  H    0.151648
     8  H    0.155511
     9  H    0.155236
    10  H    0.160025
    11  C   -0.297802
    12  C   -0.303600
    13  C   -0.475567
    14  H    0.149615
    15  H    0.149354
    16  H    0.152121
    17  H    0.154941
    18  H    0.155289
    19  H    0.155321
    20  H    0.160227
    21  C   -0.298468
    22  C   -0.299190
    23  C   -0.486354
    24  H    0.149891
    25  H    0.149621
    26  H    0.152020
    27  H    0.151545
    28  H    0.154847
    29  H    0.156018
    30  H    0.169913
    31  C   -0.298274
    32  C   -0.299677
    33  C   -0.475723
    34  H    0.149608
    35  H    0.149599
    36  H    0.152018
    37  H    0.151967
    38  H    0.155180
    39  H    0.155227
    40  H    0.160331
 Sum of Mulliken charges =  -0.00000

 Dipole moment (field-independent basis, Debye):
    X=             -0.0115    Y=              0.0016    Z=              0.0113  Tot=              0.0162
 Quadrupole moment (field-independent basis, Debye-Ang):
   XX=            -84.7594   YY=            -85.6833   ZZ=            -84.3121
   XY=              0.3354   XZ=             -0.1036   YZ=              1.1087

 Normal termination of Gaussian 16 at Thu May  6 05:30:35 2021.
